Control file title. For DL_FIELD 4.10
49780
    1MOL     C1    1   4.551   6.604   0.415 -0.1506  0.4882 -0.3899
    1MOL     C2    2   4.674   6.567   0.509 -0.1356  0.6960 -0.0350
    1MOL     O3    3   4.642   6.613   0.641 -0.1905 -0.3209 -0.9953
    1MOL     C4    4   4.544   6.521   0.697 -0.0978 -0.4853 -0.3059
    1MOL     C5    5   4.505   6.581   0.837 -0.0094 -0.1233  0.0160
    1MOL     H6    6   4.529   6.710   0.412  1.3025  0.7691 -1.5094
    1MOL     H7    7   4.577   6.571   0.315  0.3503  0.2271 -0.1751
    1MOL     H8    8   4.698   6.461   0.502 -2.4286  0.2529 -1.9802
    1MOL     H9    9   4.584   6.424   0.725  2.5326  0.7461  0.3300
    1MOL    H10   10   4.452   6.518   0.637  0.4673 -0.4573 -1.1775
    1MOL    H11   11   4.594   6.601   0.895  0.3161  0.7798 -0.7810
    1MOL    H12   12   4.452   6.677   0.839  1.9441  0.9794 -0.2710
    1MOL    H13   13   4.439   6.517   0.896  1.7323 -0.5525  1.5375
    1MOL    H14   14   4.457   6.558   0.445 -1.7984  3.6634 -0.4697
    1MOL    C15   15   4.788   6.652   0.447  0.8890 -0.5175  0.1869
    1MOL    C16   16   4.925   6.628   0.515  1.1343  0.0867  0.8639
    1MOL    O17   17   5.015   6.741   0.493  0.1387 -0.2318  0.0269
    1MOL    C18   18   4.985   6.861   0.562 -0.3462  0.6626 -0.7112
    1MOL    C19   19   5.097   6.960   0.534  0.0770  0.4904 -0.7146
    1MOL    H20   20   4.747   6.750   0.474 -0.5519 -1.1768  0.4580
    1MOL    H21   21   4.800   6.652   0.338  0.0815  0.2474  0.0882
    1MOL    H22   22   4.923   6.628   0.624 -0.0643  0.3486  0.8485
    1MOL    H23   23   4.985   6.839   0.669 -1.1690  0.1537 -0.8072
    1MOL    H24   24   4.886   6.904   0.545 -0.9594 -0.1067  0.8785
    1MOL    H25   25   5.182   6.919   0.589  0.4276 -0.8769 -2.2175
    1MOL    H26   26   5.082   7.057   0.581 -0.4427 -1.1192  2.5454
    1MOL    H27   27   5.117   6.973   0.427  3.1517  0.5863 -0.1671
    1MOL    C28   28   5.000   6.510   0.447  0.1415 -0.1211  0.0703
    1MOL    C29   29   5.120   6.442   0.525  0.4169 -0.0747  0.0796
    1MOL    O30   30   5.173   6.354   0.420 -0.0427  0.3227  0.1391
    1MOL    C31   31   5.314   6.335   0.430 -0.0532 -0.7151  0.8421
    1MOL    C32   32   5.348   6.303   0.286 -0.1770 -0.2496 -0.6916
    1MOL    H33   33   5.028   6.549   0.349 -0.8581  2.1101  0.6455
    1MOL    H34   34   4.929   6.431   0.424 -0.1563  0.6090 -1.6075
    1MOL    H35   35   5.190   6.523   0.546 -0.3325  0.1427  1.8770
    1MOL    H36   36   5.353   6.262   0.501 -0.3584 -2.0875 -0.3658
    1MOL    H37   37   5.364   6.427   0.459 -0.3673 -0.3253  0.1586
    1MOL    H38   38   5.454   6.290   0.267  0.5411  2.5827  1.1089
    1MOL    H39   39   5.293   6.216   0.250 -1.6225  0.7129 -0.8484
    1MOL    H40   40   5.304   6.376   0.217 -1.0059 -0.2410 -0.1620
    1MOL    C41   41   5.079   6.362   0.648 -0.0349  0.0699 -0.4468
    1MOL    C42   42   4.979   6.240   0.633 -0.4709 -1.2180 -0.5081
    1MOL    O43   43   4.917   6.218   0.763 -0.7005  0.0589 -0.2699
    1MOL    C44   44   4.799   6.295   0.783 -0.0530 -0.6467  0.7532
    1MOL    C45   45   4.734   6.234   0.904  0.0277 -0.5270 -0.2571
    1MOL    H46   46   5.047   6.423   0.732  1.6156  0.9558 -0.4443
    1MOL    H47   47   5.171   6.324   0.691  1.2068  2.6871 -0.7402
    1MOL    H48   48   4.904   6.268   0.559 -1.1968 -0.0885  0.6313
    1MOL    H49   49   4.736   6.281   0.695 -0.3148  1.8765  0.4926
    1MOL    H50   50   4.818   6.402   0.787  1.5166 -0.9195  0.5616
    1MOL    H51   51   4.794   6.240   0.995  0.8436  0.3798 -0.8405
    1MOL    H52   52   4.633   6.269   0.925 -1.2189 -3.0233 -1.8105
    1MOL    H53   53   4.725   6.126   0.897  1.1132 -1.1021  4.7227
    1MOL    C54   54   5.056   6.109   0.616 -0.3006  0.2488  0.0506
    1MOL    C55   55   4.976   5.973   0.637 -0.2368 -0.5095 -0.5816
    1MOL    O56   56   5.046   5.860   0.583 -0.0041  0.0048 -0.2779
    1MOL    C57   57   5.118   5.788   0.679  0.0090  0.7342 -0.6897
    1MOL    C58   58   5.198   5.680   0.608  0.3242  0.4281  0.3519
    1MOL    H59   59   5.145   6.097   0.678  0.3461  3.0852 -0.2389
    1MOL    H60   60   5.102   6.115   0.518  1.0602  1.1003  0.7120
    1MOL    H61   61   4.964   5.981   0.745  0.3367 -0.2516 -0.5390
    1MOL    H62   62   5.050   5.731   0.742  1.3732  0.3212  0.4330
    1MOL    H63   63   5.186   5.849   0.739  1.5215 -0.4830 -1.1355
    1MOL    H64   64   5.256   5.627   0.684 -0.7423  0.1587  0.9912
    1MOL    H65   65   5.145   5.604   0.552 -0.0529 -0.3279  1.7071
    1MOL    H66   66   5.275   5.718   0.541  0.9948 -0.3820  0.6592
    1MOL    C67   67   4.843   5.981   0.561 -0.8862  0.2774  0.6436
    1MOL    C68   68   4.748   5.864   0.592 -0.0265 -0.3684  0.4800
    1MOL    O69   69   4.634   5.860   0.505 -0.0350 -0.2649  0.1609
    1MOL    C70   70   4.662   5.790   0.385  1.1271 -0.4437 -0.4374
    1MOL    C71   71   4.531   5.734   0.338  0.6294  0.4397 -0.0611
    1MOL    H72   72   4.862   5.985   0.454  0.8961  0.3630  0.9383
    1MOL    H73   73   4.785   6.065   0.597 -0.9692  0.6344 -0.3154
    1MOL    H74   74   4.791   5.764   0.596 -0.6167 -0.7037 -1.2195
    1MOL    H75   75   4.738   5.712   0.395 -0.8732 -2.4020 -0.3116
    1MOL    H76   76   4.695   5.865   0.312  0.9840  1.1793  1.1167
    1MOL    H77   77   4.456   5.812   0.326  0.5077  0.6222  1.7113
    1MOL    H78   78   4.534   5.678   0.245 -1.7164  0.1599  0.0015
    1MOL    H79   79   4.490   5.660   0.408  0.0623  0.4499 -0.3775
    1MOL    C80   80   4.681   5.884   0.730  0.0660  0.0803  0.2145
    1MOL    C81   81   4.613   5.771   0.807 -0.0889  0.0122  0.1277
    1MOL    O82   82   4.713   5.670   0.804  0.1383 -0.0450 -0.3469
    1MOL    C83   83   4.788   5.655   0.922  0.5102 -0.2444 -0.3299
    1MOL    C84   84   4.876   5.529   0.918  0.9872  0.2004 -0.5913
    1MOL    H85   85   4.601   5.959   0.727 -1.7242 -1.6911  1.9761
    1MOL    H86   86   4.757   5.919   0.799  0.5552 -0.0596 -0.2520
    1MOL    H87   87   4.581   5.796   0.909 -1.0815 -1.4233  0.1790
    1MOL    H88   88   4.715   5.650   1.003  0.1440 -0.4883 -0.6796
    1MOL    H89   89   4.855   5.741   0.930 -0.2031  0.3771 -0.9522
    1MOL    H90   90   4.812   5.444   0.894 -0.8848  2.3222 -3.5603
    1MOL    H91   91   4.936   5.532   0.827  1.6960  2.2845 -0.0842
    1MOL    H92   92   4.947   5.508   0.997 -1.4418 -0.5580  1.4316
    1MOL    C93   93   4.498   5.724   0.728  0.0380 -0.1131  0.5818
    1MOL    C94   94   4.419   5.606   0.785 -0.2189  0.1941 -0.6580
    1MOL    O95   95   4.313   5.576   0.695  0.1572  0.0840 -0.1855
    1MOL    C96   96   4.334   5.468   0.606  0.5476  0.0413 -0.5456
    1MOL    C97   97   4.206   5.414   0.542 -0.1745 -0.4280 -0.4295
    1MOL    H98   98   4.531   5.687   0.631  0.4201  0.8229  0.3435
    1MOL    H99   99   4.429   5.806   0.708  1.1641  0.1891 -2.2964
    1MOL   H100  100   4.488   5.524   0.804 -0.0305  0.6669  0.7854
    1MOL   H101  101   4.387   5.387   0.655 -1.4839 -1.5988 -0.9912
    1MOL   H102  102   4.405   5.502   0.530  0.6798 -2.5856 -1.6499
    1MOL   H103  103   4.141   5.360   0.611  3.0965 -1.3703  2.0577
    1MOL   H104  104   4.157   5.504   0.505 -0.0550  0.4687  1.4822
    1MOL   H105  105   4.221   5.351   0.455 -1.8096 -0.7978 -0.4655
    1MOL   C106  106   4.340   5.644   0.912  0.1122 -0.0406 -0.0165
    1MOL   C107  107   4.257   5.532   0.977  0.3877  0.0565 -0.2691
    1MOL   O108  108   4.174   5.575   1.087 -0.0303 -0.2559 -0.1448
    1MOL   C109  109   4.040   5.595   1.063  0.4749  0.4569 -0.4089
    1MOL   C110  110   3.971   5.650   1.191 -0.0580  0.1267  0.3109
    1MOL   H111  111   4.278   5.729   0.883 -2.7281 -1.8486  0.5363
    1MOL   H112  112   4.408   5.687   0.985 -0.3853  2.3818 -0.8993
    1MOL   H113  113   4.188   5.488   0.904 -3.1153 -0.0297  2.9351
    1MOL   H114  114   3.999   5.495   1.045  0.5461 -0.2392  2.9215
    1MOL   H115  115   4.018   5.664   0.981  0.4055 -0.1496 -0.9081
    1MOL   H116  116   3.999   5.581   1.271  0.2823 -0.0479  0.0425
    1MOL   H117  117   3.996   5.752   1.221  0.1014 -0.0306  0.7270
    1MOL   H118  118   3.863   5.646   1.180  0.0042  0.1609 -0.2974
    1MOL   C119  119   4.346   5.431   1.048  0.3246 -0.6352 -0.1904
    1MOL   C120  120   4.272   5.299   1.084 -0.0057 -0.6648 -0.4585
    1MOL   O121  121   4.366   5.208   1.134  0.8181  0.2101 -0.1682
    1MOL   C122  122   4.383   5.200   1.273 -0.1172 -0.9841 -0.4052
    1MOL   C123  123   4.490   5.092   1.295  0.3826 -0.8188 -0.6352
    1MOL   H124  124   4.394   5.464   1.141  1.3072  2.5742 -1.7372
    1MOL   H125  125   4.429   5.407   0.981  0.0139  0.5447 -1.0140
    1MOL   H126  126   4.182   5.310   1.146  0.1445  0.8987 -0.5038
    1MOL   H127  127   4.293   5.169   1.326 -0.3320  0.6578  0.2120
    1MOL   H128  128   4.420   5.290   1.322  0.9406 -1.9989  0.6997
    1MOL   H129  129   4.586   5.119   1.251  0.7426  0.8629  1.1455
    1MOL   H130  130   4.504   5.079   1.402  1.7490  0.2294 -0.6681
    1MOL   H131  131   4.458   4.997   1.251  1.0424 -0.7466 -1.2819
    1MOL   C132  132   4.228   5.219   0.964 -0.3475  0.3607  0.2479
    1MOL   C133  133   4.121   5.101   0.994  0.4871  0.1241  0.4176
    1MOL   O134  134   4.006   5.149   1.065 -0.1686  0.0815 -0.1323
    1MOL   C135  135   3.912   5.230   0.995 -0.0160  0.4520 -0.2592
    1MOL   C136  136   3.808   5.280   1.095  0.7052  0.1110 -0.3958
    1MOL   H137  137   4.321   5.187   0.916 -1.0821 -0.1066 -0.8802
    1MOL   H138  138   4.181   5.290   0.896  0.5795 -0.9705 -1.8193
    1MOL   H139  139   4.093   5.070   0.893 -0.3105  2.4912 -0.1119
    1MOL   H140  140   3.873   5.170   0.913 -0.3318 -0.3504  0.4778
    1MOL   H141  141   3.951   5.317   0.941  0.6852  0.6170  0.5002
    1MOL   H142  142   3.852   5.332   1.180  0.4767  3.2336 -2.1099
    1MOL   H143  143   3.736   5.352   1.055  0.4172  0.3442  0.5233
    1MOL   H144  144   3.749   5.197   1.133 -1.7195  0.6383 -2.8685
    1MOL   C145  145   4.194   4.983   1.063  0.0569  0.2229  0.1729
    1MOL   C146  146   4.142   4.840   1.031 -0.4381 -0.6588  0.8047
    1MOL   O147  147   4.190   4.756   1.134 -0.1768 -0.2047 -0.0055
    1MOL   C148  148   4.112   4.635   1.156 -0.6827  0.5509  0.2927
    1MOL   C149  149   4.134   4.591   1.298 -0.0101  0.3252 -0.3630
    1MOL   H150  150   4.179   5.006   1.169  2.3280 -0.1554  0.6109
    1MOL   H151  151   4.300   4.978   1.039  0.3433  3.1030  0.5910
    1MOL   H152  152   4.033   4.848   1.029 -0.4875 -1.3741  0.0156
    1MOL   H153  153   4.144   4.553   1.092 -1.5654  0.0869  0.4396
    1MOL   H154  154   4.004   4.639   1.150 -0.9235 -0.6373  3.0944
    1MOL   H155  155   4.240   4.578   1.321 -0.9523  0.0006  4.2085
    1MOL   H156  156   4.113   4.668   1.373  2.1091  0.6158 -0.0307
    1MOL   H157  157   4.086   4.495   1.315 -0.6965  0.9562  1.4144
    1MOL   C158  158   4.219   4.778   0.906 -0.2892  0.0654 -0.9326
    1MOL   C159  159   4.156   4.793   0.767  0.1781 -0.3095 -0.2845
    1MOL   O160  160   4.037   4.738   0.761  0.2485 -0.3467  0.3278
    1MOL   C161  161   3.942   4.806   0.682 -0.8788  0.4938  0.3657
    1MOL   C162  162   3.820   4.719   0.664 -0.3294 -0.1782  0.2704
    1MOL   H163  163   4.242   4.672   0.917 -0.2032 -0.0516 -2.1781
    1MOL   H164  164   4.318   4.824   0.904  0.3417 -1.0631  2.1190
    1MOL   H165  165   4.151   4.900   0.749 -1.4443 -0.2585  0.3990
    1MOL   H166  166   3.987   4.832   0.586  0.0223 -0.7786  0.4327
    1MOL   H167  167   3.920   4.904   0.723  0.3089  1.2974 -0.8787
    1MOL   H168  168   3.747   4.775   0.606 -0.5592 -0.4759  0.2692
    1MOL   H169  169   3.834   4.630   0.603  0.1584  0.8404 -1.1181
    1MOL   H170  170   3.794   4.675   0.761 -0.1547 -0.2881  0.2668
    1MOL   C171  171   4.223   4.706   0.653 -0.2165  0.4636 -0.6790
    1MOL   C172  172   4.364   4.762   0.623 -0.4936 -0.4111 -0.6363
    1MOL   O173  173   4.337   4.900   0.588  0.1313 -0.6473  0.0614
    1MOL   C174  174   4.411   5.000   0.655 -0.2095  0.2655 -0.1236
    1MOL   C175  175   4.445   5.108   0.563  0.8266  0.2293 -0.6753
    1MOL   H176  176   4.153   4.700   0.570 -0.0227  1.7229 -0.9340
    1MOL   H177  177   4.231   4.601   0.683  0.0671  0.6892  0.0284
    1MOL   H178  178   4.429   4.759   0.711  1.3935  0.4208 -1.9654
    1MOL   H179  179   4.510   4.955   0.668 -0.9433 -1.2681  0.3755
    1MOL   H180  180   4.375   5.028   0.754  1.7502 -0.1571  0.7516
    1MOL   H181  181   4.511   5.176   0.618  0.4793  0.2303 -0.2579
    1MOL   H182  182   4.494   5.071   0.473  0.9554  1.3289 -1.0683
    1MOL   H183  183   4.352   5.164   0.551 -0.1735 -0.8115  1.9429
    1MOL   C184  184   4.438   4.690   0.510 -0.0159 -0.0100  0.1894
    1MOL   C185  185   4.361   4.681   0.374 -0.6119 -0.6573 -0.2534
    1MOL   O186  186   4.265   4.576   0.377 -0.5842 -0.8657 -0.2141
    1MOL   C187  187   4.140   4.590   0.300 -0.3921  0.3502 -0.3986
    1MOL   C188  188   4.042   4.487   0.364  0.2001 -0.2879  0.0864
    1MOL   H189  189   4.473   4.594   0.549  0.0491  0.4158  1.1685
    1MOL   H190  190   4.524   4.755   0.498 -1.9518  2.7891  1.0714
    1MOL   H191  191   4.318   4.780   0.361  1.5616  0.4297  0.6192
    1MOL   H192  192   4.158   4.564   0.196  0.0756  2.7760 -0.9454
    1MOL   H193  193   4.105   4.692   0.313 -1.3488 -0.0010 -0.2428
    1MOL   H194  194   4.048   4.514   0.469  1.1669  0.4586 -0.1512
    1MOL   H195  195   3.941   4.493   0.323  0.1488  0.7286  0.3406
    1MOL   H196  196   4.076   4.384   0.359 -1.2309 -0.7281 -0.8730
    1MOL   C197  197   4.462   4.666   0.247  0.6277  0.8339 -0.3418
    1MOL   C198  198   4.501   4.795   0.175 -0.6136 -0.5282  0.5793
    1MOL   O199  199   4.382   4.855   0.151 -0.0228 -1.1260 -0.2089
    1MOL   C200  200   4.386   4.994   0.125  0.2502 -0.3865  0.1596
    1MOL   C201  201   4.271   5.016   0.032  0.1134  0.4025 -0.5041
    1MOL   H202  202   4.407   4.603   0.178 -0.8731 -1.0357  2.5042
    1MOL   H203  203   4.547   4.600   0.267 -0.1106 -0.4660 -1.4497
    1MOL   H204  204   4.562   4.854   0.243 -0.7114 -1.8524  1.8275
    1MOL   H205  205   4.481   5.032   0.087  0.7085  0.1055  1.7649
    1MOL   H206  206   4.384   5.051   0.218  1.8323  0.2575 -0.1782
    1MOL   H207  207   4.299   4.958   7.788 -1.0273 -1.0885  0.0868
    1MOL   H208  208   4.178   4.974   0.069  0.9377 -1.2233 -0.2402
    1MOL   H209  209   4.264   5.120   0.001  0.2580  1.4226  2.6953
    1MOL   C210  210   4.573   4.776   0.042  0.1768  0.3736  0.4713
    1MOL   C211  211   4.730   4.758   0.053 -0.3600 -0.3471 -0.2453
    1MOL   O212  212   4.786   4.882   0.083  0.3977 -0.2088 -0.4694
    1MOL   C213  213   4.795   4.989   7.837  0.3429  0.2056 -0.7703
    1MOL   C214  214   4.797   5.115   0.074  0.4856  0.1210 -0.7544
    1MOL   H215  215   4.545   4.847   7.807  0.9477 -1.8944 -1.9385
    1MOL   H216  216   4.531   4.683   0.001  0.6070  0.2665  0.2737
    1MOL   H217  217   4.753   4.689   0.135  1.2153 -1.5530 -1.6662
    1MOL   H218  218   4.722   5.000   7.757  1.1676  0.4336 -1.5092
    1MOL   H219  219   4.899   4.985   7.805  0.9289 -1.6783  1.3298
    1MOL   H220  220   4.819   5.196   0.005 -0.6914  0.5980 -0.5818
    1MOL   H221  221   4.700   5.127   0.124  1.4126  0.8656  0.9152
    1MOL   H222  222   4.867   5.106   0.157 -0.9166 -2.2961  0.2501
    1MOL   C223  223   4.785   4.695   7.760  0.4236 -0.1402  0.0472
    1MOL   C224  224   4.775   4.543   7.751 -0.0147 -0.9267 -0.0803
    1MOL   O225  225   4.817   4.483   0.025  0.1142  0.4336 -0.4065
    1MOL   C226  226   4.723   4.391   0.078 -0.0681  0.1882  0.6679
    1MOL   C227  227   4.780   4.288   0.174 -0.2463 -0.1666 -0.2843
    1MOL   H228  228   4.892   4.716   7.755  0.4987 -0.6719 -0.7712
    1MOL   H229  229   4.732   4.740   7.675 -0.0696  0.4249  0.6485
    1MOL   H230  230   4.668   4.524   7.743 -0.0102 -1.2885  0.6842
    1MOL   H231  231   4.665   4.340   0.001  1.6025  1.6335 -1.6318
    1MOL   H232  232   4.660   4.461   0.132  1.6409  1.3180  1.2573
    1MOL   H233  233   4.693   4.229   0.206  0.3237 -0.7979  0.1081
    1MOL   H234  234   4.859   4.233   0.123 -1.1081 -2.2499  0.5605
    1MOL   H235  235   4.823   4.345   0.256 -0.6393 -0.1113 -0.1123
    1MOL   C236  236   4.858   4.499   7.623 -0.0562  0.6240 -0.1468
    1MOL   C237  237   4.820   4.352   7.576 -0.7261  0.1312 -0.4130
    1MOL   O238  238   4.902   4.304   7.469  0.3572  0.1095 -0.6317
    1MOL   C239  239   5.031   4.264   7.515  0.2533  0.0461 -0.0792
    1MOL   C240  240   5.133   4.259   7.399  0.1222  0.1662 -0.6572
    1MOL   H241  241   4.966   4.501   7.636 -0.1489  0.1892  0.7214
    1MOL   H242  242   4.839   4.563   7.537  1.1543  0.6596 -0.3961
    1MOL   H243  243   4.829   4.277   7.655 -2.1270 -0.3118 -0.6704
    1MOL   H244  244   5.034   4.160   7.547  0.0612 -0.3521 -1.3309
    1MOL   H245  245   5.063   4.325   7.600  1.8102 -0.0427 -0.5877
    1MOL   H246  246   5.233   4.235   7.433 -1.2601 -0.5613  3.0546
    1MOL   H247  247   5.108   4.191   7.317 -1.3574  0.2943 -0.3301
    1MOL   H248  248   5.137   4.363   7.364  1.0326  0.5477  0.5665
    1MOL   C249  249   4.669   4.351   7.523  0.0983 -0.1462 -0.2585
    1MOL   C250  250   4.634   4.209   7.479 -0.3817 -0.4895 -0.6356
    1MOL   O251  251   4.495   4.202   7.452 -0.3847  0.2715 -0.4807
    1MOL   C252  252   4.419   4.150   7.560  0.1319  0.1774  0.5661
    1MOL   C253  253   4.275   4.155   7.522 -0.1108 -0.1968  0.2948
    1MOL   H254  254   4.655   4.404   7.429  0.1858 -1.0720 -0.8097
    1MOL   H255  255   4.600   4.382   7.601  1.6917  2.1594  0.2608
    1MOL   H256  256   4.696   4.173   7.398  3.5203  0.9027  1.5826
    1MOL   H257  257   4.436   4.198   7.656 -1.6505 -0.1276  1.0505
    1MOL   H258  258   4.453   4.047   7.577  1.2069  0.3736 -0.2763
    1MOL   H259  259   4.237   4.257   7.523  0.8774  0.1764  2.4891
    1MOL   H260  260   4.251   4.114   7.424  0.3156 -2.0374  0.9517
    1MOL   H261  261   4.228   4.107   7.608  0.6131 -0.4549  0.5547
    1MOL   H262  262   4.661   4.143   7.561  0.3377  1.5340  0.8267
    2MOL     C1  263   3.942   1.180   4.549 -0.0365  0.4183 -0.4723
    2MOL     C2  264   3.984   1.029   4.526  0.1542 -0.6561 -0.2948
    2MOL     O3  265   4.036   1.017   4.390 -0.0577 -0.1218 -0.6557
    2MOL     C4  266   4.167   1.067   4.375 -0.2419 -0.5374 -0.2951
    2MOL     C5  267   4.206   1.044   4.226 -0.0704 -0.1772 -0.1772
    2MOL     H6  268   3.901   1.219   4.456  1.3340  2.3359 -0.2969
    2MOL     H7  269   3.862   1.190   4.622  2.1227 -0.6665  2.1413
    2MOL     H8  270   4.067   0.993   4.587  1.7204  2.3901 -0.5443
    2MOL     H9  271   4.230   1.008   4.442 -2.6401 -1.9511  0.7939
    2MOL    H10  272   4.168   1.172   4.403 -1.5785 -0.5099 -0.3194
    2MOL    H11  273   4.310   1.070   4.208 -0.5450 -1.0687 -4.7318
    2MOL    H12  274   4.200   0.936   4.212  0.8104 -0.3319  0.5318
    2MOL    H13  275   4.136   1.101   4.166  0.1721  1.1765  0.8021
    2MOL    H14  276   4.023   1.243   4.585 -1.1953  0.5046  2.0601
    2MOL    C15  277   3.865   0.933   4.538  0.8398  0.3916  0.6106
    2MOL    C16  278   3.832   0.906   4.686 -0.6658 -0.0814 -0.2369
    2MOL    O17  279   3.941   0.846   4.755  0.4943  0.0524 -0.3983
    2MOL    C18  280   3.958   0.892   4.886 -0.4196  0.0401 -0.4869
    2MOL    C19  281   4.084   0.814   4.927 -0.1542 -0.5638 -0.1224
    2MOL    H20  282   3.883   0.834   4.496  0.5061 -0.5248  2.5879
    2MOL    H21  283   3.772   0.963   4.490  0.2733 -1.5202  0.4631
    2MOL    H22  284   3.802   0.996   4.741  0.0458  0.0035  0.0318
    2MOL    H23  285   3.867   0.879   4.944 -0.6817 -0.0375 -0.9192
    2MOL    H24  286   3.986   0.996   4.868 -0.2402 -0.2346 -1.8156
    2MOL    H25  287   4.173   0.832   4.866  0.0984 -0.6786  0.2032
    2MOL    H26  288   4.070   0.706   4.925  0.6148 -0.6666 -0.2976
    2MOL    H27  289   4.125   0.830   5.027  0.3898 -0.6951 -0.3214
    2MOL    C28  290   3.699   0.817   4.699  0.3760  0.1051 -0.5357
    2MOL    C29  291   3.709   0.665   4.651  1.1932 -0.4474  0.3691
    2MOL    O30  292   3.684   0.664   4.512  0.1984 -0.2284  0.4110
    2MOL    C31  293   3.743   0.559   4.444  0.3941  0.1340  0.6894
    2MOL    C32  294   3.700   0.570   4.294 -0.2130  0.2871  0.5234
    2MOL    H33  295   3.615   0.863   4.646 -1.5126 -1.6073  0.9059
    2MOL    H34  296   3.677   0.822   4.805  0.3716 -2.2331 -0.3990
    2MOL    H35  297   3.813   0.634   4.664  1.4737 -0.1460 -0.9931
    2MOL    H36  298   3.706   0.462   4.476 -1.0861  1.2932  2.5737
    2MOL    H37  299   3.852   0.559   4.447  0.4095 -0.6298  0.2603
    2MOL    H38  300   3.761   0.516   4.221 -1.0905 -0.2069  0.1497
    2MOL    H39  301   3.600   0.527   4.291 -0.4287  0.8776 -1.9329
    2MOL    H40  302   3.700   0.675   4.264 -0.3825  0.1926  0.1835
    2MOL    C41  303   3.598   0.577   4.713 -0.7741 -0.4225 -0.3227
    2MOL    C42  304   3.669   0.465   4.799 -0.0497 -0.1927 -0.3046
    2MOL    O43  305   3.714   0.378   4.703  0.3058  0.0917 -0.1786
    2MOL    C44  306   3.860   0.347   4.706 -0.4338 -0.0212 -0.4873
    2MOL    C45  307   3.912   0.267   4.591 -0.3808 -0.2219  0.0519
    2MOL    H46  308   3.542   0.523   4.637  0.9023 -1.4207 -0.8885
    2MOL    H47  309   3.526   0.632   4.772 -0.7933 -1.1417  0.3252
    2MOL    H48  310   3.758   0.500   4.852 -1.1876  1.8553  0.3132
    2MOL    H49  311   3.876   0.300   4.803 -2.0535  0.3942  0.0112
    2MOL    H50  312   3.908   0.445   4.712  1.2257 -0.9126  1.2356
    2MOL    H51  313   4.018   0.251   4.609 -0.3052 -2.3388 -2.0516
    2MOL    H52  314   3.867   0.168   4.582  0.5925 -0.5842 -1.0418
    2MOL    H53  315   3.890   0.302   4.490  1.3436 -0.8246 -0.5434
    2MOL    C54  316   3.570   0.401   4.887 -0.0731 -0.1048  0.0458
    2MOL    C55  317   3.554   0.482   5.021  0.1058 -0.1394 -0.1272
    2MOL    O56  318   3.678   0.487   5.089 -0.3954 -0.5420 -0.0186
    2MOL    C57  319   3.725   0.615   5.107  0.1688 -0.2544 -0.0910
    2MOL    C58  320   3.853   0.607   5.182  0.3939  0.3340 -0.0053
    2MOL    H59  321   3.619   0.309   4.917 -0.3529 -0.6081 -1.0538
    2MOL    H60  322   3.482   0.371   4.832 -1.3589  2.7595  0.4453
    2MOL    H61  323   3.526   0.584   4.991 -1.3927  0.0223  1.7503
    2MOL    H62  324   3.652   0.678   5.159 -1.4950 -2.5987  0.5094
    2MOL    H63  325   3.743   0.661   5.010 -0.4095  2.3828  1.0176
    2MOL    H64  326   3.913   0.532   5.131 -0.7865 -1.7434  1.5694
    2MOL    H65  327   3.902   0.705   5.176  0.8777  0.0149 -1.4901
    2MOL    H66  328   3.843   0.586   5.288 -1.8149  0.6038 -0.1199
    2MOL    C67  329   3.458   0.416   5.119 -0.0439  0.2071 -0.1899
    2MOL    C68  330   3.316   0.413   5.062  0.2270 -0.1327 -0.7685
    2MOL    O69  331   3.295   0.550   5.020 -0.5366  0.0135 -0.3175
    2MOL    C70  332   3.246   0.560   4.890  0.0316  0.3131 -0.4356
    2MOL    C71  333   3.245   0.707   4.860  0.5400 -0.7671 -0.0684
    2MOL    H72  334   3.472   0.480   5.206  0.0861 -0.7173  0.4681
    2MOL    H73  335   3.486   0.313   5.141 -1.7635 -0.7919 -2.4667
    2MOL    H74  336   3.308   0.338   4.984  1.3860  0.7933 -1.7955
    2MOL    H75  337   3.150   0.509   4.882 -0.3716  0.9984  0.0219
    2MOL    H76  338   3.317   0.503   4.829 -0.5571 -0.0755 -0.7557
    2MOL    H77  339   3.173   0.752   4.929 -2.0827 -2.6041 -1.5150
    2MOL    H78  340   3.347   0.742   4.874 -0.4833  2.0392  0.7614
    2MOL    H79  341   3.208   0.722   4.758  1.8670 -1.8724 -0.7299
    2MOL    C80  342   3.218   0.385   5.174 -0.2162 -0.7390  0.5469
    2MOL    C81  343   3.067   0.360   5.134  0.8974  0.1624  0.6383
    2MOL    O82  344   2.975   0.391   5.247  0.2065 -0.6718  0.3763
    2MOL    C83  345   2.854   0.464   5.224 -0.3839 -0.4479  0.0537
    2MOL    C84  346   2.819   0.515   5.364  0.1572  0.7142  1.0759
    2MOL    H85  347   3.221   0.471   5.241  0.2221 -0.6726  0.4455
    2MOL    H86  348   3.256   0.315   5.248  2.0296  1.2778  1.3865
    2MOL    H87  349   3.045   0.428   5.051  0.8715  0.8552  1.2030
    2MOL    H88  350   2.771   0.404   5.187 -2.1574  0.1329  2.9493
    2MOL    H89  351   2.869   0.551   5.160 -1.9282 -0.4051 -0.2724
    2MOL    H90  352   2.905   0.565   5.409  2.2766  0.2173 -2.2393
    2MOL    H91  353   2.734   0.582   5.353  0.2430  0.5822 -0.4866
    2MOL    H92  354   2.777   0.442   5.432  0.4144  1.5469  2.1489
    2MOL    C93  355   3.029   0.223   5.083 -0.1067  0.1415 -0.1219
    2MOL    C94  356   3.051   0.103   5.188  0.0014 -0.6673  0.4739
    2MOL    O95  357   3.178   0.044   5.155  0.3254 -0.0648 -0.0143
    2MOL    C96  358   3.243   7.824   5.265 -0.5851  0.2632 -0.9205
    2MOL    C97  359   3.393   7.816   5.217  0.0274 -1.0365 -0.3395
    2MOL    H98  360   3.081   0.195   4.992  0.0316 -1.2301  0.3675
    2MOL    H99  361   2.923   0.225   5.061 -0.2484 -0.0893  0.5094
    2MOL   H100  362   3.060   0.133   5.292  1.7046 -1.8032  0.6886
    2MOL   H101  363   3.184   7.734   5.282  0.9289 -0.7169 -0.7769
    2MOL   H102  364   3.237   0.052   5.347 -1.0595  0.6051 -1.2505
    2MOL   H103  365   3.417   0.070   5.176 -0.7541 -0.5786  0.2767
    2MOL   H104  366   3.464   7.789   5.296 -2.6060 -1.5667  1.9354
    2MOL   H105  367   3.394   7.735   5.144 -0.2720 -1.1331 -0.2380
    2MOL   C106  368   2.949   7.825   5.173 -0.4178  0.6551  0.8392
    2MOL   C107  369   2.843   7.828   5.281 -0.0928 -0.0856 -0.4712
    2MOL   O108  370   2.913   7.790   5.394  0.6018 -0.0472 -0.1032
    2MOL   C109  371   2.879   0.002   5.518  0.6066  0.4072  0.1760
    2MOL   C110  372   2.963   0.124   5.548 -0.6868 -0.1558 -0.4031
    2MOL   H111  373   2.998   7.728   5.168 -2.1900 -0.3444  2.1608
    2MOL   H112  374   2.908   0.000   5.073  1.5470  2.5211  0.3679
    2MOL   H113  375   2.810   0.086   5.303  1.0657  0.4069 -0.9607
    2MOL   H114  376   2.875   7.764   5.590  2.2854  1.2533  1.2381
    2MOL   H115  377   2.774   0.028   5.531 -0.3269 -1.9934 -2.0098
    2MOL   H116  378   2.970   0.201   5.471  1.3455 -0.6547 -0.7401
    2MOL   H117  379   2.946   0.153   5.652  2.9534  1.2117 -0.1383
    2MOL   H118  380   3.068   0.097   5.556 -0.0677  2.4569  0.8825
    2MOL   C119  381   2.731   7.730   5.274 -0.0410 -0.0708 -0.1898
    2MOL   C120  382   2.649   7.733   5.142  0.5204  0.0170 -0.1022
    2MOL   O121  383   2.554   7.837   5.152  0.3551 -0.0922 -0.0100
    2MOL   C122  384   2.587   0.118   5.095 -0.0949 -0.7164  0.7133
    2MOL   C123  385   2.491   0.232   5.133 -0.4715  0.3032  0.0058
    2MOL   H124  386   2.675   7.734   5.367  0.2857  0.3909 -0.0143
    2MOL   H125  387   2.784   7.635   5.287  0.5049  0.1866 -0.4932
    2MOL   H126  388   2.719   7.748   5.060  0.2261  1.8815 -0.0493
    2MOL   H127  389   2.574   0.094   4.989  0.9797  1.5892  0.0121
    2MOL   H128  390   2.689   0.154   5.112  0.6181 -3.0707  1.6051
    2MOL   H129  391   2.391   0.191   5.125  0.3746 -1.4471 -1.9322
    2MOL   H130  392   2.515   0.259   5.236 -0.4142  3.2835 -0.7493
    2MOL   H131  393   2.507   0.319   5.070 -1.5182  0.6385  0.1964
    2MOL   C132  394   2.583   7.597   5.116 -0.2788  0.2256 -0.8428
    2MOL   C133  395   2.487   7.588   4.998 -0.0349 -0.3674  0.6034
    2MOL   O134  396   2.416   7.468   5.004 -0.0358  0.1456 -0.1689
    2MOL   C135  397   2.285   7.481   5.074  0.4831  0.0406  0.2800
    2MOL   C136  398   2.233   7.348   5.102 -0.1443 -0.0069 -0.2099
    2MOL   H137  399   2.519   7.582   5.204  0.3853  0.0032 -0.3932
    2MOL   H138  400   2.664   7.525   5.116  1.7397  2.4265  1.3969
    2MOL   H139  401   2.420   7.673   5.010 -2.0675 -2.2645  3.1118
    2MOL   H140  402   2.223   7.544   5.010  1.3704 -1.2218 -1.8577
    2MOL   H141  403   2.309   7.524   5.171  1.9222  0.7848 -0.3897
    2MOL   H142  404   2.151   7.355   5.174 -0.7303 -2.4617 -0.5949
    2MOL   H143  405   2.206   7.312   5.003 -1.8465  0.3308  0.1017
    2MOL   H144  406   2.309   7.281   5.144  1.0588  0.7501 -1.1701
    2MOL   C145  407   2.552   7.592   4.867 -0.4747 -0.4457  0.5756
    2MOL   C146  408   2.457   7.616   4.748 -0.8546 -0.4700  0.1745
    2MOL   O147  409   2.536   7.592   4.632  0.0479  0.4542  1.3544
    2MOL   C148  410   2.519   7.458   4.595  0.5713 -0.3675 -0.1838
    2MOL   C149  411   2.616   7.422   4.477  0.8998  0.4697 -0.7010
    2MOL   H150  412   2.609   7.501   4.850  0.1312  0.1537 -0.6704
    2MOL   H151  413   2.627   7.671   4.857 -0.8265 -0.3734 -1.7385
    2MOL   H152  414   2.366   7.556   4.760 -0.5062 -1.1752 -0.6135
    2MOL   H153  415   2.416   7.440   4.564  0.5482  0.1698 -0.4261
    2MOL   H154  416   2.529   7.394   4.682  0.4899  1.2928  1.0814
    2MOL   H155  417   2.610   7.315   4.456 -1.3130  0.3256  0.4350
    2MOL   H156  418   2.600   7.465   4.378 -0.6486 -1.6234 -1.3948
    2MOL   H157  419   2.719   7.444   4.504 -0.3880  3.2584  2.2962
    2MOL   C158  420   2.403   7.761   4.737 -0.3644 -0.0383  1.0055
    2MOL   C159  421   2.309   7.805   4.625 -0.0187 -0.4880  0.5728
    2MOL   O160  422   2.270   0.098   4.631  0.1238 -0.3428  0.1608
    2MOL   C161  423   2.350   0.189   4.560 -0.0124  0.2081 -0.0562
    2MOL   C162  424   2.279   0.321   4.553  0.4517 -0.2529 -0.0296
    2MOL   H163  425   2.488   7.828   4.748 -0.4617  0.6994 -2.3350
    2MOL   H164  426   2.346   7.768   4.830 -1.5282 -0.0446  0.2946
    2MOL   H165  427   2.379   7.795   4.542  1.6745  0.9147  1.7883
    2MOL   H166  428   2.376   0.162   4.458  2.5590 -0.4623  0.7157
    2MOL   H167  429   2.446   0.198   4.612 -1.3335  3.1721  2.0502
    2MOL   H168  430   2.190   0.303   4.494  0.6104  0.3497 -0.4649
    2MOL   H169  431   2.248   0.365   4.648  0.1550  2.0125 -1.1313
    2MOL   H170  432   2.341   0.388   4.493 -0.1413  0.4241  0.1038
    2MOL   C171  433   2.187   7.716   4.596 -0.7622  0.7648 -0.6210
    2MOL   C172  434   2.085   7.685   4.704  0.1674 -0.3756  0.5974
    2MOL   O173  435   2.025   7.567   4.645  0.6904 -0.2326  0.3460
    2MOL   C174  436   2.017   7.453   4.728 -0.4199 -0.0807 -0.1645
    2MOL   C175  437   1.931   7.471   4.849 -0.3469 -0.1271  1.1083
    2MOL   H176  438   2.242   7.624   4.575  1.8132  2.4436 -1.4418
    2MOL   H177  439   2.137   7.751   4.505  2.3519  0.2612 -2.6322
    2MOL   H178  440   2.135   7.658   4.798  1.9778 -0.7071 -0.4409
    2MOL   H179  441   2.116   7.423   4.761 -0.0660 -0.5143 -1.5959
    2MOL   H180  442   1.973   7.376   4.664 -0.2611 -1.7433  1.6992
    2MOL   H181  443   1.828   7.502   4.832  0.1557  1.1991  0.4152
    2MOL   H182  444   1.939   7.388   4.920  3.2693 -1.0190 -0.2297
    2MOL   H183  445   1.975   7.553   4.906 -0.8199  0.9841 -0.0963
    2MOL   C184  446   1.963   7.779   4.712 -0.2485 -0.6045 -0.0151
    2MOL   C185  447   1.978   0.043   4.821 -0.6356 -0.4128  0.2480
    2MOL   O186  448   1.989   7.816   4.947 -0.1084 -0.0169  0.1237
    2MOL   C187  449   2.053   0.036   5.063 -0.3485  0.4034 -0.3455
    2MOL   C188  450   2.071   7.766   5.167  0.2600  0.5623  1.0154
    2MOL   H189  451   1.868   7.726   4.723  0.0952 -1.4610 -1.1702
    2MOL   H190  452   1.959   7.830   4.616 -1.0984 -0.3998  0.1254
    2MOL   H191  453   2.075   0.088   4.801 -1.1630  0.5928 -0.0809
    2MOL   H192  454   1.988   0.112   5.107 -1.2670 -0.8420  0.5000
    2MOL   H193  455   2.152   0.073   5.037  0.2441 -0.3540  0.8038
    2MOL   H194  456   2.175   7.742   5.187 -0.8166 -6.7874 -0.7205
    2MOL   H195  457   2.025   7.788   5.263  1.2895 -0.1482  1.6793
    2MOL   H196  458   2.027   7.673   5.132  0.0647  1.5531 -1.4706
    2MOL   C197  459   1.869   0.148   4.828 -0.1811  0.4366  0.6619
    2MOL   C198  460   1.918   0.292   4.816 -0.8196 -0.2460  0.2504
    2MOL   O199  461   1.971   0.326   4.942 -0.1437 -0.3702 -0.1823
    2MOL   C200  462   2.059   0.431   4.941 -0.3442 -0.0051 -0.1862
    2MOL   C201  463   2.135   0.430   5.072  0.4322  0.5546  0.1329
    2MOL   H202  464   1.813   0.132   4.920  1.8763 -1.3959  1.6465
    2MOL   H203  465   1.814   0.117   4.739  0.7749  0.4456  0.0641
    2MOL   H204  466   1.994   0.307   4.739  0.8450 -0.9918  1.7351
    2MOL   H205  467   2.006   0.525   4.921 -0.4274  1.0161  4.3791
    2MOL   H206  468   2.132   0.429   4.860  1.2919 -1.8964  1.2975
    2MOL   H207  469   2.210   0.510   5.077  0.8938  0.1692 -0.6152
    2MOL   H208  470   2.080   0.443   5.165 -0.9252  0.4802 -0.6632
    2MOL   H209  471   2.191   0.336   5.078  2.5401  1.8106  1.1590
    2MOL   C210  472   1.802   0.389   4.790 -0.0939 -0.0290 -0.0053
    2MOL   C211  473   1.707   0.343   4.666 -0.7186  0.3258  0.0965
    2MOL   O212  474   1.789   0.297   4.561 -0.0044  0.4637 -0.0703
    2MOL   C213  475   1.739   0.199   4.475 -0.3309 -0.6830 -0.0676
    2MOL   C214  476   1.831   0.180   4.362  0.7631  0.7801  0.0973
    2MOL   H215  477   1.848   0.483   4.759  0.1061  0.3343  1.3615
    2MOL   H216  478   1.740   0.409   4.876 -1.9758  2.0540 -1.7915
    2MOL   H217  479   1.648   0.255   4.689 -0.2497 -0.4332 -1.5379
    2MOL   H218  480   1.642   0.235   4.442 -1.4630 -1.0111  2.7838
    2MOL   H219  481   1.710   0.109   4.530 -1.5176  0.0336  0.5139
    2MOL   H220  482   1.852   0.279   4.322  0.8287  0.7979  0.1758
    2MOL   H221  483   1.923   0.152   4.413  1.1641 -0.6038 -1.3284
    2MOL   H222  484   1.806   0.109   4.283  1.9666  1.0728 -0.5458
    2MOL   C223  485   1.594   0.442   4.631 -0.4241 -0.2493 -0.0685
    2MOL   C224  486   1.517   0.512   4.745 -0.4214  0.6824  0.6876
    2MOL   O225  487   1.500   0.409   4.841 -0.0540  0.1224  0.8515
    2MOL   C226  488   1.439   0.440   4.963  0.0879 -0.5038  0.7991
    2MOL   C227  489   1.423   0.318   5.053  0.2347 -0.3658  0.1130
    2MOL   H228  490   1.533   0.385   4.562 -0.0390 -1.8738  0.9047
    2MOL   H229  491   1.658   0.504   4.567 -0.9506 -0.8302 -1.1770
    2MOL   H230  492   1.584   0.586   4.788  1.7548 -1.4178  1.0282
    2MOL   H231  493   1.344   0.490   4.947  0.6396  0.7340  1.3326
    2MOL   H232  494   1.500   0.520   5.005 -0.3443  0.4713 -0.3865
    2MOL   H233  495   1.517   0.267   5.071  0.3307  0.1142  0.9693
    2MOL   H234  496   1.405   0.368   5.148 -0.1367 -0.4731  0.0992
    2MOL   H235  497   1.346   0.246   5.025 -0.4081  0.0130  0.8822
    2MOL   C236  498   1.386   0.575   4.693 -0.4386  0.0801  0.0012
    2MOL   C237  499   1.411   0.690   4.591 -0.0114 -0.3172 -0.4893
    2MOL   O238  500   1.511   0.787   4.645 -0.3651  0.0073  0.7404
    2MOL   C239  501   1.625   0.818   4.570 -0.2289 -0.0450  0.8099
    2MOL   C240  502   1.666   0.963   4.571 -0.6560  0.0756  0.1706
    2MOL   H241  503   1.324   0.623   4.769 -0.5965  0.4951 -0.3848
    2MOL   H242  504   1.319   0.500   4.650 -2.5408  1.7893  0.2344
    2MOL   H243  505   1.447   0.645   4.498  1.4652 -0.8236  0.3098
    2MOL   H244  506   1.608   0.787   4.467  0.8609 -1.6573  1.0945
    2MOL   H245  507   1.714   0.767   4.608  0.3547 -0.6625 -1.2764
    2MOL   H246  508   1.595   1.031   4.523  0.0995  2.1142  1.9057
    2MOL   H247  509   1.670   0.995   4.675  2.0443 -0.6480  0.3162
    2MOL   H248  510   1.761   0.982   4.522 -0.9389  1.5627  0.1765
    2MOL   C249  511   1.279   0.767   4.564 -0.3803  0.2480  0.2136
    2MOL   C250  512   1.292   0.843   4.434 -0.0849 -0.5363  0.7081
    2MOL   O251  513   1.169   0.905   4.401  0.6121  0.4000  0.1246
    2MOL   C252  514   1.165   1.015   4.318  0.4387  0.1914  0.3005
    2MOL   C253  515   1.016   1.047   4.313  0.8408 -0.4931 -0.5399
    2MOL   H254  516   1.250   0.839   4.641  0.6368  0.8622  0.0395
    2MOL   H255  517   1.194   0.700   4.557  0.2174 -0.4795 -0.0841
    2MOL   H256  518   1.370   0.918   4.426  0.9018 -1.6722 -0.5461
    2MOL   H257  519   1.206   1.006   4.217  1.4874  2.0769  0.5179
    2MOL   H258  520   1.223   1.099   4.358  0.0205  0.5325  0.1857
    2MOL   H259  521   0.981   1.113   4.234  0.0682 -0.3226 -0.0649
    2MOL   H260  522   0.953   0.958   4.318  0.6412 -0.2857  1.0638
    2MOL   H261  523   0.983   1.089   4.408  0.4876 -1.5954 -0.1661
    2MOL   H262  524   1.318   0.785   4.345 -1.3777  0.6366 -0.4571
    3MOL     C1  525   7.042   1.172   2.869 -0.5871 -0.3953 -0.0628
    3MOL     C2  526   7.153   1.086   2.915  0.0404 -0.0374 -0.6163
    3MOL     O3  527   7.281   1.150   2.916 -0.2678 -0.0689 -0.7580
    3MOL     C4  528   7.313   1.227   3.032 -0.0244  0.6117  0.4261
    3MOL     C5  529   7.315   1.137   3.153  0.0653 -0.4490  0.4718
    3MOL     H6  530   6.952   1.114   2.849 -1.5744  1.4087 -1.0007
    3MOL     H7  531   7.009   1.236   2.951  2.2324  0.6990  0.2739
    3MOL     H8  532   7.116   1.047   3.010 -1.7374  1.4326 -0.6694
    3MOL     H9  533   7.249   1.315   3.044 -1.4782 -0.3074 -0.4940
    3MOL    H10  534   7.413   1.271   3.029 -0.1563  0.8656 -0.5362
    3MOL    H11  535   7.351   1.035   3.136  5.6848  1.3328  0.7035
    3MOL    H12  536   7.390   1.180   3.219  0.3221 -0.0411 -0.0890
    3MOL    H13  537   7.217   1.146   3.199  1.0492  2.9506  2.0656
    3MOL    H14  538   7.053   1.231   2.778  1.8096  2.7892  2.1698
    3MOL    C15  539   7.172   0.967   2.822  0.0779  0.9014 -0.4581
    3MOL    C16  540   7.256   0.850   2.873  0.0669 -0.1018 -0.9544
    3MOL    O17  541   7.305   0.775   2.763 -0.3942 -0.8895 -0.0396
    3MOL    C18  542   7.439   0.806   2.715 -0.2540 -0.1746 -1.6662
    3MOL    C19  543   7.440   0.782   2.565 -0.0583 -0.0223  0.2298
    3MOL    H20  544   7.224   0.999   2.731 -1.3752  2.2181 -0.8383
    3MOL    H21  545   7.078   0.919   2.795  0.7521 -0.2914 -0.7297
    3MOL    H22  546   7.329   0.900   2.938  2.4783 -0.1917 -3.4805
    3MOL    H23  547   7.511   0.740   2.764  0.4928  2.3103  0.7034
    3MOL    H24  548   7.470   0.907   2.741 -0.3675  0.1112 -2.6214
    3MOL    H25  549   7.537   0.792   2.517 -0.7462  0.7122 -1.0417
    3MOL    H26  550   7.378   0.855   2.513 -1.2109  0.8263  2.7182
    3MOL    H27  551   7.408   0.681   2.540 -0.1913  0.0737  0.0066
    3MOL    C28  552   7.161   0.762   2.960  0.1549  0.2001  0.0729
    3MOL    C29  553   7.222   0.639   3.019 -0.3386  0.2760 -0.1408
    3MOL    O30  554   7.121   0.567   3.078  0.0517 -0.2424  0.2737
    3MOL    C31  555   7.116   0.423   3.045  0.2025 -0.4037  0.1901
    3MOL    C32  556   7.014   0.338   3.118  0.5851  0.1523 -0.1043
    3MOL    H33  557   7.091   0.727   2.884  0.5933 -0.6749  0.0614
    3MOL    H34  558   7.106   0.811   3.040  2.8340 -2.0356  3.4001
    3MOL    H35  559   7.267   0.582   2.938  1.8563  3.1345 -1.0195
    3MOL    H36  560   7.216   0.381   3.050  0.8640  1.2778  1.7112
    3MOL    H37  561   7.089   0.417   2.940  1.4747  1.0161 -0.2332
    3MOL    H38  562   7.010   0.360   3.224  3.3658 -0.4497  0.1803
    3MOL    H39  563   6.914   0.350   3.077  0.0828 -2.2754  0.3372
    3MOL    H40  564   7.037   0.233   3.097  1.0693 -0.1337  1.7975
    3MOL    C41  565   7.332   0.664   3.126 -0.7855 -0.0833 -0.3774
    3MOL    C42  566   7.477   0.676   3.063 -0.2756 -0.0018  0.4178
    3MOL    O43  567   7.537   0.554   3.085  0.3918  0.6680  0.2130
    3MOL    C44  568   7.606   0.501   2.964  0.1518  0.1496 -0.1668
    3MOL    C45  569   7.662   0.367   2.988  0.2319 -0.4581 -0.2412
    3MOL    H46  570   7.334   0.586   3.203  0.4255 -0.1785 -0.4986
    3MOL    H47  571   7.293   0.760   3.161  0.3206 -0.1697  1.1396
    3MOL    H48  572   7.474   0.713   2.961 -3.5241  1.3670  0.9521
    3MOL    H49  573   7.690   0.562   2.933  1.5645 -0.9440  1.4324
    3MOL    H50  574   7.545   0.499   2.874 -0.0524  2.5263 -0.1081
    3MOL    H51  575   7.718   0.366   3.081 -1.8017  0.2952  1.0303
    3MOL    H52  576   7.582   0.294   3.006 -0.8198  0.2372 -1.9510
    3MOL    H53  577   7.722   0.324   2.908 -1.5435 -2.5935 -0.5039
    3MOL    C54  578   7.551   0.780   3.148 -0.4323 -0.1513 -0.5057
    3MOL    C55  579   7.670   0.847   3.080  0.0055  0.0550 -0.3208
    3MOL    O56  580   7.788   0.831   3.157 -0.3633  0.4458 -0.0728
    3MOL    C57  581   7.835   0.697   3.159  0.6735  0.2149  0.9583
    3MOL    C58  582   0.136   0.699   3.206 -0.1152  0.2892 -0.3340
    3MOL    H59  583   7.587   0.733   3.240 -0.8740 -0.1416 -0.3252
    3MOL    H60  584   7.488   0.863   3.182 -1.0496 -0.9181  0.2347
    3MOL    H61  585   7.678   0.799   2.982 -1.3892 -0.9083  0.0221
    3MOL    H62  586   7.830   0.661   3.056  0.9700  0.6228  0.8043
    3MOL    H63  587   7.775   0.631   3.222 -0.2702 -0.4713 -0.6408
    3MOL    H64  588   0.197   0.613   3.178 -0.8699 -0.5457  0.5069
    3MOL    H65  589   0.193   0.779   3.162 -0.1685  0.8463  0.5963
    3MOL    H66  590   0.139   0.713   3.314 -1.0677  1.4033 -0.4394
    3MOL    C67  591   7.639   0.991   3.057 -0.0994  0.4852 -0.1414
    3MOL    C68  592   7.736   1.057   2.954  0.1204  0.0715 -0.4254
    3MOL    O69  593   7.761   0.977   2.838  0.5830  0.0370 -0.7223
    3MOL    C70  594   7.831   1.031   2.734 -0.0408  0.2690 -0.1775
    3MOL    C71  595   7.800   0.925   2.621 -0.4523  0.4356 -0.9850
    3MOL    H72  596   7.633   1.047   3.150 -2.7353 -0.4082  0.2803
    3MOL    H73  597   7.539   0.994   3.013 -0.4618 -2.6864  0.3116
    3MOL    H74  598   7.681   1.148   2.930 -1.9495 -1.1387 -0.4349
    3MOL    H75  599   0.095   1.028   2.752  0.4795 -2.0251 -3.2118
    3MOL    H76  600   7.809   1.133   2.705 -1.5892 -0.3080 -1.1380
    3MOL    H77  601   7.815   0.824   2.660 -1.8021  0.3653 -0.6472
    3MOL    H78  602   7.696   0.944   2.596  0.1390  0.1614 -3.8132
    3MOL    H79  603   0.024   0.949   2.539  0.2048 -2.3713 -1.2991
    3MOL    C80  604   0.036   1.101   3.016  0.0500  0.3939 -0.1182
    3MOL    C81  605   0.016   1.187   3.138  0.2351 -0.0329  0.0741
    3MOL    O82  606   7.777   1.291   3.099 -0.5795 -0.2353 -0.6776
    3MOL    C83  607   7.687   1.340   3.194  0.4103  0.4301  0.8591
    3MOL    C84  608   7.619   1.459   3.134  0.0964  0.1288 -0.4553
    3MOL    H85  609   0.097   1.167   2.954 -0.6289  1.3485  0.2046
    3MOL    H86  610   0.104   1.021   3.044 -2.0346 -0.6479  2.1020
    3MOL    H87  611   7.808   1.129   3.215  2.6730 -2.3969  0.0389
    3MOL    H88  612   7.726   1.376   3.289  1.0230  3.4770 -0.5180
    3MOL    H89  613   7.612   1.266   3.222 -0.0523  1.5658  2.6757
    3MOL    H90  614   7.698   1.533   3.122  0.5748 -0.3244 -0.1152
    3MOL    H91  615   7.564   1.440   3.041 -0.2326  0.3800 -0.3150
    3MOL    H92  616   7.554   1.498   3.212 -0.1302  1.5359 -1.3358
    3MOL    C93  617   0.158   1.243   3.189  0.1230 -0.5064  0.0342
    3MOL    C94  618   0.211   1.177   3.323  0.1947 -0.5902  0.5336
    3MOL    O95  619   0.323   1.264   3.358 -0.3035  0.2898 -0.3031
    3MOL    C96  620   0.297   1.385   3.426 -0.0996 -0.0945 -0.6141
    3MOL    C97  621   0.425   1.457   3.465  0.2809 -0.0147 -0.4983
    3MOL    H98  622   0.136   1.349   3.203 -1.3860 -0.6383 -1.2363
    3MOL    H99  623   0.230   1.225   3.109  1.0692  0.1400  0.7346
    3MOL   H100  624   0.125   1.198   3.387 -0.4691 -4.3573  1.0315
    3MOL   H101  625   0.233   1.370   3.513 -2.2439 -1.7366 -2.4107
    3MOL   H102  626   0.231   1.450   3.368  0.7568  1.1666 -0.1887
    3MOL   H103  627   0.496   1.482   3.385  1.6146 -0.4154  0.5521
    3MOL   H104  628   0.410   1.549   3.522  2.8543 -0.9146  1.7164
    3MOL   H105  629   0.482   1.391   3.529 -0.1120 -2.4862 -2.5923
    3MOL   C106  630   0.273   1.033   3.305  0.0844 -0.2089  0.1549
    3MOL   C107  631   0.303   0.973   3.444 -0.8486 -0.4124  0.9050
    3MOL   O108  632   0.383   0.861   3.434 -0.3190  0.2805 -0.2146
    3MOL   C109  633   0.466   0.830   3.551  0.2283 -0.7178 -0.5361
    3MOL   C110  634   0.511   0.686   3.549  0.0895 -0.1054 -0.5953
    3MOL   H111  635   0.370   1.033   3.257  1.0123  0.0564  1.9807
    3MOL   H112  636   0.208   0.960   3.257  1.9258 -2.1435  0.5576
    3MOL   H113  637   0.348   1.049   3.510 -0.5319  0.1341  0.0687
    3MOL   H114  638   0.410   0.850   3.642 -1.0144 -0.2862 -1.3874
    3MOL   H115  639   0.560   0.886   3.548 -0.5249  0.5191 -1.8003
    3MOL   H116  640   0.565   0.664   3.456  1.2404 -1.0766  0.2866
    3MOL   H117  641   0.578   0.655   3.629  2.0463  2.5437 -1.1147
    3MOL   H118  642   0.421   0.625   3.549  0.3937 -0.5630 -0.4980
    3MOL   C119  643   0.171   0.920   3.514  0.5173  0.2148  0.2814
    3MOL   C120  644   0.102   0.999   3.621  0.0663 -0.5496 -0.4277
    3MOL   O121  645   0.200   1.025   3.718 -0.1295 -0.6433  0.3980
    3MOL   C122  646   0.193   1.154   3.780  0.3105 -0.6044 -0.1023
    3MOL   C123  647   0.312   1.195   3.865  0.3002 -1.0009  0.2390
    3MOL   H124  648   0.181   0.818   3.549  0.1306 -0.6781 -2.1040
    3MOL   H125  649   0.098   0.906   3.434  0.2235  0.9372  0.4155
    3MOL   H126  650   0.065   1.094   3.581 -0.5787 -0.1623  1.0408
    3MOL   H127  651   0.109   1.146   3.850  1.6169  0.0447  1.5639
    3MOL   H128  652   0.151   1.223   3.708  0.0028 -3.1215 -2.4043
    3MOL   H129  653   0.334   1.114   3.935 -0.6851 -1.4349  0.0544
    3MOL   H130  654   0.400   1.201   3.800  0.3879  0.8546  0.5192
    3MOL   H131  655   0.298   1.285   3.924 -0.8437 -0.1793 -1.2474
    3MOL   C132  656   7.834   0.923   3.707 -0.4906 -0.5938 -0.3788
    3MOL   C133  657   7.711   0.867   3.628 -0.1057 -0.5524 -0.2599
    3MOL   O134  658   7.627   0.969   3.576  0.1013  0.1071  0.0862
    3MOL   C135  659   7.542   0.916   3.473 -0.2630  0.2466 -0.0847
    3MOL   C136  660   7.399   0.955   3.484  0.0807 -0.5921 -0.6824
    3MOL   H137  661   7.796   0.989   3.784 -1.7539 -0.4505 -1.1059
    3MOL   H138  662   0.040   0.843   3.761  2.0452  0.8416 -0.5079
    3MOL   H139  663   7.750   0.826   3.536 -1.2602 -2.1368 -0.0539
    3MOL   H140  664   7.551   0.807   3.470  0.4773  0.3135 -0.4785
    3MOL   H141  665   7.584   0.962   3.383  0.1415 -0.1316 -0.0920
    3MOL   H142  666   7.382   1.062   3.490  2.6061 -0.2091 -0.0528
    3MOL   H143  667   7.347   0.924   3.394  1.0176  0.1214 -1.4756
    3MOL   H144  668   7.343   0.912   3.568  1.0317 -0.0259  0.2460
    3MOL   C145  669   7.623   0.769   3.711  0.3680 -0.0315 -0.8134
    3MOL   C146  670   7.674   0.624   3.690 -0.2705  0.2381 -0.2015
    3MOL   O147  671   7.603   0.564   3.584  0.2770  0.3329 -0.0676
    3MOL   C148  672   7.683   0.504   3.484 -0.8220  0.1096  0.8017
    3MOL   C149  673   7.583   0.437   3.383  0.0160 -0.0871 -0.2692
    3MOL   H150  674   7.517   0.766   3.686  0.2080  0.8008 -0.2290
    3MOL   H151  675   7.633   0.787   3.818  0.8357 -1.2254 -0.6496
    3MOL   H152  676   7.776   0.626   3.653 -0.0762  3.7894  0.3613
    3MOL   H153  677   7.748   0.430   3.531  1.2478  0.9356 -0.6723
    3MOL   H154  678   7.746   0.581   3.438  2.3597 -1.5386  2.2423
    3MOL   H155  679   7.503   0.496   3.339 -1.2075 -1.0174  0.6856
    3MOL   H156  680   7.632   0.389   3.298  1.0386 -0.3003  0.4309
    3MOL   H157  681   7.520   0.367   3.438  0.6624 -1.2584 -0.9961
    3MOL   C158  682   7.655   0.531   3.809  0.0994 -0.2261 -0.8507
    3MOL   C159  683   7.751   0.574   3.921 -0.0500  0.4850  0.0706
    3MOL   O160  684   0.040   0.572   3.861  0.4646 -0.4670  0.2291
    3MOL   C161  685   0.143   0.635   3.929  0.1219  0.2544  0.1340
    3MOL   C162  686   0.251   0.652   3.832  0.6944 -0.2346  0.5150
    3MOL   H163  687   7.685   0.431   3.776  0.8419 -0.7982  1.4572
    3MOL   H164  688   7.550   0.525   3.838  0.1168  1.6287 -0.3662
    3MOL   H165  689   7.727   0.676   3.953  1.1194  0.8955 -0.3124
    3MOL   H166  690   0.179   0.585   4.019  1.3785  1.0298  0.0748
    3MOL   H167  691   0.109   0.730   3.971  1.2539  0.3782  0.8054
    3MOL   H168  692   0.226   0.714   3.746  1.7496 -3.1822 -2.0498
    3MOL   H169  693   0.337   0.699   3.878 -0.1441  1.1374  0.6923
    3MOL   H170  694   0.261   0.552   3.789 -1.8811 -0.0799 -0.5364
    3MOL   C171  695   7.741   0.474   4.036 -0.2268 -0.1989  0.3662
    3MOL   C172  696   7.616   0.514   4.126 -0.0429  0.2184 -0.0750
    3MOL   O173  697   7.657   0.617   4.213  0.4539 -0.0172  0.4639
    3MOL   C174  698   7.550   0.701   4.253  0.1778 -0.4970 -0.4729
    3MOL   C175  699   7.600   0.804   4.362  0.1157  0.1879 -0.4191
    3MOL   H176  700   7.832   0.479   4.096 -0.0165 -1.6147  0.1696
    3MOL   H177  701   7.740   0.374   3.993  0.7697 -0.4241  0.8554
    3MOL   H178  702   7.538   0.551   4.060  0.4986  0.1623 -0.7560
    3MOL   H179  703   7.474   0.642   4.304  1.4339 -3.0549 -1.4469
    3MOL   H180  704   7.510   0.753   4.166 -0.2362 -0.9111 -0.5329
    3MOL   H181  705   7.662   0.752   4.435 -0.9754 -1.1633 -0.4555
    3MOL   H182  706   7.631   0.902   4.323 -2.1628  1.1500  0.1410
    3MOL   H183  707   7.514   0.847   4.413 -0.3455  2.4696 -2.9860
    3MOL   C184  708   7.572   0.389   4.204 -0.0809 -0.1600  0.0567
    3MOL   C185  709   7.672   0.350   4.319  0.4580  0.2248  0.2347
    3MOL   O186  710   7.680   0.209   4.340 -0.3167  0.1280  0.1366
    3MOL   C187  711   7.756   0.139   4.240 -0.2736 -0.0265 -0.7194
    3MOL   C188  712   7.843   0.034   4.309 -0.2885  0.3682 -0.3378
    3MOL   H189  713   7.566   0.309   4.130 -1.0271 -1.4719  1.4978
    3MOL   H190  714   7.473   0.406   4.245 -0.1084 -2.5651  1.0979
    3MOL   H191  715   7.770   0.388   4.289 -0.4596  1.4102 -1.3738
    3MOL   H192  716   7.804   0.203   4.165 -1.3742  1.2484 -0.3458
    3MOL   H193  717   7.677   0.085   4.188 -0.8553 -2.3899  2.5015
    3MOL   H194  718   0.015   7.795   4.240 -0.7470  1.9356 -2.3637
    3MOL   H195  719   0.093   0.074   4.351  0.4826 -1.5898 -0.1389
    3MOL   H196  720   7.801   7.827   4.396  0.2171  1.5868  0.6250
    3MOL   C197  721   7.649   0.407   4.457 -0.1479  0.2525 -0.5470
    3MOL   C198  722   7.758   0.365   4.567 -0.4526  0.0691 -0.3624
    3MOL   O199  723   7.709   0.406   4.697  0.6352 -0.6964  0.4364
    3MOL   C200  724   7.635   0.313   4.767  0.4660 -0.2373 -0.1004
    3MOL   C201  725   7.602   0.363   4.911 -0.1986  0.3838 -0.0496
    3MOL   H202  726   7.558   0.364   4.498  0.7381  1.2057  2.5771
    3MOL   H203  727   7.635   0.514   4.447  2.7834  0.5692 -1.7466
    3MOL   H204  728   7.764   0.257   4.571 -1.4206  0.0144 -0.3474
    3MOL   H205  729   7.676   0.212   4.761 -1.9565 -1.2835  0.5964
    3MOL   H206  730   7.540   0.315   4.714  0.9238  1.9834 -0.8683
    3MOL   H207  731   7.552   0.459   4.902  0.2124  0.6086  0.0809
    3MOL   H208  732   7.536   0.302   4.973 -0.4098  2.7963  2.1270
    3MOL   H209  733   7.697   0.368   4.964  0.0134 -0.5627 -0.3167
    3MOL   C210  734   0.045   0.442   4.553  0.0806  0.8475 -0.2462
    3MOL   C211  735   0.159   0.410   4.648 -0.1404 -0.6491  0.3149
    3MOL   O212  736   0.269   0.500   4.621 -0.5281  0.6802 -0.0368
    3MOL   C213  737   0.255   0.625   4.689  0.2222 -0.2226 -0.1137
    3MOL   C214  738   0.368   0.722   4.647  0.3209 -0.1904  0.7409
    3MOL   H215  739   0.017   0.547   4.547 -2.3316  0.1369 -1.9462
    3MOL   H216  740   0.078   0.433   4.450 -2.5458  0.8866 -1.1064
    3MOL   H217  741   0.121   0.425   4.749 -1.0213 -0.4635 -0.0348
    3MOL   H218  742   0.272   0.601   4.793  1.6216  0.3995 -0.1881
    3MOL   H219  743   0.162   0.679   4.669  0.7656  0.8432  0.1760
    3MOL   H220  744   0.395   0.782   4.733  1.5350  0.5466 -0.1453
    3MOL   H221  745   0.458   0.668   4.617 -0.5705  0.0699 -2.6076
    3MOL   H222  746   0.344   0.793   4.568  2.3386  0.0114  0.2807
    3MOL   C223  747   0.198   0.260   4.642 -0.3189 -0.1642  0.3668
    3MOL   C224  748   0.330   0.222   4.712 -0.8337  0.0946 -0.4449
    3MOL   O225  749   0.348   0.085   4.704  0.3934 -0.0525  0.3117
    3MOL   C226  750   0.413   0.042   4.588  0.3253 -0.2310 -0.2341
    3MOL   C227  751   0.465   7.746   4.620 -0.5582  0.4060 -0.1109
    3MOL   H228  752   0.215   0.230   4.539  2.4011  0.1861  0.6756
    3MOL   H229  753   0.116   0.195   4.675 -0.1504 -1.0569 -0.9512
    3MOL   H230  754   0.401   0.276   4.650  0.3955  1.0197  1.7004
    3MOL   H231  755   0.496   0.104   4.555 -0.1518 -0.9652 -2.9744
    3MOL   H232  756   0.330   0.035   4.517 -0.4341  0.0957  0.6069
    3MOL   H233  757   0.387   7.675   4.644 -1.3448  1.3756  0.2489
    3MOL   H234  758   0.507   7.719   4.523 -0.2860  0.3161  0.0312
    3MOL   H235  759   0.543   7.741   4.696  1.1642  2.1875 -1.6799
    3MOL   C236  760   0.342   0.267   4.857 -0.1851  0.1688  0.3307
    3MOL   C237  761   0.470   0.233   4.932 -0.2281  0.6307 -0.4449
    3MOL   O238  762   0.454   0.289   5.065 -0.5040  0.4553  0.2430
    3MOL   C239  763   0.465   0.210   5.172 -0.3352  0.8163  0.4889
    3MOL   C240  764   0.612   0.178   5.200  0.6229  0.5394 -0.4948
    3MOL   H241  765   0.251   0.219   4.893 -1.1709  1.0113 -1.0122
    3MOL   H242  766   0.329   0.375   4.852  3.2157  0.6930  1.3511
    3MOL   H243  767   0.477   0.124   4.942 -2.1035  0.3356 -1.8485
    3MOL   H244  768   0.395   0.127   5.172 -0.9264  1.3129 -0.0679
    3MOL   H245  769   0.427   0.276   5.249  2.8311  1.8044  1.2630
    3MOL   H246  770   0.637   0.108   5.121  0.5991  0.8058 -0.7425
    3MOL   H247  771   0.664   0.274   5.199  0.7733  0.4553 -0.7464
    3MOL   H248  772   0.628   0.120   5.291 -2.1292  1.9499  0.9775
    3MOL   C249  773   0.601   0.280   4.863 -0.3999  0.1773  0.6575
    3MOL   C250  774   0.595   0.430   4.824 -0.6040 -0.2876  0.0514
    3MOL   O251  775   0.723   0.468   4.771  0.0908  0.3792  0.0723
    3MOL   C252  776   0.738   0.609   4.761 -0.6713  0.1136 -0.3128
    3MOL   C253  777   0.876   0.631   4.696 -0.0588  0.1379  0.0674
    3MOL   H254  778   0.623   0.224   4.772 -2.0417 -1.6443  1.3326
    3MOL   H255  779   0.684   0.260   4.931 -1.1145 -2.5406  0.8066
    3MOL   H256  780   0.515   0.455   4.756 -2.6242 -3.1682  1.2838
    3MOL   H257  781   0.747   0.658   4.858  1.5811 -0.5010 -0.1939
    3MOL   H258  782   0.658   0.653   4.701 -1.2975  2.1800  1.9548
    3MOL   H259  783   0.939   0.574   4.763  1.5379  1.8420  0.0571
    3MOL   H260  784   0.880   0.586   4.596 -2.5994 -2.4849  1.0811
    3MOL   H261  785   0.908   0.735   4.688  0.0572 -0.0097 -1.6415
    3MOL   H262  786   0.590   0.491   4.915  0.8938 -0.3932  0.2310
    4MOL     C1  787   0.457   4.201   4.474 -0.1990 -0.4899 -0.3006
    4MOL     C2  788   0.398   4.235   4.619  0.4153  0.1581  0.1397
    4MOL     O3  789   0.305   4.343   4.625  0.1952 -0.6080  0.0461
    4MOL     C4  790   0.199   4.342   4.716 -0.1073  0.2073  0.7001
    4MOL     C5  791   0.098   4.448   4.654 -0.3153  0.9496 -0.5116
    4MOL     H6  792   0.532   4.122   4.481  0.6563  0.4738  1.7205
    4MOL     H7  793   0.377   4.155   4.415 -0.0765  0.4588 -1.2204
    4MOL     H8  794   0.340   4.151   4.657  1.9731  0.3956  3.1779
    4MOL     H9  795   0.241   4.366   4.814 -1.7668  2.2526  0.9477
    4MOL    H10  796   0.156   4.242   4.721 -1.2461  0.7855  3.5139
    4MOL    H11  797   0.018   4.473   4.724  1.5972 -0.2772  2.2153
    4MOL    H12  798   0.159   4.537   4.638 -1.3592  1.8695  0.5368
    4MOL    H13  799   0.055   4.409   4.562  0.2805  2.4025 -1.4083
    4MOL    H14  800   0.504   4.283   4.420  0.8847  0.0208  1.3787
    4MOL    C15  801   0.499   4.271   4.720  0.0174  0.3974  0.4285
    4MOL    C16  802   0.616   4.167   4.747 -0.3632 -0.7457  0.0540
    4MOL    O17  803   0.565   4.052   4.818 -0.6704 -0.2581  0.2282
    4MOL    C18  804   0.527   3.939   4.741 -0.0235  0.9018 -0.5186
    4MOL    C19  805   0.433   3.846   4.824 -0.4672  0.0152 -0.0396
    4MOL    H20  806   0.441   4.281   4.812 -0.2585 -1.3748  0.4616
    4MOL    H21  807   0.542   4.360   4.675  0.2824 -0.9664 -2.1288
    4MOL    H22  808   0.671   4.145   4.655 -0.2069 -0.1906  0.0144
    4MOL    H23  809   0.615   3.882   4.710 -1.1382  0.6585 -3.4096
    4MOL    H24  810   0.478   3.974   4.651  1.9635  4.0268 -0.4717
    4MOL    H25  811   0.394   3.751   4.786  1.1670 -0.8286  0.3380
    4MOL    H26  812   0.345   3.889   4.872  0.1957 -1.6354  2.7818
    4MOL    H27  813   0.493   3.809   4.907 -1.9458  0.9871  1.5143
    4MOL    C28  814   0.703   4.234   4.854 -0.4059  0.3446 -0.2780
    4MOL    C29  815   0.823   4.143   4.910  0.7050  0.6701  0.1659
    4MOL    O30  816   0.896   4.243   4.990  0.1802 -0.1456  0.3273
    4MOL    C31  817   0.886   4.228   5.137  0.4216 -0.2660  0.2698
    4MOL    C32  818   0.983   4.331   5.201  0.1806 -0.3177  0.7975
    4MOL    H33  819   0.655   4.275   4.942  0.3154  2.5191 -0.8517
    4MOL    H34  820   0.755   4.321   4.813 -0.0755 -0.7297 -2.2029
    4MOL    H35  821   0.773   4.063   4.964  0.1822  0.6916 -0.2878
    4MOL    H36  822   0.922   4.128   5.158  0.6535 -0.6205 -1.7883
    4MOL    H37  823   0.785   4.249   5.174  1.2960  2.0024  1.4764
    4MOL    H38  824   1.009   4.307   5.305  2.1040 -0.5215  0.2813
    4MOL    H39  825   1.078   4.333   5.150 -0.1343 -2.2515  0.0868
    4MOL    H40  826   0.941   4.431   5.189 -1.2891 -0.8571  1.2493
    4MOL    C41  827   0.921   4.100   4.802 -0.4662 -0.8928 -0.1334
    4MOL    C42  828   1.046   4.022   4.863 -0.5424  0.2040 -0.2784
    4MOL    O43  829   1.139   3.999   4.760  0.1351  0.1260 -0.2367
    4MOL    C44  830   1.101   3.903   4.661 -0.4386 -0.0012  0.3210
    4MOL    C45  831   1.193   3.918   4.538 -0.5993 -0.5777 -0.0583
    4MOL    H46  832   0.957   4.187   4.748 -1.4425 -2.0302 -2.6958
    4MOL    H47  833   0.866   4.038   4.732  0.3307 -1.0158 -0.6525
    4MOL    H48  834   1.093   4.087   4.937 -0.5864  0.3041 -0.3388
    4MOL    H49  835   0.998   3.926   4.634 -1.0974 -0.1195  2.6750
    4MOL    H50  836   1.107   3.807   4.711 -0.3760  0.1529  0.6126
    4MOL    H51  837   1.188   4.022   4.508  2.3448 -0.5384 -0.6002
    4MOL    H52  838   1.297   3.905   4.571  0.3332  0.3709 -2.4807
    4MOL    H53  839   1.170   3.844   4.461  1.0854  0.2133 -1.3591
    4MOL    C54  840   1.023   3.896   4.957 -0.1394  0.0654 -0.6708
    4MOL    C55  841   1.145   3.817   5.009  1.0439 -0.3017  0.8004
    4MOL    O56  842   1.090   3.719   5.097  0.5079  0.6718 -0.2831
    4MOL    C57  843   1.178   3.623   5.147  0.3981  0.3544  0.1924
    4MOL    C58  844   1.092   3.523   5.241 -0.0032 -0.4032 -0.4443
    4MOL    H59  845   0.954   3.829   4.907 -1.4891  0.5042  0.5734
    4MOL    H60  846   0.963   3.923   5.043  1.6449 -0.7909  0.8942
    4MOL    H61  847   1.182   3.767   4.919  0.8395  1.2941 -0.1974
    4MOL    H62  848   1.248   3.665   5.219 -1.2136  0.6135  1.6460
    4MOL    H63  849   1.238   3.580   5.067  2.8132  4.4749 -0.3843
    4MOL    H64  850   1.011   3.492   5.174 -1.7490  1.0247  0.9687
    4MOL    H65  851   1.146   3.432   5.268 -1.9209 -0.8497  1.9861
    4MOL    H66  852   1.057   3.570   5.332  0.4290  0.5108 -0.7441
    4MOL    C67  853   1.255   3.907   5.078  0.3980  0.3555  0.7609
    4MOL    C68  854   1.387   3.901   4.995 -0.4028  0.6868 -0.0304
    4MOL    O69  855   1.437   3.770   4.991  0.1439  0.2323 -0.1589
    4MOL    C70  856   1.525   3.749   4.880  0.5940 -0.3689 -0.3155
    4MOL    C71  857   1.550   3.600   4.882  0.1607 -0.5096  0.8613
    4MOL    H72  858   1.278   3.872   5.178 -0.1175 -1.7234  0.1746
    4MOL    H73  859   1.213   4.006   5.091 -1.1188 -0.4236  1.8196
    4MOL    H74  860   1.377   3.940   4.894 -0.2473  0.6833 -0.0472
    4MOL    H75  861   1.622   3.797   4.893 -0.7417  1.9466  1.7431
    4MOL    H76  862   1.483   3.787   4.786  0.3220 -0.5123 -0.2519
    4MOL    H77  863   1.453   3.550   4.892 -0.1415 -0.4304 -1.5366
    4MOL    H78  864   1.588   3.564   4.787 -0.4040  0.6620  0.1762
    4MOL    H79  865   1.596   3.560   4.973 -0.1400  0.4632  1.4515
    4MOL    C80  866   1.493   3.979   5.064 -0.6666 -0.2070  0.2295
    4MOL    C81  867   1.493   4.133   5.030 -0.6876 -0.6411  0.1336
    4MOL    O82  868   1.527   4.142   4.889 -0.1876 -1.1772 -0.3471
    4MOL    C83  869   1.470   4.254   4.814 -0.3783 -0.1740  0.5383
    4MOL    C84  870   1.540   4.241   4.685  0.3844 -0.2915 -0.3531
    4MOL    H85  871   1.596   3.947   5.045  0.1083  1.5944  1.1705
    4MOL    H86  872   1.482   3.971   5.172 -4.0474 -0.2039 -0.0878
    4MOL    H87  873   1.389   4.163   5.047 -0.9341 -0.6494 -1.2790
    4MOL    H88  874   1.483   4.357   4.848  0.3384  0.6259 -2.0443
    4MOL    H89  875   1.362   4.253   4.799 -0.0618 -1.6102 -2.0552
    4MOL    H90  876   1.648   4.234   4.701  0.5940 -0.7296 -1.8562
    4MOL    H91  877   1.512   4.142   4.650 -1.4452 -0.0015  0.2283
    4MOL    H92  878   1.521   4.324   4.616  2.2154  0.3665 -0.1067
    4MOL    C93  879   1.588   4.218   5.119 -0.0975 -0.4347  0.2409
    4MOL    C94  880   1.552   4.265   5.262  0.4462 -0.7646 -0.2991
    4MOL    O95  881   1.465   4.378   5.243 -0.2622  0.4429 -0.7091
    4MOL    C96  882   1.401   4.428   5.360  0.5568 -0.4458 -0.0075
    4MOL    C97  883   1.290   4.517   5.307 -0.0911 -0.4002 -0.7879
    4MOL    H98  884   1.619   4.306   5.062 -2.7484 -0.2821 -1.0283
    4MOL    H99  885   1.674   4.153   5.134 -1.1289 -1.6350  0.9660
    4MOL   H100  886   1.496   4.189   5.317 -1.3214  0.7778  0.1038
    4MOL   H101  887   1.477   4.486   5.413  0.8244 -0.4824 -0.3459
    4MOL   H102  888   1.370   4.338   5.413  4.2821 -1.1676  1.1187
    4MOL   H103  889   1.313   4.580   5.221 -0.6573 -1.1588 -1.5050
    4MOL   H104  890   1.217   4.440   5.278  1.0955 -2.5972  1.8635
    4MOL   H105  891   1.247   4.582   5.383  0.3682  0.2345 -1.0730
    4MOL   C106  892   1.677   4.304   5.345  0.1609  0.0554  0.2710
    4MOL   C107  893   1.714   4.181   5.444  0.5377 -0.7560  0.5452
    4MOL   O108  894   1.606   4.165   5.538  0.2696  0.5697  0.2174
    4MOL   C109  895   1.531   4.050   5.528  0.2928 -0.4547 -0.2829
    4MOL   C110  896   1.589   3.950   5.621 -0.8326 -0.0641  0.3124
    4MOL   H111  897   1.660   4.400   5.395 -2.0545 -0.1460 -0.0449
    4MOL   H112  898   1.758   4.328   5.277 -0.1797  3.8839  1.0911
    4MOL   H113  899   1.732   4.090   5.388  1.4763 -0.1324 -0.1679
    4MOL   H114  900   1.512   4.014   5.427 -0.4433  1.3645 -0.8183
    4MOL   H115  901   1.437   4.085   5.573  0.6431 -1.1856  1.0533
    4MOL   H116  902   1.540   3.852   5.617  0.8640 -0.9477  0.4477
    4MOL   H117  903   1.695   3.932   5.598 -1.3789 -2.6289 -0.4311
    4MOL   H118  904   1.601   3.988   5.723  1.0834  1.3698 -0.4244
    4MOL   C119  905   1.826   4.206   5.543 -0.9145  0.1395  0.1420
    4MOL   C120  906   1.966   4.207   5.483  0.0043 -0.0569  0.0492
    4MOL   O121  907   1.989   4.334   5.425 -0.3226 -0.1347 -0.3595
    4MOL   C122  908   2.045   4.445   5.493 -1.0139 -0.7000 -0.4008
    4MOL   C123  909   2.070   4.551   5.382 -0.2609  0.1535 -0.2045
    4MOL   H124  910   1.806   4.125   5.613  1.0591 -2.5915 -2.3074
    4MOL   H125  911   1.796   4.291   5.604 -0.4512 -0.0797  0.6818
    4MOL   H126  912   2.044   4.203   5.560 -1.1003 -0.0873  1.1893
    4MOL   H127  913   2.137   4.403   5.533  0.3431  2.5448 -0.0095
    4MOL   H128  914   1.978   4.486   5.568 -2.0382  0.4195 -1.9113
    4MOL   H129  915   1.974   4.596   5.357 -0.5845 -0.1388  0.4961
    4MOL   H130  916   2.137   4.634   5.406  0.1521 -0.2711  0.1061
    4MOL   H131  917   2.116   4.510   5.292 -3.9278 -1.7417 -1.3420
    4MOL   C132  918   2.014   4.111   5.381 -0.0257 -0.1314 -0.6847
    4MOL   C133  919   1.999   3.963   5.427 -1.1376 -0.2983 -0.7627
    4MOL   O134  920   2.062   3.961   5.554  0.5620  0.1726 -0.2286
    4MOL   C135  921   2.037   3.858   5.651 -0.0950  0.1579  0.3446
    4MOL   C136  922   2.168   3.795   5.697  0.0349 -0.2141  0.5361
    4MOL   H137  923   2.121   4.129   5.387 -0.0824 -0.0543  0.1482
    4MOL   H138  924   1.989   4.126   5.276  2.6357 -1.6478 -1.5977
    4MOL   H139  925   1.894   3.933   5.438 -0.1391 -3.6048  0.2451
    4MOL   H140  926   1.978   3.771   5.618  1.4106 -1.5363  2.0397
    4MOL   H141  927   1.974   3.889   5.734 -1.8672 -0.9195 -0.5568
    4MOL   H142  928   2.226   3.877   5.740  0.7011 -0.1308 -0.4952
    4MOL   H143  929   2.151   3.719   5.773  0.4577  0.1194  0.9732
    4MOL   H144  930   2.219   3.755   5.609  1.2724  0.9162  0.7182
    4MOL   C145  931   2.077   3.873   5.326 -0.0238  0.2159  0.3535
    4MOL   C146  932   1.999   3.859   5.196  0.5159  0.8881  1.0283
    4MOL   O147  933   1.906   3.751   5.229 -0.0293 -0.0968  0.2371
    4MOL   C148  934   1.774   3.774   5.182 -0.4763 -0.0299  0.4538
    4MOL   C149  935   1.691   3.662   5.243 -0.1627  0.1858  0.0377
    4MOL   H150  936   2.091   3.771   5.360 -1.0445 -0.5150 -1.3256
    4MOL   H151  937   2.169   3.923   5.296 -0.8668 -0.2077 -3.1721
    4MOL   H152  938   1.954   3.957   5.178  1.9689  1.7599  1.9895
    4MOL   H153  939   1.764   3.765   5.074 -0.0157 -0.5734  0.4519
    4MOL   H154  940   1.743   3.873   5.216  1.1322  1.2923 -1.7698
    4MOL   H155  941   1.586   3.691   5.230 -0.1518 -0.2134 -0.9388
    4MOL   H156  942   1.703   3.566   5.192 -0.6055 -1.0120  2.1363
    4MOL   H157  943   1.715   3.653   5.349  0.9278  1.0790 -0.1285
    4MOL   C158  944   2.081   3.803   5.079 -0.1937 -0.8685 -0.4543
    4MOL   C159  945   2.157   3.898   4.984 -0.0422  0.0727  0.5078
    4MOL   O160  946   2.080   4.001   4.920  0.3219 -0.2259  0.5743
    4MOL   C161  947   1.993   3.955   4.810  0.8096  0.2658  0.0246
    4MOL   C162  948   1.906   4.074   4.752 -0.2578 -0.4751  0.2012
    4MOL   H163  949   2.008   3.750   5.017 -0.2157 -0.7581 -0.5229
    4MOL   H164  950   2.156   3.737   5.123  1.6551 -0.3635 -2.6859
    4MOL   H165  951   2.225   3.956   5.047  1.0976 -2.1656  1.3887
    4MOL   H166  952   1.929   3.878   4.853 -1.6297  2.6709  0.9033
    4MOL   H167  953   2.046   3.899   4.733 -2.9595 -3.0663 -0.2784
    4MOL   H168  954   1.851   4.134   4.824 -1.1389  0.6542 -1.3983
    4MOL   H169  955   1.953   4.138   4.678 -1.4302 -0.7439 -0.8007
    4MOL   H170  956   1.821   4.035   4.695 -0.5285  0.6807 -0.1916
    4MOL   C171  957   2.247   3.816   4.891  0.5491  0.7597 -0.8123
    4MOL   C172  958   2.352   3.890   4.807 -0.3010 -0.4433 -0.2569
    4MOL   O173  959   2.390   3.803   4.701 -0.4030 -0.1381  0.5867
    4MOL   C174  960   2.334   3.829   4.575 -0.7744 -0.6506 -0.2825
    4MOL   C175  961   2.404   3.745   4.471 -0.1015  0.1099  0.0523
    4MOL   H176  962   2.181   3.754   4.829  1.5789  0.2427 -1.4040
    4MOL   H177  963   2.294   3.740   4.954  2.6367  0.0038 -3.2251
    4MOL   H178  964   2.305   3.984   4.778  0.2804 -0.4058 -1.1021
    4MOL   H179  965   2.343   3.937   4.560 -0.6343 -0.4573  1.1795
    4MOL   H180  966   2.227   3.809   4.581 -1.0469 -0.2954 -3.1142
    4MOL   H181  967   2.446   3.808   4.393  2.7617 -0.6715  0.8806
    4MOL   H182  968   2.494   3.695   4.508 -1.6498 -1.8325  1.2879
    4MOL   H183  969   2.347   3.666   4.422 -0.7822 -0.6195  1.9495
    4MOL   C184  970   2.486   3.924   4.893 -0.2626 -0.8438  0.3957
    4MOL   C185  971   2.602   3.989   4.805 -0.1066 -0.3167  0.1623
    4MOL   O186  972   2.726   3.930   4.836 -0.6058  0.2697 -0.6691
    4MOL   C187  973   2.751   3.802   4.775  0.3959 -0.0312 -0.6637
    4MOL   C188  974   2.900   3.802   4.736 -0.4844  0.5890  1.3704
    4MOL   H189  975   2.522   3.826   4.923 -0.9175 -0.3418  2.9490
    4MOL   H190  976   2.469   3.979   4.986  3.0823  0.6810  0.2008
    4MOL   H191  977   2.577   3.966   4.702 -2.2081 -1.1766  0.8266
    4MOL   H192  978   2.684   3.764   4.697  2.1655 -1.0729 -1.7162
    4MOL   H193  979   2.751   3.733   4.859  2.7011  1.4783  0.6249
    4MOL   H194  980   2.929   3.887   4.674 -0.7344  1.3249  2.2618
    4MOL   H195  981   2.962   3.800   4.825  0.7423 -0.6026  0.5176
    4MOL   H196  982   2.928   3.713   4.679 -1.0541  0.1297  1.8148
    4MOL   C197  983   2.618   4.138   4.834 -0.1453 -1.3115 -0.2966
    4MOL   C198  984   2.497   4.225   4.787  0.1052 -0.0864 -0.3783
    4MOL   O199  985   2.476   4.207   4.648  0.0942 -0.0849  0.1647
    4MOL   C200  986   2.348   4.252   4.606 -0.3561 -0.2306  0.5450
    4MOL   C201  987   2.349   4.234   4.452  0.2091 -0.0704  0.0028
    4MOL   H202  988   2.716   4.166   4.796  0.6967 -0.8795  2.1303
    4MOL   H203  989   2.619   4.134   4.943  2.6578  1.6551 -0.1445
    4MOL   H204  990   2.410   4.185   4.839  0.4151 -0.9432 -0.5009
    4MOL   H205  991   2.317   4.354   4.630  0.1353  1.1787 -4.2572
    4MOL   H206  992   2.274   4.183   4.647 -1.9120  0.4873 -0.9875
    4MOL   H207  993   2.442   4.272   4.410 -0.3302  0.9368 -0.2943
    4MOL   H208  994   2.357   4.128   4.428  2.9047  0.3992 -1.4075
    4MOL   H209  995   2.258   4.266   4.400 -0.9730  0.8399  2.5815
    4MOL   C210  996   2.524   4.378   4.824 -0.5855  0.0582  0.3677
    4MOL   C211  997   2.650   4.448   4.769  0.2869 -0.0554 -0.3395
    4MOL   O212  998   2.754   4.467   4.860  0.4775  0.5622 -0.1443
    4MOL   C213  999   2.883   4.425   4.822 -0.4120  0.1310 -0.2289
    4MOL   C214 1000   2.989   4.502   4.896  0.2726 -0.3981 -0.2958
    4MOL   H215 1001   2.523   4.388   4.932 -1.5963  0.3786  0.3359
    4MOL   H216 1002   2.433   4.435   4.802  0.6925  1.6974 -0.7655
    4MOL   H217 1003   2.689   4.380   4.693  1.1132  1.0004 -0.8679
    4MOL   H218 1004   2.893   4.457   4.718 -0.8939 -0.9286 -0.6030
    4MOL   H219 1005   2.901   4.318   4.826 -1.5923 -0.0658 -0.0800
    4MOL   H220 1006   3.030   4.578   4.829 -1.8437  2.0349  1.1327
    4MOL   H221 1007   2.946   4.558   4.978 -0.8596 -3.0694  0.9874
    4MOL   H222 1008   3.066   4.438   4.939  0.4083 -0.9772 -1.3687
    4MOL   C223 1009   2.623   4.596   4.726  0.3725  0.3107  0.4386
    4MOL   C224 1010   2.538   4.613   4.601  0.3095  0.7388 -0.5188
    4MOL   O225 1011   2.621   4.621   4.490  0.1235  0.0319 -0.4787
    4MOL   C226 1012   2.673   4.508   4.439 -0.0157  0.0302 -0.5616
    4MOL   C227 1013   2.693   4.559   4.300 -0.0201 -0.0919  0.0784
    4MOL   H228 1014   2.720   4.639   4.701  0.5515  0.2144  0.9708
    4MOL   H229 1015   2.574   4.648   4.809 -1.3542 -0.7867  0.1448
    4MOL   H230 1016   2.465   4.533   4.593 -1.0686  1.7472  1.6739
    4MOL   H231 1017   2.607   4.422   4.448 -0.0324 -0.1676 -2.4556
    4MOL   H232 1018   2.769   4.473   4.478 -0.4165 -0.2951  0.1464
    4MOL   H233 1019   2.752   4.651   4.303 -1.5688  0.9516 -0.9781
    4MOL   H234 1020   2.744   4.485   4.238 -1.5387  1.1602 -2.7448
    4MOL   H235 1021   2.594   4.568   4.255  0.1492  2.5151  0.1951
    4MOL   C236 1022   2.476   4.757   4.595 -0.1078 -0.0218  0.1067
    4MOL   C237 1023   2.410   4.802   4.461  0.0830 -0.0612  0.2787
    4MOL   O238 1024   2.343   4.927   4.477 -0.1345 -0.7408  0.2482
    4MOL   C239 1025   2.430   5.037   4.467 -0.3695  0.2594 -0.0430
    4MOL   C240 1026   2.357   5.159   4.513 -0.0417  0.2565 -0.9528
    4MOL   H241 1027   2.557   4.829   4.609 -0.2137 -0.1627  1.5234
    4MOL   H242 1028   2.400   4.777   4.671 -1.5561  0.4390 -1.4477
    4MOL   H243 1029   2.478   4.805   4.376  0.0927 -1.1115  0.2341
    4MOL   H244 1030   2.465   5.060   4.367  1.2127 -0.1054  0.4014
    4MOL   H245 1031   2.504   5.014   4.543 -1.2345 -3.0929 -0.1465
    4MOL   H246 1032   2.275   5.190   4.449 -0.0809 -0.5524 -1.2932
    4MOL   H247 1033   2.322   5.139   4.614  0.1985  1.7378 -0.5636
    4MOL   H248 1034   2.428   5.242   4.516  0.0960  0.2590 -3.2419
    4MOL   C249 1035   2.296   4.703   4.432 -0.5415 -0.7204 -1.0723
    4MOL   C250 1036   2.209   4.736   4.313  0.0193  0.4166  0.8196
    4MOL   O251 1037   2.106   4.633   4.297  0.7316  0.3033  0.0524
    4MOL   C252 1038   1.990   4.653   4.216 -0.1162  0.5755  0.1234
    4MOL   C253 1039   1.886   4.726   4.303  0.4164  0.3063 -0.1016
    4MOL   H254 1040   2.232   4.700   4.520 -0.3378  1.1503 -0.8285
    4MOL   H255 1041   2.328   4.599   4.421  0.5370 -0.7277  1.6141
    4MOL   H256 1042   2.153   4.829   4.323  0.5940  0.7592  0.8449
    4MOL   H257 1043   1.959   4.551   4.193  0.0064  0.7059 -0.6332
    4MOL   H258 1044   2.016   4.712   4.129  1.1307 -1.6082 -1.0276
    4MOL   H259 1045   1.867   4.671   4.395  1.1187 -1.2379 -0.8534
    4MOL   H260 1046   1.920   4.825   4.333  1.5325 -0.3864  0.9571
    4MOL   H261 1047   1.788   4.729   4.256 -0.7287 -1.3773  2.0656
    4MOL   H262 1048   2.270   4.723   4.224 -2.4670  1.9994 -1.1653
    5MOL     C1 1049   1.930   1.895   6.947  0.0575  0.3726  0.8684
    5MOL     C2 1050   2.059   1.903   6.865  0.3941  0.4913  1.2633
    5MOL     O3 1051   2.154   1.955   6.965  0.1211 -0.1766  0.4600
    5MOL     C4 1052   2.292   1.930   6.936 -0.2138 -0.1112  0.2712
    5MOL     C5 1053   2.370   1.919   7.071  0.6435 -0.6777  0.6004
    5MOL     H6 1054   1.912   1.988   7.001 -1.3219  1.2887 -1.1362
    5MOL     H7 1055   1.841   1.882   6.886  1.4526  0.8432 -1.3343
    5MOL     H8 1056   2.090   1.806   6.828 -1.1519  0.3857  0.1987
    5MOL     H9 1057   2.325   2.016   6.878 -0.5347  0.9454  1.6347
    5MOL    H10 1058   2.306   1.838   6.879 -3.4162  0.2695 -1.2643
    5MOL    H11 1059   2.333   1.839   7.135 -0.1941 -1.3481 -0.7053
    5MOL    H12 1060   2.477   1.901   7.062  0.7316  0.2749 -0.2997
    5MOL    H13 1061   2.340   2.012   7.120  1.5006  0.0101 -0.1719
    5MOL    H14 1062   1.929   1.818   7.024  0.6295 -1.9449 -1.3721
    5MOL    C15 1063   2.045   1.994   6.735  0.5009 -0.0936  0.6776
    5MOL    C16 1064   2.135   1.968   6.614  0.7958 -0.1432  0.2185
    5MOL    O17 1065   2.262   2.031   6.627  0.0851 -0.2435 -0.6236
    5MOL    C18 1066   2.364   1.948   6.572  0.8709 -0.6794  0.2095
    5MOL    C19 1067   2.487   2.023   6.615 -0.1356  0.5288  0.2927
    5MOL    H20 1068   2.034   2.101   6.753 -0.2561 -0.1180  0.3704
    5MOL    H21 1069   1.946   1.971   6.696  0.8692  0.6118 -0.7286
    5MOL    H22 1070   2.135   1.860   6.598  1.2323  0.2240 -2.3350
    5MOL    H23 1071   2.355   1.959   6.464 -0.1704 -0.9423  0.2575
    5MOL    H24 1072   2.357   1.848   6.615  0.0989 -0.4635  0.5997
    5MOL    H25 1073   2.493   2.113   6.555  1.0634 -0.8419 -1.7179
    5MOL    H26 1074   2.574   1.970   6.574  0.0318  2.0462 -1.3375
    5MOL    H27 1075   2.506   2.028   6.722 -3.2180 -0.6743  0.9397
    5MOL    C28 1076   2.065   2.024   6.483  0.5512  0.0439  0.4796
    5MOL    C29 1077   1.958   1.929   6.424 -0.3373  0.4166  0.5145
    5MOL    O30 1078   2.019   1.796   6.394 -0.0019 -0.4300  0.4147
    5MOL    C31 1079   1.975   1.684   6.463 -0.1142 -0.3219 -0.1022
    5MOL    C32 1080   2.062   1.560   6.426 -0.4347  0.0307  0.4912
    5MOL    H33 1081   2.137   2.038   6.402  1.0341 -2.6444  0.3931
    5MOL    H34 1082   2.015   2.117   6.509  0.4946  0.3825 -0.7895
    5MOL    H35 1083   1.888   1.912   6.506  0.2613  1.3187  1.2165
    5MOL    H36 1084   1.873   1.682   6.425  0.3077  1.4404 -1.3778
    5MOL    H37 1085   1.966   1.697   6.571 -0.8118  2.7254 -0.5039
    5MOL    H38 1086   2.155   1.566   6.482 -1.1175  0.0828  1.6387
    5MOL    H39 1087   2.010   1.465   6.434  1.3644 -0.7202  4.0823
    5MOL    H40 1088   2.084   1.565   6.319 -2.0816  1.6686  0.1838
    5MOL    C41 1089   1.886   1.995   6.299 -0.6201  0.8526  0.0363
    5MOL    C42 1090   1.796   1.906   6.208 -0.2963 -0.0947  0.5169
    5MOL    O43 1091   1.749   1.983   6.094 -0.3836 -0.5831  0.3932
    5MOL    C44 1092   1.845   1.996   5.984  0.4511  0.4698 -0.1497
    5MOL    C45 1093   1.807   2.105   5.882 -0.2659 -0.2798 -0.3088
    5MOL    H46 1094   1.966   2.024   6.230  1.0122 -0.8538  1.1423
    5MOL    H47 1095   1.836   2.084   6.337  0.4194  1.1928  0.6258
    5MOL    H48 1096   1.852   1.819   6.173 -0.4367 -0.0378  0.1509
    5MOL    H49 1097   1.861   1.901   5.933 -0.6891  1.4050 -2.2951
    5MOL    H50 1098   1.948   2.013   6.017  0.2921 -0.3654  0.7878
    5MOL    H51 1099   1.884   2.145   5.816 -0.1204 -1.4322 -0.8514
    5MOL    H52 1100   1.743   2.050   5.813 -1.5675  1.1597 -0.2490
    5MOL    H53 1101   1.743   2.182   5.925 -1.3994 -0.3038 -1.9137
    5MOL    C54 1102   1.681   1.850   6.291 -0.6032 -0.3170 -0.0310
    5MOL    C55 1103   1.601   1.745   6.218 -0.5908 -0.2348 -0.2564
    5MOL    O56 1104   1.461   1.776   6.232  0.3109 -0.3411  0.0069
    5MOL    C57 1105   1.404   1.880   6.144 -0.2013  1.1385 -0.3216
    5MOL    C58 1106   1.249   1.874   6.155 -0.6555 -0.8503  0.4662
    5MOL    H59 1107   1.622   1.940   6.308  0.1072  0.2819 -0.6906
    5MOL    H60 1108   1.702   1.835   6.397 -0.9173 -1.0632 -0.0739
    5MOL    H61 1109   1.622   1.750   6.111  1.6031 -2.8932 -0.0020
    5MOL    H62 1110   1.426   1.862   6.039 -1.1849 -1.0127 -0.1857
    5MOL    H63 1111   1.437   1.980   6.171 -1.6284  1.0981  1.7191
    5MOL    H64 1112   1.215   1.957   6.094  1.3799  0.6150  1.2831
    5MOL    H65 1113   1.217   1.773   6.129  1.1538 -0.8689 -1.7971
    5MOL    H66 1114   1.228   1.894   6.260  1.0726  1.4084  0.4022
    5MOL    C67 1115   1.633   1.599   6.255 -0.6763  0.6337  0.2101
    5MOL    C68 1116   1.548   1.502   6.168 -0.1056 -0.6380  1.1798
    5MOL    O69 1117   1.562   1.364   6.195 -0.3117 -0.1998  0.3390
    5MOL    C70 1118   1.495   1.316   6.309 -0.2482 -1.0517 -0.0619
    5MOL    C71 1119   1.493   1.163   6.321 -0.2659  0.6654 -0.3503
    5MOL    H72 1120   1.609   1.582   6.360  0.4043 -0.5109  0.2823
    5MOL    H73 1121   1.735   1.564   6.239  0.2403  2.9532  0.8484
    5MOL    H74 1122   1.443   1.531   6.172  0.5125  2.4975 -2.6355
    5MOL    H75 1123   1.390   1.345   6.303 -0.0082  0.0472  0.8205
    5MOL    H76 1124   1.531   1.362   6.401 -1.7215  0.5696 -0.2716
    5MOL    H77 1125   1.449   1.112   6.235  2.6631  2.0236 -2.7705
    5MOL    H78 1126   1.592   1.120   6.337 -1.3411 -1.4218  0.8986
    5MOL    H79 1127   1.434   1.134   6.407  2.2139  0.0445  1.1959
    5MOL    C80 1128   1.591   1.503   6.025 -0.8610 -0.0822  0.2726
    5MOL    C81 1129   1.480   1.470   5.914 -0.2082  0.9548 -0.2398
    5MOL    O82 1130   1.548   1.438   5.791  0.2149  0.3991  0.6339
    5MOL    C83 1131   1.494   1.321   5.728 -1.5575  0.2735  0.0680
    5MOL    C84 1132   1.618   1.268   5.661 -0.2477 -0.3493 -0.2469
    5MOL    H85 1133   1.663   1.421   6.020 -1.0268 -0.3108  1.3793
    5MOL    H86 1134   1.650   1.588   5.993  0.2566 -1.0095 -0.1670
    5MOL    H87 1135   1.412   1.391   5.947 -0.3861  0.3518 -2.0361
    5MOL    H88 1136   1.416   1.347   5.657 -0.1801  3.5270 -0.3307
    5MOL    H89 1137   1.453   1.247   5.796 -2.0513 -1.7469 -2.3396
    5MOL    H90 1138   1.635   1.308   5.561 -0.9470  0.1607 -0.1678
    5MOL    H91 1139   1.711   1.279   5.718 -0.9381 -2.3953  1.3493
    5MOL    H92 1140   1.596   1.161   5.656  1.6739 -0.6647 -2.8338
    5MOL    C93 1141   1.396   1.594   5.897 -0.1447  0.3607 -0.2490
    5MOL    C94 1142   1.267   1.572   5.809  0.4404 -0.3964 -0.6037
    5MOL    O95 1143   1.218   1.701   5.785 -0.2468 -0.2158  0.0880
    5MOL    C96 1144   1.275   1.777   5.674 -0.6455 -0.2150 -0.1385
    5MOL    C97 1145   1.215   1.915   5.656  0.0525  0.9880 -0.6399
    5MOL    H98 1146   1.461   1.665   5.847  1.2537  0.1993  1.3146
    5MOL    H99 1147   1.362   1.630   5.995 -0.2627 -0.5605  0.0502
    5MOL   H100 1148   1.279   1.528   5.710 -1.2565  0.3406 -1.1611
    5MOL   H101 1149   1.271   1.719   5.582  0.3207 -0.3703 -0.0803
    5MOL   H102 1150   1.379   1.803   5.690 -0.8820  0.0613  1.0149
    5MOL   H103 1151   1.109   1.903   5.632  0.2873  0.5108 -1.4630
    5MOL   H104 1152   1.236   1.983   5.739  0.8943  0.6296 -0.5527
    5MOL   H105 1153   1.245   1.951   5.558 -0.4453  2.4716 -0.2623
    5MOL   C106 1154   1.158   1.496   5.886 -0.1107  0.1287 -0.1314
    5MOL   C107 1155   1.026   1.477   5.814 -0.8113  0.3873  0.6132
    5MOL   O108 1156   0.939   1.397   5.902  0.0532 -0.4259 -0.5074
    5MOL   C109 1157   0.871   1.463   6.004 -0.3717 -0.2810 -0.7363
    5MOL   C110 1158   0.779   1.344   6.060  0.4331  0.1436  0.1468
    5MOL   H111 1159   1.147   1.524   5.991  0.3244 -1.1980  0.2838
    5MOL   H112 1160   1.186   1.392   5.900  0.9101  0.4477  0.2230
    5MOL   H113 1161   0.983   1.575   5.794  0.4935  0.8093 -0.1212
    5MOL   H114 1162   0.803   1.539   5.966 -0.0561  0.8552  0.9086
    5MOL   H115 1163   0.936   1.509   6.079 -1.6222 -0.1826  0.2934
    5MOL   H116 1164   0.829   1.252   6.090  1.5425  1.1606  1.4894
    5MOL   H117 1165   0.701   1.368   6.132 -0.4412  0.0634 -0.7600
    5MOL   H118 1166   0.719   1.302   5.979  0.7185 -3.2314  1.6148
    5MOL   C119 1167   1.037   1.396   5.685  0.5740  0.7970 -0.5631
    5MOL   C120 1168   0.916   1.433   5.595 -0.5084  0.3520 -0.2612
    5MOL   O121 1169   0.876   1.316   5.521  0.5956  0.7332  0.1609
    5MOL   C122 1170   0.787   1.223   5.581  0.5194  1.6545  0.9265
    5MOL   C123 1171   0.702   1.150   5.479 -0.9536  0.3557  0.3546
    5MOL   H124 1172   1.047   1.292   5.717 -2.0503  0.1114 -1.8447
    5MOL   H125 1173   1.131   1.412   5.632  0.5660  1.3099 -0.4265
    5MOL   H126 1174   0.831   1.479   5.646  0.5977  0.0018  1.9914
    5MOL   H127 1175   0.715   1.282   5.638 -1.7852  0.9108 -1.1187
    5MOL   H128 1176   0.846   1.148   5.635 -0.8959  0.4503  0.8414
    5MOL   H129 1177   0.770   1.098   5.412 -1.2538  0.4980 -0.0603
    5MOL   H130 1178   0.637   1.076   5.527  0.3034 -2.1340 -1.6689
    5MOL   H131 1179   0.642   1.209   5.410 -1.3932  1.8024  1.9587
    5MOL   C132 1180   0.966   1.546   5.494  0.1342  0.5644 -0.7224
    5MOL   C133 1181   0.853   1.600   5.393 -0.3561 -0.0592 -0.4439
    5MOL   O134 1182   0.924   1.709   5.322  0.0434  0.3719 -0.2134
    5MOL   C135 1183   0.865   1.748   5.200 -0.3300  0.6078  0.6644
    5MOL   C136 1184   0.923   1.665   5.088  0.8260  0.7483  0.5166
    5MOL   H137 1185   1.061   1.523   5.447  0.2238  1.7312 -1.1340
    5MOL   H138 1186   0.976   1.640   5.549 -1.2806  0.4900 -0.3043
    5MOL   H139 1187   0.829   1.522   5.321 -0.7400  0.5496 -0.9779
    5MOL   H140 1188   0.896   1.851   5.184  0.6330 -0.0626 -2.0405
    5MOL   H141 1189   0.756   1.743   5.199 -0.3491  0.1499 -3.2488
    5MOL   H142 1190   1.032   1.664   5.087  0.8158 -0.0026 -1.1579
    5MOL   H143 1191   0.876   1.566   5.095  1.2724  0.3672 -1.6439
    5MOL   H144 1192   0.892   1.706   4.992  0.0302  1.6842  1.1677
    5MOL   C145 1193   0.722   1.655   5.462  0.2813 -0.1001  0.1965
    5MOL   C146 1194   0.598   1.564   5.451  0.4260 -0.3686  0.5432
    5MOL   O147 1195   0.535   1.585   5.323  0.0415 -0.3662  0.6886
    5MOL   C148 1196   0.540   1.485   5.222  0.3056  0.1249 -0.6089
    5MOL   C149 1197   0.460   1.528   5.097 -0.5055  0.1364 -0.1102
    5MOL   H150 1198   0.698   1.756   5.425 -0.6011 -0.9829 -1.7453
    5MOL   H151 1199   0.748   1.684   5.564  0.9335  2.5542 -0.6758
    5MOL   H152 1200   0.611   1.459   5.478  0.6869  0.0169  1.9969
    5MOL   H153 1201   0.513   1.393   5.274 -0.6594  0.6916 -0.0920
    5MOL   H154 1202   0.646   1.474   5.197  0.6367 -1.0357  1.1482
    5MOL   H155 1203   0.504   1.620   5.057 -3.0727  1.2843 -0.3593
    5MOL   H156 1204   0.461   1.449   5.022 -1.8099 -0.3920  0.4115
    5MOL   H157 1205   0.353   1.537   5.112 -0.3851  3.0850 -0.6317
    5MOL   C158 1206   0.498   1.613   5.557 -0.0127  0.1088 -0.7302
    5MOL   C159 1207   0.517   1.564   5.698 -0.2582 -0.6709  0.2747
    5MOL   O160 1208   0.439   1.446   5.726  0.0900  0.4477  0.3478
    5MOL   C161 1209   0.482   1.357   5.831  0.2931  0.2059  0.4100
    5MOL   C162 1210   0.395   1.226   5.847 -0.3205 -0.3506 -0.0837
    5MOL   H163 1211   0.396   1.583   5.532 -0.5713  0.2805  1.2459
    5MOL   H164 1212   0.490   1.721   5.544 -0.8363 -0.1282 -2.4603
    5MOL   H165 1213   0.623   1.541   5.710 -0.1131 -0.5704 -0.7247
    5MOL   H166 1214   0.477   1.407   5.928  3.0618  0.2456  0.5560
    5MOL   H167 1215   0.580   1.320   5.802 -0.3134 -0.6692 -0.5791
    5MOL   H168 1216   0.389   1.161   5.760 -0.7622 -1.4382  0.7584
    5MOL   H169 1217   0.442   1.178   5.932  0.4102 -0.3389 -0.4785
    5MOL   H170 1218   0.295   1.262   5.874  0.3161  2.2619 -0.9755
    5MOL   C171 1219   0.480   1.663   5.810  0.3856  0.3063 -0.2027
    5MOL   C172 1220   0.558   1.789   5.815 -0.2421 -0.6127 -0.0764
    5MOL   O173 1221   0.680   1.751   5.869  0.2442  0.7931 -0.4903
    5MOL   C174 1222   0.795   1.821   5.827 -0.4310 -0.5561  0.2348
    5MOL   C175 1223   0.867   1.884   5.948 -0.3077 -0.1028 -0.1313
    5MOL   H176 1224   0.486   1.614   5.907 -0.1285  2.9689  1.2199
    5MOL   H177 1225   0.375   1.684   5.792  1.0843  1.9709 -2.6219
    5MOL   H178 1226   0.580   1.815   5.712 -0.4158  0.6311  0.1803
    5MOL   H179 1227   0.773   1.891   5.746 -2.9963 -1.7792 -0.1697
    5MOL   H180 1228   0.861   1.750   5.779  0.1237 -2.6779  4.0207
    5MOL   H181 1229   0.952   1.931   5.898 -0.0092 -1.1648 -0.6252
    5MOL   H182 1230   0.803   1.961   5.991  0.3362 -0.4472  1.4777
    5MOL   H183 1231   0.896   1.808   6.020  1.3674 -1.3297 -2.0427
    5MOL   C184 1232   0.494   1.898   5.908  0.2564  0.1195  0.6834
    5MOL   C185 1233   0.382   1.976   5.837 -0.5689  0.6839 -0.5516
    5MOL   O186 1234   0.451   2.075   5.762  0.5017  0.2962  0.4913
    5MOL   C187 1235   0.385   2.113   5.642 -0.3529 -0.0481 -0.2340
    5MOL   C188 1236   0.462   2.205   5.550  0.9024  0.5606  0.0714
    5MOL   H189 1237   0.578   1.961   5.937  1.2062  0.3193 -2.3563
    5MOL   H190 1238   0.454   1.851   5.998  0.3929 -0.2316  0.5584
    5MOL   H191 1239   0.320   1.915   5.771 -0.1136 -1.2024  0.7335
    5MOL   H192 1240   0.291   2.162   5.666 -0.3107  0.0547 -0.2758
    5MOL   H193 1241   0.358   2.024   5.586 -0.9329  0.5362 -0.8867
    5MOL   H194 1242   0.546   2.162   5.494 -0.1616  0.7247 -1.6753
    5MOL   H195 1243   0.391   2.237   5.474  1.2114  0.0235 -0.4521
    5MOL   H196 1244   0.499   2.291   5.606 -2.6294  1.3498  1.2994
    5MOL   C197 1245   0.288   2.043   5.935 -0.1626 -0.3001  0.6898
    5MOL   C198 1246   0.135   2.026   5.903 -0.0601 -1.0245  0.2499
    5MOL   O199 1247   0.059   2.117   5.991 -0.1269  0.2500  0.2359
    5MOL   C200 1248   0.034   2.240   5.923  0.5613  0.1743  0.0046
    5MOL   C201 1249   7.803   2.329   6.019 -0.8653 -0.1490  0.1694
    5MOL   H202 1250   0.315   2.149   5.939  2.4870 -0.9555  1.3555
    5MOL   H203 1251   0.313   2.012   6.037 -0.1068  0.4475  0.9065
    5MOL   H204 1252   0.116   2.032   5.795 -0.9248  0.5538  0.4784
    5MOL   H205 1253   7.826   2.230   5.827 -1.2914 -0.7356  1.0801
    5MOL   H206 1254   0.125   2.294   5.895  0.7867 -1.2289 -2.1192
    5MOL   H207 1255   0.030   2.354   6.098 -1.1663 -1.0366  0.7247
    5MOL   H208 1256   7.788   2.429   5.978 -2.2202 -0.5359 -0.2959
    5MOL   H209 1257   7.711   2.295   6.067 -2.7412  2.3033 -1.5808
    5MOL   C210 1258   0.093   1.890   5.949  0.4170  0.2651 -0.5401
    5MOL   C211 1259   7.791   1.853   5.925 -0.0097 -0.1602 -0.5063
    5MOL   O212 1260   7.746   1.737   5.998 -0.6362  0.2069  0.0163
    5MOL   C213 1261   7.761   1.734   6.136  0.9809  0.1516  0.4500
    5MOL   C214 1262   7.641   1.816   6.191 -0.2214  0.0158 -0.4233
    5MOL   H215 1263   0.123   1.886   6.054  2.7974  1.6614 -1.1248
    5MOL   H216 1264   0.163   1.812   5.921  0.3293  0.2067 -0.5968
    5MOL   H217 1265   7.735   1.936   5.970  2.3769  0.1311  2.0792
    5MOL   H218 1266   0.017   1.764   6.169  0.9802  1.6556 -0.9118
    5MOL   H219 1267   7.747   1.631   6.171  0.5098 -0.7101 -2.1187
    5MOL   H220 1268   7.553   1.787   6.132 -1.5537 -0.2993  1.6784
    5MOL   H221 1269   7.611   1.793   6.293  0.9062  1.5993  0.2717
    5MOL   H222 1270   7.646   1.920   6.161 -1.0207  0.7574  1.9315
    5MOL   C223 1271   7.758   1.833   5.772  0.8740  0.3588  0.3604
    5MOL   C224 1272   7.605   1.843   5.739 -0.3771  0.2681  0.2790
    5MOL   O225 1273   7.599   1.825   5.598  0.2612 -0.0634 -0.0743
    5MOL   C226 1274   7.567   1.689   5.572  0.1843  0.1959  0.5037
    5MOL   C227 1275   7.621   1.644   5.431  0.2800  0.4666  0.4718
    5MOL   H228 1276   7.802   1.746   5.723  1.0255  0.1638  0.8386
    5MOL   H229 1277   7.798   1.911   5.706 -1.5655  0.9704 -0.4427
    5MOL   H230 1278   7.547   1.770   5.795 -2.9269  1.6286 -0.5104
    5MOL   H231 1279   7.461   1.669   5.586  0.0344  0.6920  0.0850
    5MOL   H232 1280   7.612   1.636   5.656  1.7059  2.7281  1.3543
    5MOL   H233 1281   7.591   1.540   5.422 -0.2442  0.5458  1.3159
    5MOL   H234 1282   7.586   1.713   5.354 -1.0774  0.5966  1.1926
    5MOL   H235 1283   7.729   1.628   5.433  0.0939 -0.8356  0.3002
    5MOL   C236 1284   7.537   1.977   5.762 -0.6026  0.2206  0.4497
    5MOL   C237 1285   7.447   1.993   5.885 -0.1664 -0.2475  0.3022
    5MOL   O238 1286   7.306   1.991   5.852  0.0297  0.8451  0.5666
    5MOL   C239 1287   7.264   1.859   5.846  0.4895 -0.0509 -0.2273
    5MOL   C240 1288   7.114   1.852   5.809 -0.0382  0.2145  0.1627
    5MOL   H241 1289   7.478   2.006   5.675  0.6269 -0.6316 -0.6893
    5MOL   H242 1290   7.613   2.054   5.768 -0.4547 -0.0479  2.0504
    5MOL   H243 1291   7.476   1.911   5.951  1.6706 -1.3455 -1.8106
    5MOL   H244 1292   7.281   1.797   5.934  2.2199 -0.2771 -0.7058
    5MOL   H245 1293   7.325   1.803   5.776  2.3740  1.0174  0.5330
    5MOL   H246 1294   7.078   1.750   5.792 -1.0485  0.7633 -1.0503
    5MOL   H247 1295   7.041   1.896   5.877  1.1540  2.8023 -0.2035
    5MOL   H248 1296   7.078   1.902   5.719 -0.2635  0.6445  0.4879
    5MOL   C249 1297   7.461   2.125   5.965  0.0035  0.1568  0.5817
    5MOL   C250 1298   7.375   2.126   6.098 -0.1026 -0.3041 -0.0678
    5MOL   O251 1299   7.410   2.228   6.194 -0.0150 -0.8116 -0.2427
    5MOL   C252 1300   7.298   2.285   6.259 -0.5186  1.0749 -0.2067
    5MOL   C253 1301   7.348   2.348   6.389  0.2532 -0.2462  0.0167
    5MOL   H254 1302   7.410   2.200   5.905  2.0747 -0.6082 -2.2397
    5MOL   H255 1303   7.564   2.154   5.985 -0.0768  1.0208 -0.2100
    5MOL   H256 1304   7.269   2.129   6.075 -0.1452 -0.2007  0.1479
    5MOL   H257 1305   7.213   2.220   6.280 -1.4382  0.9898 -3.8015
    5MOL   H258 1306   7.258   2.371   6.204 -0.3111  1.8213  0.7811
    5MOL   H259 1307   7.414   2.432   6.369  1.6866 -0.9152  1.8287
    5MOL   H260 1308   7.275   2.396   6.454  0.1703  0.0778 -0.3164
    5MOL   H261 1309   7.405   2.273   6.445  2.0106  1.5256  0.6326
    5MOL   H262 1310   7.389   2.027   6.142  2.1945  0.7933  1.8232
    6MOL     C1 1311   4.122   1.251   1.165 -0.7285 -0.0628  0.0853
    6MOL     C2 1312   4.178   1.352   1.262 -0.1361  0.0667  0.5178
    6MOL     O3 1313   4.090   1.374   1.372  0.3003  0.6527 -0.1944
    6MOL     C4 1314   4.119   1.286   1.483  0.4303 -0.9029 -0.4053
    6MOL     C5 1315   4.042   1.344   1.599  0.3865 -0.4450 -1.0977
    6MOL     H6 1316   4.186   1.239   1.078 -0.3544  1.9372  0.0567
    6MOL     H7 1317   4.123   1.157   1.221  0.5552  0.3784  0.8217
    6MOL     H8 1318   4.280   1.319   1.283 -0.5866 -1.0364  0.9837
    6MOL     H9 1319   4.227   1.289   1.502  0.3244  1.2528  0.0130
    6MOL    H10 1320   4.082   1.184   1.470 -0.3854 -0.8665  1.5559
    6MOL    H11 1321   3.933   1.339   1.600  0.4559 -2.0659  0.6462
    6MOL    H12 1322   4.080   1.305   1.694  0.1274  0.2682 -0.6971
    6MOL    H13 1323   4.069   1.449   1.616  0.6609 -0.8646  1.2883
    6MOL    H14 1324   4.022   1.285   1.137 -0.4955 -0.1105 -0.8022
    6MOL    C15 1325   4.175   1.492   1.192 -0.3869 -0.6439  0.5689
    6MOL    C16 1326   4.310   1.523   1.119  0.2661  0.4687 -0.1341
    6MOL    O17 1327   4.425   1.515   1.207 -0.3111 -0.4069  0.9282
    6MOL    C18 1328   4.530   1.439   1.151  0.1985  0.1388  0.2055
    6MOL    C19 1329   4.641   1.414   1.259  0.7584 -0.1087  0.0941
    6MOL    H20 1330   4.164   1.574   1.262 -0.0172  2.0662 -2.4578
    6MOL    H21 1331   4.090   1.497   1.124  1.3815  0.4245 -1.6402
    6MOL    H22 1332   4.318   1.451   1.038 -2.1824  2.0536 -1.8552
    6MOL    H23 1333   4.560   1.498   1.064  2.2712 -2.3267 -0.8193
    6MOL    H24 1334   4.477   1.351   1.116 -0.5342  1.4191 -2.0205
    6MOL    H25 1335   4.726   1.356   1.222 -0.0397 -0.2931 -1.4913
    6MOL    H26 1336   4.599   1.351   1.338 -0.5191  0.6395  0.0288
    6MOL    H27 1337   4.671   1.510   1.300  3.1339 -0.2726 -1.1810
    6MOL    C28 1338   4.309   1.657   1.042 -0.3708  0.2508 -0.0123
    6MOL    C29 1339   4.210   1.681   0.929 -0.2886 -0.0193 -0.3019
    6MOL    O30 1340   4.245   1.584   0.837  0.0973 -0.0273 -0.5212
    6MOL    C31 1341   4.132   1.524   0.766  0.4755 -0.4009 -0.0380
    6MOL    C32 1342   4.073   1.398   0.845  0.0519 -0.0974  0.7870
    6MOL    H33 1343   4.406   1.669   0.995 -0.8878 -2.2514 -1.8442
    6MOL    H34 1344   4.304   1.727   1.126 -0.2986 -0.5633  0.6713
    6MOL    H35 1345   4.104   1.670   0.955  0.0900  1.2550  1.9121
    6MOL    H36 1346   4.163   1.488   0.668  0.6013  0.9461 -0.5101
    6MOL    H37 1347   4.049   1.592   0.749  1.3012  0.2240 -1.7363
    6MOL    H38 1348   4.018   1.341   0.771  1.3607 -0.7542  0.3052
    6MOL    H39 1349   4.164   1.342   0.871  0.7579  0.7560  0.1939
    6MOL    H40 1350   4.024   1.422   0.940 -1.1936 -0.9809  0.3767
    6MOL    C41 1351   4.228   1.803   0.851 -0.2925 -0.7193 -0.1995
    6MOL    C42 1352   4.268   1.926   0.935 -0.6805  0.1650 -0.6394
    6MOL    O43 1353   4.189   1.940   1.056  0.4080 -0.5914  0.7777
    6MOL    C44 1354   4.054   1.972   1.050  0.3989  0.2011  0.7632
    6MOL    C45 1355   4.005   2.008   1.193  0.3444 -0.5063  0.4254
    6MOL    H46 1356   4.141   1.816   0.786 -0.4962  3.6691  0.8291
    6MOL    H47 1357   4.309   1.786   0.780  0.5744 -0.1522  0.6394
    6MOL    H48 1358   4.366   1.908   0.978 -0.5336  0.3542 -0.8915
    6MOL    H49 1359   4.002   1.886   1.008 -0.3180  0.7931  0.4276
    6MOL    H50 1360   4.044   2.056   0.982 -3.0632 -0.7789  0.0073
    6MOL    H51 1361   4.079   2.075   1.236  0.0225  1.3942 -1.8995
    6MOL    H52 1362   3.913   2.066   1.193 -0.5416 -1.8872 -0.1580
    6MOL    H53 1363   3.987   1.916   1.249  0.9861 -1.7096 -1.2896
    6MOL    C54 1364   4.274   2.059   0.846  0.0595  0.1602  0.8027
    6MOL    C55 1365   4.386   2.080   0.746  0.2397  1.0002 -0.5223
    6MOL    O56 1366   4.490   1.993   0.777 -0.6989 -0.5105  0.0583
    6MOL    C57 1367   4.552   1.938   0.661  0.3420  0.1711  0.1126
    6MOL    C58 1368   4.659   1.839   0.701 -0.3281  0.0863 -0.2594
    6MOL    H59 1369   4.263   2.147   0.910 -0.6602 -0.2774  1.2752
    6MOL    H60 1370   4.182   2.076   0.790  0.1341 -0.2063  0.5708
    6MOL    H61 1371   4.343   2.071   0.646  1.0685  3.4449 -1.1394
    6MOL    H62 1372   4.591   2.013   0.593  1.1763 -0.3788 -0.0194
    6MOL    H63 1373   4.475   1.881   0.609  0.5381 -0.0229  0.0361
    6MOL    H64 1374   4.754   1.876   0.740 -0.7982 -1.6589  2.6799
    6MOL    H65 1375   4.618   1.771   0.776 -1.2677  0.4802 -0.4105
    6MOL    H66 1376   4.680   1.773   0.617  1.0947  0.9850 -0.6176
    6MOL    C67 1377   4.450   2.218   0.769  0.9876  0.0437  0.3081
    6MOL    C68 1378   4.362   2.338   0.719  0.3044  0.3950 -0.0904
    6MOL    O69 1379   4.332   2.334   0.586 -0.7548 -0.2944  0.3387
    6MOL    C70 1380   4.207   2.373   0.540  0.7819 -0.1411  0.2675
    6MOL    C71 1381   4.196   2.357   0.391  0.2816  0.3974 -0.1891
    6MOL    H72 1382   4.539   2.229   0.707 -1.1614  2.1884 -2.5281
    6MOL    H73 1383   4.473   2.228   0.875  0.9621 -0.4692  0.3638
    6MOL    H74 1384   4.261   2.323   0.757 -0.3225  1.3598 -1.3360
    6MOL    H75 1385   4.181   2.474   0.571  2.3228  0.4575 -0.3248
    6MOL    H76 1386   4.135   2.310   0.591  1.3439 -0.8075  0.2496
    6MOL    H77 1387   4.258   2.423   0.330  0.0770  1.7596  1.0763
    6MOL    H78 1388   4.226   2.256   0.361  1.8200  0.8375 -0.2010
    6MOL    H79 1389   4.096   2.382   0.355 -0.4170  0.9349  2.0676
    6MOL    C80 1390   4.414   2.479   0.753 -0.0970  0.6220  0.3411
    6MOL    C81 1391   4.356   2.539   0.881  0.4517  0.0557  0.1585
    6MOL    O82 1392   4.211   2.540   0.880 -0.0420 -0.3988  0.8561
    6MOL    C83 1393   4.150   2.547   1.009 -0.6073  0.3875 -0.2833
    6MOL    C84 1394   4.142   2.416   1.088 -0.9685  0.0200 -0.5743
    6MOL    H85 1395   4.389   2.542   0.667  2.2501  1.5126  0.2688
    6MOL    H86 1396   4.522   2.464   0.761 -0.4086 -1.9148  0.1551
    6MOL    H87 1397   4.389   2.475   0.963  0.0899  1.0621  1.0995
    6MOL    H88 1398   4.048   2.581   0.989 -0.1439  1.7284 -0.4176
    6MOL    H89 1399   4.199   2.631   1.059 -1.8170  1.2572 -0.5418
    6MOL    H90 1400   4.064   2.424   1.164  0.7747 -0.3553  1.2950
    6MOL    H91 1401   4.109   2.327   1.034  1.1281 -0.7438 -0.6425
    6MOL    H92 1402   4.237   2.406   1.139 -0.6862 -1.3465 -1.3472
    6MOL    C93 1403   4.416   2.683   0.891 -0.0583 -0.0052  0.2978
    6MOL    C94 1404   4.542   2.694   0.974  0.2657 -0.6597 -0.4976
    6MOL    O95 1405   4.512   2.695   1.116 -0.3047 -0.6176  0.0794
    6MOL    C96 1406   4.558   2.589   1.195  0.0885  0.1823  0.2623
    6MOL    C97 1407   4.708   2.578   1.217 -0.3545 -0.2016 -0.3678
    6MOL    H98 1408   4.344   2.761   0.913  0.3435  1.1188 -2.1827
    6MOL    H99 1409   4.433   2.717   0.789  0.4656 -2.3494 -0.4336
    6MOL   H100 1410   4.613   2.614   0.954  2.9146  1.3513  0.5275
    6MOL   H101 1411   4.516   2.497   1.154  0.7403  0.8995 -2.1059
    6MOL   H102 1412   4.526   2.597   1.299  3.6666 -0.1126  1.4379
    6MOL   H103 1413   4.748   2.672   1.255  1.3130 -0.0473 -2.3955
    6MOL   H104 1414   4.707   2.492   1.285 -0.2970 -0.8981 -1.2461
    6MOL   H105 1415   4.784   2.555   1.142 -0.6843  1.1145 -1.1141
    6MOL   C106 1416   4.624   2.819   0.962  0.1552  0.1776 -0.1603
    6MOL   C107 1417   4.558   2.952   1.010 -0.2010  0.3777  0.9479
    6MOL   O108 1418   4.579   3.033   0.896  0.3483  0.7777 -0.0422
    6MOL   C109 1419   4.480   3.031   0.796  0.0331 -0.3735  0.6074
    6MOL   C110 1420   4.530   3.118   0.678  0.1997 -0.2299  0.2167
    6MOL   H111 1421   4.663   2.838   0.861  1.5226  1.3900  0.5736
    6MOL   H112 1422   4.711   2.801   1.024 -0.9326  1.7160  1.8615
    6MOL   H113 1423   4.453   2.931   1.027 -0.4548  0.5719 -0.3942
    6MOL   H114 1424   4.379   3.063   0.821  0.4873  0.8746  0.9055
    6MOL   H115 1425   4.467   2.930   0.757  0.5906  0.0435 -0.6941
    6MOL   H116 1426   4.634   3.089   0.666  0.8142  2.2925 -0.8712
    6MOL   H117 1427   4.472   3.094   0.589  0.4030 -2.0355  0.5491
    6MOL   H118 1428   4.537   3.224   0.701  1.6876 -0.3236  0.2334
    6MOL   C119 1429   4.626   3.013   1.127  0.3910  0.3665 -0.2214
    6MOL   C120 1430   4.549   3.134   1.184 -0.7355  0.3661  0.2280
    6MOL   O121 1431   4.617   3.182   1.298  0.1806 -0.3711  1.0053
    6MOL   C122 1432   4.732   3.261   1.278 -0.9577 -0.3379 -0.2482
    6MOL   C123 1433   4.812   3.280   1.407 -0.3835  0.1271  0.1546
    6MOL   H124 1434   4.733   3.016   1.110  0.7431 -1.7489  1.3947
    6MOL   H125 1435   4.626   2.928   1.195  0.5878  0.0312 -0.6461
    6MOL   H126 1436   4.544   3.221   1.118  0.2204  0.3717  0.1571
    6MOL   H127 1437   4.716   3.361   1.237 -0.3713  0.6008  1.7445
    6MOL   H128 1438   4.799   3.221   1.203 -3.6907 -0.1945 -2.8863
    6MOL   H129 1439   4.848   3.183   1.438  0.2522 -0.3011 -1.8283
    6MOL   H130 1440   4.897   3.349   1.404  2.4563 -3.1917  1.1953
    6MOL   H131 1441   4.755   3.320   1.491  1.7730  2.9422  0.3874
    6MOL   C132 1442   4.411   3.099   1.238 -0.7852 -0.9393 -0.2894
    6MOL   C133 1443   4.345   3.195   1.334  0.3329  0.2303  0.1071
    6MOL   O134 1444   4.231   3.133   1.390  0.0106  0.1572  0.1147
    6MOL   C135 1445   4.260   3.045   1.497 -0.5735 -0.0298 -0.7153
    6MOL   C136 1446   4.185   2.911   1.463 -0.1976 -0.2639  0.0836
    6MOL   H137 1447   4.421   3.008   1.297 -0.0336 -2.2740 -2.4263
    6MOL   H138 1448   4.336   3.068   1.165 -1.8275  3.0387 -1.0141
    6MOL   H139 1449   4.423   3.223   1.405  1.1593  0.9410 -1.0505
    6MOL   H140 1450   4.225   3.083   1.592  0.3992  0.7093 -0.6501
    6MOL   H141 1451   4.366   3.026   1.512 -0.4319  1.6040  0.3098
    6MOL   H142 1452   4.077   2.929   1.457  0.2198  3.7239  2.8635
    6MOL   H143 1453   4.231   2.875   1.370  1.0176  2.1571 -0.2850
    6MOL   H144 1454   4.208   2.847   1.548 -2.5220 -1.9497 -0.5097
    6MOL   C145 1455   4.306   3.327   1.263 -0.5221  0.8375  0.4362
    6MOL   C146 1456   4.197   3.416   1.333 -0.7561 -0.0784  0.8735
    6MOL   O147 1457   4.152   3.522   1.250  0.3521 -0.8013 -0.2618
    6MOL   C148 1458   4.044   3.495   1.160 -0.1722 -0.0143  0.2133
    6MOL   C149 1459   3.991   3.633   1.134 -0.2396  0.6785  0.4707
    6MOL   H150 1460   4.278   3.311   1.159 -2.1132 -0.6072  1.0575
    6MOL   H151 1461   4.394   3.386   1.238  0.2722 -1.6289 -2.8741
    6MOL   H152 1462   4.118   3.343   1.350 -0.4194 -1.2344 -2.2104
    6MOL   H153 1463   3.970   3.433   1.211  1.7538 -1.2154  1.6530
    6MOL   H154 1464   4.078   3.438   1.073 -0.4974  1.1497 -0.6818
    6MOL   H155 1465   3.904   3.633   1.069 -0.8479 -2.8459  1.1920
    6MOL   H156 1466   3.989   3.698   1.222 -1.7391 -0.6506  1.4378
    6MOL   H157 1467   4.063   3.686   1.071  0.9009 -0.3489  0.8911
    6MOL   C158 1468   4.251   3.477   1.460 -0.0833  0.1178  0.4850
    6MOL   C159 1469   4.150   3.494   1.580  0.0460 -0.4096 -0.0605
    6MOL   O160 1470   4.234   3.550   1.683  0.3861  0.1784 -0.0401
    6MOL   C161 1471   4.164   3.630   1.783 -0.2403  0.1625  0.2603
    6MOL   C162 1472   4.120   3.767   1.727 -0.7909  0.4199  0.3809
    6MOL   H163 1473   4.275   3.582   1.445 -2.9754  0.6305 -0.9286
    6MOL   H164 1474   4.344   3.433   1.496  1.7924  2.5991 -1.1916
    6MOL   H165 1475   4.078   3.569   1.549  1.0958  0.2054 -1.0691
    6MOL   H166 1476   4.239   3.651   1.859 -0.7605 -1.3352  1.2221
    6MOL   H167 1477   4.076   3.579   1.822  0.0478 -0.2956  0.3202
    6MOL   H168 1478   4.081   3.838   1.799  0.3753 -0.3424  1.7907
    6MOL   H169 1479   4.200   3.818   1.675 -1.1321  0.2429 -0.3249
    6MOL   H170 1480   4.041   3.750   1.654 -1.2328  2.0970  0.4577
    6MOL   C171 1481   4.079   3.368   1.637 -0.0085 -0.9208 -0.0768
    6MOL   C172 1482   3.941   3.337   1.579  0.2196  0.0276  0.2306
    6MOL   O173 1483   3.835   3.407   1.645 -0.9679 -0.3105  0.6135
    6MOL   C174 1484   3.788   3.533   1.603  0.6655 -0.3332 -0.3470
    6MOL   C175 1485   3.677   3.589   1.691  0.2017 -0.6604  0.0496
    6MOL   H176 1486   4.070   3.363   1.746  2.0176 -1.8450  0.0852
    6MOL   H177 1487   4.155   3.292   1.620  0.9019  0.0948 -0.6048
    6MOL   H178 1488   3.950   3.371   1.475  1.6561  1.0920  0.6897
    6MOL   H179 1489   3.749   3.526   1.502 -0.9091  1.3581  0.1139
    6MOL   H180 1490   3.871   3.603   1.609  1.1365 -0.8586 -0.6492
    6MOL   H181 1491   3.650   3.693   1.672 -1.7205 -0.6528  2.4921
    6MOL   H182 1492   3.585   3.531   1.699 -0.6916  0.9077  1.4632
    6MOL   H183 1493   3.717   3.588   1.793 -0.5371  0.1130  0.3547
    6MOL   C184 1494   3.909   3.187   1.586 -0.0239 -0.5561  0.3821
    6MOL   C185 1495   3.808   3.135   1.493 -0.1064 -0.4725 -0.8167
    6MOL   O186 1496   3.785   2.997   1.520 -0.1677 -0.2065  0.5368
    6MOL   C187 1497   3.670   2.984   1.605 -0.2989 -0.3253 -0.3365
    6MOL   C188 1498   3.642   2.836   1.629 -0.3937  0.1630  0.1189
    6MOL   H189 1499   3.872   3.165   1.686  1.5841 -2.2300  0.6313
    6MOL   H190 1500   3.988   3.112   1.576  1.4667  1.0729 -0.3089
    6MOL   H191 1501   3.717   3.195   1.501  1.2455  1.7624 -1.6750
    6MOL   H192 1502   3.581   3.024   1.556  0.1308 -0.8766 -1.5651
    6MOL   H193 1503   3.686   3.034   1.700  0.7934  1.2861 -1.3602
    6MOL   H194 1504   3.654   2.770   1.543 -1.0539  1.1197 -0.7306
    6MOL   H195 1505   3.714   2.801   1.702  0.3204  0.0238 -0.6480
    6MOL   H196 1506   3.540   2.826   1.668 -0.3068 -0.9684  0.0593
    6MOL   C197 1507   3.871   3.146   1.345  0.1669  0.2854  0.3273
    6MOL   C198 1508   3.775   3.125   1.231 -0.4521 -0.0015  0.0671
    6MOL   O199 1509   3.677   3.221   1.250  0.0104 -0.4703 -0.0679
    6MOL   C200 1510   3.661   3.307   1.139  0.0297 -0.4296 -0.1519
    6MOL   C201 1511   3.571   3.423   1.178 -0.2574  0.1037  0.3146
    6MOL   H202 1512   3.958   3.082   1.334 -2.1235 -2.7342 -0.9441
    6MOL   H203 1513   3.923   3.241   1.329  0.2212  0.0274 -1.0895
    6MOL   H204 1514   3.838   3.146   1.145  1.1083  1.9158  1.6253
    6MOL   H205 1515   3.628   3.248   1.054  0.4331 -2.4902  1.1058
    6MOL   H206 1516   3.757   3.345   1.104  0.7762 -1.6374  0.5880
    6MOL   H207 1517   3.472   3.390   1.208 -1.0413 -0.2602 -2.5044
    6MOL   H208 1518   3.595   3.486   1.264 -0.1637 -1.1960  1.2576
    6MOL   H209 1519   3.570   3.481   1.086  1.0113  0.5963  0.6008
    6MOL   C210 1520   3.705   2.987   1.220 -0.8855  0.2101  0.4528
    6MOL   C211 1521   3.805   2.868   1.204 -0.3178 -0.2057 -0.5986
    6MOL   O212 1522   3.869   2.869   1.079  0.6243 -0.3368  0.1289
    6MOL   C213 1523   4.009   2.904   1.087  0.0403 -0.1246  0.0140
    6MOL   C214 1524   4.060   2.910   0.940 -0.0491 -0.2810  0.1982
    6MOL   H215 1525   3.636   2.975   1.136  1.0368  0.4050 -1.1761
    6MOL   H216 1526   3.647   2.975   1.312  0.0245  0.4039  1.0645
    6MOL   H217 1527   3.880   2.862   1.283  0.9210  2.0188 -1.5721
    6MOL   H218 1528   4.057   2.848   1.167 -0.3866 -1.3512 -0.5745
    6MOL   H219 1529   4.026   3.008   1.117  1.4835 -1.0088  2.4566
    6MOL   H220 1530   4.036   3.010   0.902 -2.3864 -0.7106  0.4636
    6MOL   H221 1531   4.165   2.885   0.928  0.3863  1.3189  0.4937
    6MOL   H222 1532   4.008   2.838   0.877 -1.0150 -1.6742  2.5224
    6MOL   C223 1533   3.728   2.731   1.210  0.2330 -0.5317  0.1648
    6MOL   C224 1534   3.804   2.606   1.250 -0.2717 -0.4562  1.1120
    6MOL   O225 1535   3.720   2.488   1.223  0.2904  0.6832  0.0169
    6MOL   C226 1536   3.764   2.423   1.097  0.0456 -0.7693  0.2771
    6MOL   C227 1537   3.683   2.297   1.073  0.0483  0.0029 -0.1759
    6MOL   H228 1538   3.683   2.712   1.112 -0.5668 -2.5529  0.9016
    6MOL   H229 1539   3.638   2.744   1.270  0.3158  0.2168  0.1349
    6MOL   H230 1540   3.891   2.614   1.184 -0.5452  1.6199  0.9692
    6MOL   H231 1541   3.872   2.408   1.091  0.4315  2.1247 -0.9624
    6MOL   H232 1542   3.731   2.488   1.016  0.1842 -0.3166  0.5817
    6MOL   H233 1543   3.730   2.230   1.002  1.3962  2.5695 -1.7928
    6MOL   H234 1544   3.689   2.247   1.170 -0.7274  0.5369  0.1582
    6MOL   H235 1545   3.576   2.306   1.055  0.1674  0.2215 -0.7862
    6MOL   C236 1546   3.833   2.600   1.395 -0.3833  0.1726  0.1813
    6MOL   C237 1547   3.937   2.498   1.438 -0.1625 -0.0779 -0.8639
    6MOL   O238 1548   4.057   2.548   1.389  0.1277  0.8847  0.3648
    6MOL   C239 1549   4.171   2.498   1.459  0.0939 -0.3114  0.4709
    6MOL   C240 1550   4.300   2.562   1.405 -0.2564  0.1475 -0.2216
    6MOL   H241 1551   3.742   2.584   1.453 -1.3241  0.7103 -1.0931
    6MOL   H242 1552   3.868   2.699   1.424 -0.7233  0.4132 -0.2206
    6MOL   H243 1553   3.944   2.514   1.546  1.3740  0.1811 -1.0010
    6MOL   H244 1554   4.171   2.390   1.442 -2.4734 -0.6560  2.4276
    6MOL   H245 1555   4.160   2.519   1.565  0.5672 -0.6022  0.5822
    6MOL   H246 1556   4.381   2.529   1.470 -1.8715  0.1332  1.8562
    6MOL   H247 1557   4.314   2.537   1.300  1.3153  3.2467 -0.8054
    6MOL   H248 1558   4.304   2.671   1.407  2.0472  0.0798  2.5089
    6MOL   C249 1559   3.904   2.349   1.420  0.1492  0.2147 -0.5829
    6MOL   C250 1560   3.787   2.299   1.506 -0.0548  0.6651 -0.5044
    6MOL   O251 1561   3.806   2.306   1.646 -0.3873 -0.0004 -0.5943
    6MOL   C252 1562   3.907   2.225   1.699  0.2385  0.3380  0.0899
    6MOL   C253 1563   3.970   2.290   1.820  0.4239 -0.4939  0.0885
    6MOL   H254 1564   3.988   2.283   1.443 -0.5709  0.3916  2.7577
    6MOL   H255 1565   3.878   2.338   1.315  0.6287 -1.2182 -0.5691
    6MOL   H256 1566   3.702   2.365   1.491 -0.0898  1.3761  2.4177
    6MOL   H257 1567   3.988   2.210   1.628 -0.6904  1.7855 -1.2844
    6MOL   H258 1568   3.872   2.125   1.724 -2.2784  0.5642 -2.4137
    6MOL   H259 1569   4.023   2.375   1.777 -1.0008 -0.6308 -2.0571
    6MOL   H260 1570   3.896   2.326   1.890  1.2835  2.3917 -0.4207
    6MOL   H261 1571   4.052   2.238   1.869  1.8535  1.1675 -0.4845
    6MOL   H262 1572   3.750   2.204   1.467  1.0634 -0.4575  1.0811
    7MOL     C1 1573   6.560   3.958   5.693 -0.1665  0.1590 -0.0102
    7MOL     C2 1574   6.707   3.977   5.711  0.0836 -0.1129 -0.4682
    7MOL     O3 1575   6.742   3.870   5.629  0.1451 -0.0782  0.7357
    7MOL     C4 1576   6.887   3.854   5.601 -0.0651 -0.5261 -0.4132
    7MOL     C5 1577   6.911   3.737   5.510 -0.4799 -0.0908  0.4007
    7MOL     H6 1578   6.531   3.971   5.589  1.0872  0.3082 -0.3557
    7MOL     H7 1579   6.527   3.857   5.716  2.1447 -0.7947 -0.6452
    7MOL     H8 1580   6.741   4.067   5.661 -0.5939  1.2976  1.5544
    7MOL     H9 1581   6.925   3.824   5.699  0.5590 -0.5657 -0.6629
    7MOL    H10 1582   6.938   3.946   5.571  0.8273 -0.5842  0.8706
    7MOL    H11 1583   7.015   3.705   5.511 -0.6801 -0.8122 -0.6317
    7MOL    H12 1584   6.876   3.643   5.552 -1.3991  0.6483  1.3186
    7MOL    H13 1585   6.863   3.755   5.413  0.3384  0.4177  0.0868
    7MOL    H14 1586   6.500   4.037   5.738  2.8924  1.1939  2.5139
    7MOL    C15 1587   6.752   3.974   5.846  0.4321  0.4122 -0.4298
    7MOL    C16 1588   6.701   4.090   5.939 -0.7462 -0.3556  0.3530
    7MOL    O17 1589   6.805   4.186   5.936  0.0850 -0.1313  0.1236
    7MOL    C18 1590   6.768   4.321   5.947  0.3067 -0.7237  0.0807
    7MOL    C19 1591   6.885   4.418   5.963  0.6810  0.6888 -0.7578
    7MOL    H20 1592   6.861   3.975   5.844  0.4367  0.0746 -0.2820
    7MOL    H21 1593   6.719   3.875   5.877 -0.9492  0.6802 -1.0088
    7MOL    H22 1594   6.610   4.141   5.910  0.1822  0.1791 -1.7439
    7MOL    H23 1595   6.697   4.329   6.030 -0.5950 -0.2316 -0.7192
    7MOL    H24 1596   6.715   4.354   5.858 -1.2470 -1.2573  0.7754
    7MOL    H25 1597   6.847   4.517   5.938 -2.8013 -0.0119  1.4461
    7MOL    H26 1598   6.969   4.390   5.899  0.9009 -2.0905  0.6809
    7MOL    H27 1599   6.936   4.419   6.059 -0.6616 -0.4313 -0.0268
    7MOL    C28 1600   6.666   4.036   6.077  0.4008 -0.6328  0.1490
    7MOL    C29 1601   6.780   3.968   6.154  0.8798  0.0471 -0.0549
    7MOL    O30 1602   6.828   3.851   6.090  0.0465  0.2819 -0.8643
    7MOL    C31 1603   6.968   3.835   6.066  0.6129  0.0055  0.6067
    7MOL    C32 1604   6.993   3.700   6.002 -0.5637  0.9694  0.9490
    7MOL    H33 1605   6.580   3.971   6.061  0.9465 -1.4508  0.5218
    7MOL    H34 1606   6.621   4.114   6.138  3.1308  1.6669 -0.6613
    7MOL    H35 1607   6.855   4.047   6.159  0.4483  0.3755  1.5761
    7MOL    H36 1608   7.019   3.834   6.162  1.6699 -1.4914  0.0534
    7MOL    H37 1609   7.009   3.913   6.001  2.1871 -0.4023  1.0887
    7MOL    H38 1610   6.962   3.621   6.071 -0.2514  1.0733  1.2140
    7MOL    H39 1611   6.929   3.686   5.915  0.2415  2.0278  0.1702
    7MOL    H40 1612   7.094   3.679   5.965 -1.1063  0.4216 -0.2588
    7MOL    C41 1613   6.747   3.933   6.296  0.1491  0.1071 -0.0598
    7MOL    C42 1614   6.727   4.041   6.406 -0.1199 -0.2488 -0.5515
    7MOL    O43 1615   6.598   4.103   6.403  0.3182  0.1396 -0.0761
    7MOL    C44 1616   6.552   4.177   6.509 -0.3450 -0.3476 -0.9618
    7MOL    C45 1617   6.486   4.304   6.459  0.1033 -0.4475 -0.5882
    7MOL    H46 1618   6.835   3.881   6.333 -0.4230  0.1995  1.4476
    7MOL    H47 1619   6.663   3.865   6.307  0.3864 -0.4133 -1.3763
    7MOL    H48 1620   6.730   3.985   6.499 -0.7648  0.7451  0.0764
    7MOL    H49 1621   6.626   4.190   6.588  0.2452  0.4469 -1.6268
    7MOL    H50 1622   6.467   4.129   6.556  0.9101 -2.4331 -0.7338
    7MOL    H51 1623   6.426   4.296   6.369  2.1172 -0.2518 -1.9740
    7MOL    H52 1624   6.423   4.333   6.543 -0.0159 -0.1989 -0.7635
    7MOL    H53 1625   6.551   4.388   6.437  0.6233 -1.0366 -1.3185
    7MOL    C54 1626   6.842   4.145   6.397  0.4756 -0.1727  0.1090
    7MOL    C55 1627   6.980   4.091   6.420  0.3209  0.1981 -0.2655
    7MOL    O56 1628   6.980   4.032   6.549 -0.2915  0.2156 -0.2740
    7MOL    C57 1629   7.069   3.926   6.560 -0.7259  0.3906  0.7957
    7MOL    C58 1630   7.048   3.866   6.706 -0.0108  0.4919 -0.7095
    7MOL    H59 1631   6.827   4.226   6.469 -1.5541  0.9059 -1.4841
    7MOL    H60 1632   6.832   4.213   6.313 -0.0385  1.7833  1.7025
    7MOL    H61 1633   7.006   4.020   6.341  2.3699  1.2987 -0.6175
    7MOL    H62 1634   7.173   3.958   6.551 -0.1183 -1.8988 -0.7717
    7MOL    H63 1635   7.044   3.851   6.485  1.4271 -0.4471  0.8703
    7MOL    H64 1636   7.105   3.775   6.718 -1.5791 -0.6407 -1.5865
    7MOL    H65 1637   7.083   3.943   6.775 -1.3506  0.6653 -0.2013
    7MOL    H66 1638   6.950   3.836   6.744  0.5786 -0.8134 -0.2301
    7MOL    C67 1639   7.095   4.211   6.417 -0.3016 -0.3854  0.0190
    7MOL    C68 1640   7.110   4.291   6.284 -0.3901 -0.6729 -0.0864
    7MOL    O69 1641   7.202   4.224   6.193 -0.8300  0.1454 -0.3651
    7MOL    C70 1642   7.130   4.154   6.087 -0.0302  0.6515 -0.1084
    7MOL    C71 1643   7.225   4.109   5.976  0.2906 -0.9898 -0.4209
    7MOL    H72 1644   7.192   4.173   6.449 -1.1852 -0.9785  2.0711
    7MOL    H73 1645   7.060   4.277   6.497  1.7070  0.2798  0.3927
    7MOL    H74 1646   7.010   4.308   6.244 -0.6986 -0.1244  0.9038
    7MOL    H75 1647   7.049   4.210   6.040  0.9975  2.3260  0.0664
    7MOL    H76 1648   7.093   4.061   6.131  1.3782 -0.7775 -1.8429
    7MOL    H77 1649   7.306   4.057   6.027 -0.2479 -1.4196  0.0129
    7MOL    H78 1650   7.175   4.039   5.909 -0.0168 -2.5539  1.3780
    7MOL    H79 1651   7.251   4.196   5.917 -2.4302  0.4820  0.4725
    7MOL    C80 1652   7.161   4.433   6.297 -0.5575 -0.4869 -0.0684
    7MOL    C81 1653   7.293   4.449   6.388  0.4455  0.0429  0.2567
    7MOL    O82 1654   7.258   4.416   6.524  0.2934  0.5891 -0.1751
    7MOL    C83 1655   7.356   4.346   6.602  0.8509 -0.6308  0.1937
    7MOL    C84 1656   7.295   4.302   6.739  1.0215  0.4415  0.4996
    7MOL    H85 1657   7.082   4.488   6.347 -0.5471 -1.0200  0.5319
    7MOL    H86 1658   7.176   4.477   6.198 -0.5622 -0.0435  0.1252
    7MOL    H87 1659   7.361   4.369   6.359 -1.0721 -0.5974 -1.6795
    7MOL    H88 1660   7.448   4.399   6.629  0.5972 -0.4206  0.6505
    7MOL    H89 1661   7.388   4.255   6.552 -0.9589 -1.4874  0.5677
    7MOL    H90 1662   7.251   4.389   6.788  2.5107  2.0613 -1.0045
    7MOL    H91 1663   7.227   4.217   6.739 -0.3220  1.4939  0.8857
    7MOL    H92 1664   7.386   4.275   6.793  1.3666  0.0984 -0.2482
    7MOL    C93 1665   7.365   4.582   6.371 -0.0023  0.5993  0.7562
    7MOL    C94 1666   7.432   4.610   6.231 -0.1461  0.9577 -0.7348
    7MOL    O95 1667   7.553   4.532   6.227  0.4546  0.2611 -0.1410
    7MOL    C96 1668   7.589   4.485   6.095 -0.0780  0.1994 -0.7902
    7MOL    C97 1669   7.735   4.448   6.089  0.0488  0.4477 -0.0820
    7MOL    H98 1670   7.434   4.591   6.455 -0.4155 -0.3958  1.2078
    7MOL    H99 1671   7.302   4.669   6.391 -0.6907  0.0749  0.8998
    7MOL   H100 1672   7.368   4.570   6.152 -1.9455  1.8834  0.2347
    7MOL   H101 1673   7.556   4.548   6.013 -1.0713 -0.1641 -0.6786
    7MOL   H102 1674   7.532   4.393   6.080 -0.8445  0.7067 -1.0178
    7MOL   H103 1675   7.740   4.397   5.993 -2.0866 -0.4269  0.2392
    7MOL   H104 1676   7.816   4.521   6.083 -0.3552  0.9023  0.0075
    7MOL   H105 1677   7.766   4.375   6.164 -0.4604 -1.4990 -1.7452
    7MOL   C106 1678   7.485   4.754   6.226  0.0775 -0.5183  0.3181
    7MOL   C107 1679   7.376   4.867   6.225  0.4189 -0.1227  0.4265
    7MOL   O108 1680   7.300   4.838   6.103  0.0306  0.2563 -0.7217
    7MOL   C109 1681   7.160   4.826   6.118  0.0011 -0.1911 -1.3847
    7MOL   C110 1682   7.083   4.785   5.992  0.3666  0.1652  0.5645
    7MOL   H111 1683   7.546   4.755   6.136  0.6238 -1.2122  0.6749
    7MOL   H112 1684   7.561   4.768   6.303 -0.5176  1.1242  0.6390
    7MOL   H113 1685   7.314   4.859   6.314  1.1133 -1.7735  0.7814
    7MOL   H114 1686   7.116   4.922   6.146  0.2536 -1.1235  2.5046
    7MOL   H115 1687   7.135   4.750   6.192  0.0407 -0.3099 -1.4922
    7MOL   H116 1688   7.122   4.691   5.952  2.8429  1.2761  0.2571
    7MOL   H117 1689   6.976   4.772   6.003  0.3083  2.5829  3.4975
    7MOL   H118 1690   7.099   4.859   5.915  0.4010  0.6382  1.0263
    7MOL   C119 1691   7.434   5.006   6.202  0.2334  0.0836  0.4752
    7MOL   C120 1692   7.510   5.064   6.315  0.0463 -0.0507  0.3719
    7MOL   O121 1693   7.422   5.081   6.429  0.0608  0.4382  0.0714
    7MOL   C122 1694   7.479   5.028   6.548  0.3574  0.7009 -0.5090
    7MOL   C123 1695   7.376   5.028   6.657  0.8351  0.6780 -0.1392
    7MOL   H124 1696   7.350   5.067   6.170 -0.3413 -0.6263  0.6174
    7MOL   H125 1697   7.505   4.994   6.120  0.0756 -0.5282  0.4246
    7MOL   H126 1698   7.586   4.987   6.327 -0.8844 -0.6824  2.6838
    7MOL   H127 1699   7.570   5.083   6.574 -0.2701  1.2054  0.6358
    7MOL   H128 1700   7.500   4.925   6.521 -2.3793 -0.2297  0.7185
    7MOL   H129 1701   7.289   4.972   6.621  0.5470 -0.4706  2.2528
    7MOL   H130 1702   7.416   4.982   6.747 -0.6162 -1.4113 -0.5070
    7MOL   H131 1703   7.350   5.128   6.691 -1.4430  0.8744 -2.3071
    7MOL   C132 1704   7.585   5.199   6.287 -0.7390 -0.0794 -0.0828
    7MOL   C133 1705   7.718   5.187   6.207 -0.3978 -0.2596  0.4027
    7MOL   O134 1706   7.794   5.285   6.278  0.1141 -0.4316  0.6347
    7MOL   C135 1707   0.072   5.326   6.227  0.4866 -0.1684 -0.0979
    7MOL   C136 1708   0.116   5.426   6.332 -0.5284 -0.0600 -0.2287
    7MOL   H137 1709   7.592   5.242   6.387 -0.7622  1.1754 -0.6131
    7MOL   H138 1710   7.525   5.278   6.243  0.2188  0.8111  0.1778
    7MOL   H139 1711   7.745   5.083   6.228 -0.4189 -0.4196 -0.3545
    7MOL   H140 1712   0.061   5.370   6.128 -0.7882 -0.4082 -0.0719
    7MOL   H141 1713   0.135   5.237   6.223  0.7502  0.0601 -1.1297
    7MOL   H142 1714   0.204   5.473   6.287  0.7693 -1.2496  0.9957
    7MOL   H143 1715   0.035   5.489   6.367 -1.3594 -0.7654 -0.8821
    7MOL   H144 1716   0.158   5.373   6.418  1.8338  0.0453 -1.2669
    7MOL   C145 1717   7.694   5.222   6.056  0.7577  0.2985 -0.1547
    7MOL   C146 1718   7.771   5.125   5.965  0.3848 -0.2947  0.9782
    7MOL   O147 1719   0.065   5.132   6.006 -0.7743 -0.1866  0.1857
    7MOL   C148 1720   0.114   5.001   6.009  0.5456 -0.0576 -0.4097
    7MOL   C149 1721   0.254   4.978   6.078  0.1722 -0.3179 -0.2064
    7MOL   H150 1722   7.705   5.329   6.039 -1.0285  0.5075 -0.1358
    7MOL   H151 1723   7.588   5.214   6.031  0.7559  0.5584 -0.2226
    7MOL   H152 1724   7.712   5.033   5.970  0.3761 -0.6028 -2.7485
    7MOL   H153 1725   0.098   4.952   5.913 -1.2842 -0.2772 -0.0175
    7MOL   H154 1726   0.049   4.946   6.077  0.3594  0.9124  0.2168
    7MOL   H155 1727   0.338   5.036   6.040  0.4939 -0.6267  0.0314
    7MOL   H156 1728   0.246   5.016   6.180  0.3625 -2.4660  0.6293
    7MOL   H157 1729   0.272   4.871   6.085 -1.6039 -0.7331 -1.5657
    7MOL   C158 1730   7.761   5.178   5.819 -0.1861 -0.0744  0.9596
    7MOL   C159 1731   7.641   5.137   5.733 -0.7543  0.2438 -0.3635
    7MOL   O160 1732   7.635   4.998   5.746  0.2965 -0.1285 -0.2834
    7MOL   C161 1733   7.500   4.946   5.734 -0.2061 -0.3320 -0.4462
    7MOL   C162 1734   7.499   4.799   5.768  0.4316 -0.0797  0.2466
    7MOL   H163 1735   0.003   5.139   5.765 -0.1863 -0.4486  1.2252
    7MOL   H164 1736   7.773   5.287   5.814  1.5793 -0.3529 -1.1948
    7MOL   H165 1737   7.544   5.175   5.765 -0.5113 -0.4937  1.3100
    7MOL   H166 1738   7.456   4.962   5.636 -0.1191  0.3315 -0.3805
    7MOL   H167 1739   7.439   4.997   5.809  3.1955  1.0767  1.4550
    7MOL   H168 1740   7.532   4.778   5.869 -1.4107  0.2353  0.9360
    7MOL   H169 1741   7.396   4.766   5.780 -0.4670  1.7219 -2.1559
    7MOL   H170 1742   7.552   4.731   5.701  0.1170 -1.9058  1.8048
    7MOL   C171 1743   7.670   5.173   5.582  0.0313 -0.1503 -0.8547
    7MOL   C172 1744   7.677   5.319   5.525  0.8566  0.4446 -0.8493
    7MOL   O173 1745   7.798   5.370   5.582 -0.0156 -0.1611 -0.1917
    7MOL   C174 1746   0.019   5.464   5.496 -1.5768  1.0659  0.1205
    7MOL   C175 1747   0.106   5.560   5.577  0.2912  0.5286  0.4242
    7MOL   H176 1748   7.587   5.131   5.525 -1.8231  1.2415  0.7547
    7MOL   H177 1749   7.762   5.124   5.551  0.8184 -0.1485  1.3783
    7MOL   H178 1750   7.669   5.324   5.416  1.3221  0.6108 -0.8734
    7MOL   H179 1751   7.798   5.524   5.431 -0.8606  1.9559  0.2345
    7MOL   H180 1752   0.096   5.408   5.443 -2.1769  1.2896 -1.0241
    7MOL   H181 1753   0.048   5.626   5.641 -0.4215  0.6018 -0.2916
    7MOL   H182 1754   0.177   5.503   5.637  1.0126  1.6084  0.6110
    7MOL   H183 1755   0.164   5.621   5.507 -0.7404  2.5313  1.2731
    7MOL   C184 1756   7.570   5.416   5.576 -0.1728  0.2381 -1.0868
    7MOL   C185 1757   7.429   5.363   5.561  0.0923  0.1670  0.0362
    7MOL   O186 1758   7.401   5.357   5.417  0.6545  0.5521  0.2165
    7MOL   C187 1759   7.329   5.238   5.377 -0.0354 -0.0730 -0.1820
    7MOL   C188 1760   7.267   5.252   5.237 -0.2380  0.1452  0.5424
    7MOL   H189 1761   7.579   5.514   5.529  0.5972 -0.3689 -2.2469
    7MOL   H190 1762   7.587   5.431   5.682 -0.3657 -2.0411 -0.6883
    7MOL   H191 1763   7.415   5.268   5.614  0.3439 -0.5977 -1.2344
    7MOL   H192 1764   7.261   5.205   5.456  0.9817 -0.6722  0.4577
    7MOL   H193 1765   7.403   5.158   5.373 -0.0099  0.0135 -2.1266
    7MOL   H194 1766   7.346   5.280   5.167 -1.0924  1.1976 -0.0217
    7MOL   H195 1767   7.223   5.158   5.205  2.8651 -1.2116  0.1354
    7MOL   H196 1768   7.198   5.337   5.235  2.0409  2.0640  0.1998
    7MOL   C197 1769   7.332   5.461   5.633 -0.2715  0.2492  0.2786
    7MOL   C198 1770   7.329   5.457   5.791 -0.5370 -0.5662 -0.0395
    7MOL   O199 1771   7.232   5.355   5.831 -0.4871 -0.1292  0.1150
    7MOL   C200 1772   7.293   5.228   5.861 -0.4471 -0.4540 -0.4425
    7MOL   C201 1773   7.193   5.153   5.937 -0.2745 -0.5172 -1.0071
    7MOL   H202 1774   7.232   5.434   5.599  0.0053 -1.5879  0.9009
    7MOL   H203 1775   7.357   5.561   5.595  2.4024 -0.1197  0.9607
    7MOL   H204 1776   7.429   5.435   5.831  0.1118 -0.5999 -1.6402
    7MOL   H205 1777   7.387   5.234   5.917 -0.6909  0.0264 -0.0794
    7MOL   H206 1778   7.311   5.170   5.771  1.5780 -1.1133  0.3609
    7MOL   H207 1779   7.176   5.193   6.037 -0.6977 -0.0950 -1.2487
    7MOL   H208 1780   7.107   5.142   5.872 -1.5802 -1.5404  0.8498
    7MOL   H209 1781   7.237   5.056   5.956  1.1374  0.2375 -0.3299
    7MOL   C210 1782   7.280   5.596   5.840  0.1009 -0.2682 -0.0338
    7MOL   C211 1783   7.206   5.606   5.967 -0.2104  0.2241 -0.4647
    7MOL   O212 1784   7.179   5.745   5.975 -0.0751  0.1702  0.0886
    7MOL   C213 1785   7.034   5.762   5.956 -0.6874 -0.3192  0.0080
    7MOL   C214 1786   7.021   5.909   5.917  0.0985  0.1705 -0.6418
    7MOL   H215 1787   7.204   5.631   5.770  0.9806 -0.6323 -1.1985
    7MOL   H216 1788   7.362   5.667   5.828  0.9116 -1.4191 -1.4353
    7MOL   H217 1789   7.121   5.538   5.963 -0.0348 -0.0506  0.3477
    7MOL   H218 1790   6.969   5.737   6.040 -1.1203 -0.2704 -0.3127
    7MOL   H219 1791   6.997   5.698   5.875  0.2998  2.7428 -2.9683
    7MOL   H220 1792   7.097   5.948   5.849  0.3307  2.0821  0.6871
    7MOL   H221 1793   6.923   5.928   5.871  0.2990  2.3800 -0.1943
    7MOL   H222 1794   7.029   5.963   6.010 -0.5792  0.6667 -0.8629
    7MOL   C223 1795   7.282   5.561   6.090  0.1318 -0.0340 -0.3367
    7MOL   C224 1796   7.410   5.648   6.130  0.5055  0.2719  0.4754
    7MOL   O225 1797   7.498   5.603   6.030 -0.6351  0.0165  0.3569
    7MOL   C226 1798   7.594   5.692   5.997  0.6342  0.4072  0.0017
    7MOL   C227 1799   7.704   5.626   5.909 -1.1143 -0.3112  0.5807
    7MOL   H228 1800   7.316   5.458   6.073 -1.0656 -0.8578  2.0669
    7MOL   H229 1801   7.213   5.557   6.174 -1.6582  3.2150 -1.5787
    7MOL   H230 1802   7.381   5.750   6.102 -2.1263 -0.8409 -1.0895
    7MOL   H231 1803   7.653   5.733   6.079 -0.0493  1.6982 -0.1379
    7MOL   H232 1804   7.548   5.777   5.946 -3.5081 -1.0620  1.1526
    7MOL   H233 1805   7.667   5.596   5.811  0.6778  1.4113 -0.6551
    7MOL   H234 1806   7.793   5.687   5.895  0.2695 -2.2794  0.6551
    7MOL   H235 1807   7.736   5.545   5.974 -2.0354  0.3127  1.8425
    7MOL   C236 1808   7.459   5.636   6.275 -0.0036 -0.2205 -0.0675
    7MOL   C237 1809   7.375   5.699   6.386 -0.0949 -0.1307 -0.9148
    7MOL   O238 1810   7.372   5.833   6.336  0.0743 -0.1630 -0.1821
    7MOL   C239 1811   7.245   5.887   6.295  0.3973  0.7546 -0.6108
    7MOL   C240 1812   7.273   6.030   6.254 -0.8119 -0.0642 -0.0974
    7MOL   H241 1813   7.559   5.678   6.278 -0.3089  0.4276  1.5618
    7MOL   H242 1814   7.479   5.530   6.291  1.3402 -0.2532 -1.8645
    7MOL   H243 1815   7.277   5.651   6.386 -2.0219  3.6212  0.7068
    7MOL   H244 1816   7.186   5.885   6.387 -0.5698 -1.3088 -1.2494
    7MOL   H245 1817   7.189   5.833   6.219 -2.6721 -1.5450  3.0938
    7MOL   H246 1818   7.179   6.085   6.249  0.3079  2.0405  1.4204
    7MOL   H247 1819   7.331   6.090   6.324  1.1584 -3.7181  1.5693
    7MOL   H248 1820   7.323   6.024   6.157  0.9280  0.5276  0.7411
    7MOL   C249 1821   7.429   5.686   6.532 -0.3280  0.4654  0.8758
    7MOL   C250 1822   7.321   5.712   6.626 -0.2705  0.3712  0.2343
    7MOL   O251 1823   7.249   5.589   6.640  0.7077 -0.3267  0.1692
    7MOL   C252 1824   7.125   5.606   6.711  0.0544  0.0324 -0.8358
    7MOL   C253 1825   7.097   5.465   6.766 -0.8228  0.2792  0.1670
    7MOL   H254 1826   7.513   5.753   6.548  1.2063 -2.0121  3.4086
    7MOL   H255 1827   7.473   5.587   6.537 -1.4053  0.0237  1.7291
    7MOL   H256 1828   7.370   5.723   6.723 -1.4439 -4.5945  1.5508
    7MOL   H257 1829   7.045   5.650   6.652 -0.3193  0.9558  0.3331
    7MOL   H258 1830   7.134   5.674   6.795  1.3958  0.5962 -1.4201
    7MOL   H259 1831   6.999   5.470   6.813 -1.1115  1.7686 -0.5706
    7MOL   H260 1832   7.089   5.381   6.697  0.3821  0.0428  0.3034
    7MOL   H261 1833   7.174   5.437   6.838 -0.2853 -0.6579 -0.7667
    7MOL   H262 1834   7.258   5.796   6.597 -1.2461 -0.6703 -0.6906
    8MOL     C1 1835   5.037   7.636   5.896 -0.2525  0.3282 -0.7773
    8MOL     C2 1836   5.052   7.570   6.028  0.1824 -0.0343  0.6335
    8MOL     O3 1837   5.008   7.666   6.123  0.1155 -0.0868  0.8405
    8MOL     C4 1838   4.906   7.616   6.212  0.4788  0.0145  0.3040
    8MOL     C5 1839   4.773   7.631   6.145  0.0804  0.1412 -0.0214
    8MOL     H6 1840   4.932   7.638   5.866 -0.1055 -1.0310 -1.3986
    8MOL     H7 1841   5.091   7.731   5.894 -1.1849  0.9301  1.5747
    8MOL     H8 1842   4.977   7.491   6.031  0.2811 -0.1308  0.5610
    8MOL     H9 1843   4.917   7.689   6.292 -0.9227  1.3255 -0.6642
    8MOL    H10 1844   4.920   7.518   6.257 -1.3058 -0.9901 -1.2787
    8MOL    H11 1845   4.746   7.729   6.106 -2.4748 -0.1000  1.0734
    8MOL    H12 1846   4.765   7.565   6.059  0.2662  0.7859 -0.5309
    8MOL    H13 1847   4.695   7.603   6.216 -0.5102 -0.3382 -0.8538
    8MOL    H14 1848   5.079   7.576   5.815  0.7001 -0.8915  0.6171
    8MOL    C15 1849   5.199   7.533   6.062  0.2862  0.1597  0.6220
    8MOL    C16 1850   5.214   7.445   6.189  0.7733  0.1141  0.1887
    8MOL    O17 1851   5.291   7.515   6.289 -0.0955  0.3001 -0.5785
    8MOL    C18 1852   5.229   7.632   6.346 -0.2783 -0.3021  0.4613
    8MOL    C19 1853   5.311   7.678   6.468 -0.2508  0.4825  0.1481
    8MOL    H20 1854   5.260   7.621   6.081 -0.9669  0.7912  1.6910
    8MOL    H21 1855   5.235   7.489   5.968  0.2318 -2.4417  1.7803
    8MOL    H22 1856   5.116   7.454   6.236  0.0781 -1.0926 -0.9801
    8MOL    H23 1857   5.127   7.610   6.377 -0.5501  0.1776 -0.0644
    8MOL    H24 1858   5.218   7.709   6.269  0.6476 -0.6807 -0.0552
    8MOL    H25 1859   5.320   7.593   6.535 -1.3094 -0.6828 -1.1668
    8MOL    H26 1860   5.261   7.761   6.518 -0.8080  0.0525  0.3107
    8MOL    H27 1861   5.413   7.709   6.443 -0.3107  0.0588 -0.6145
    8MOL    C28 1862   5.263   7.300   6.190  0.4568  0.9779  1.0769
    8MOL    C29 1863   5.406   7.278   6.142  0.0384 -0.0616  0.4559
    8MOL    O30 1864   5.414   7.153   6.070 -0.5119  0.4125 -0.0493
    8MOL    C31 1865   5.522   7.154   5.974 -0.0247  0.9307  0.8535
    8MOL    C32 1866   5.498   7.053   5.852 -0.5608  0.0951 -0.8103
    8MOL    H33 1867   5.192   7.237   6.136 -0.1937  0.4888  2.4577
    8MOL    H34 1868   5.245   7.255   6.288  1.4525 -1.9487 -0.0340
    8MOL    H35 1869   5.418   7.361   6.073  2.5602 -0.1933  0.7035
    8MOL    H36 1870   5.617   7.134   6.022 -0.2396 -0.8966  0.5831
    8MOL    H37 1871   5.538   7.251   5.929  1.8180 -0.1310 -0.8482
    8MOL    H38 1872   5.594   7.026   5.808  1.2424  2.8665  1.2530
    8MOL    H39 1873   5.452   6.960   5.886 -0.2262 -0.1525 -1.0289
    8MOL    H40 1874   5.421   7.094   5.788  0.3479  0.3602 -1.7368
    8MOL    C41 1875   5.505   7.274   6.263  0.8525  0.5550  0.4474
    8MOL    C42 1876   5.637   7.345   6.235  0.0799  0.6413  0.1070
    8MOL    O43 1877   5.749   7.254   6.235  0.0912 -0.2923 -0.2849
    8MOL    C44 1878   5.779   7.182   6.354 -0.5550 -0.3990 -1.2183
    8MOL    C45 1879   5.841   7.049   6.314  0.4070  0.1958  0.1923
    8MOL    H46 1880   5.523   7.169   6.284 -0.8031  0.1526 -0.1283
    8MOL    H47 1881   5.461   7.299   6.359 -0.7544  0.0666 -0.1569
    8MOL    H48 1882   5.641   7.375   6.131  1.5340 -1.2015 -0.4037
    8MOL    H49 1883   5.694   7.169   6.421 -1.1242 -0.0283 -1.8661
    8MOL    H50 1884   5.839   7.248   6.416 -0.7456 -1.2389 -0.1256
    8MOL    H51 1885   5.940   7.068   6.271  0.2554  0.3561 -0.0902
    8MOL    H52 1886   5.847   6.999   6.410 -0.3602  1.7519  1.0707
    8MOL    H53 1887   5.776   6.991   6.249 -0.2677 -0.1826  1.2010
    8MOL    C54 1888   5.652   7.461   6.339  0.6981 -0.0377 -0.4845
    8MOL    C55 1889   5.775   7.551   6.315 -0.3877 -0.4159 -0.3483
    8MOL    O56 1890   5.822   7.605   6.437 -0.0104 -0.0314 -0.5366
    8MOL    C57 1891   5.936   7.545   6.488  0.0029  0.3905 -0.0685
    8MOL    C58 1892   5.959   7.606   6.624  0.4410  0.3287 -0.0281
    8MOL    H59 1893   5.661   7.423   6.440  0.2587  0.4320 -0.2701
    8MOL    H60 1894   5.568   7.530   6.346 -0.0801 -1.1301  1.1187
    8MOL    H61 1895   5.852   7.488   6.271  0.2628 -0.6195  1.0558
    8MOL    H62 1896   6.032   7.545   6.437 -0.3870 -1.7630 -0.8586
    8MOL    H63 1897   5.923   7.440   6.516  0.2857  0.9392  2.1961
    8MOL    H64 1898   5.995   7.708   6.629 -1.7659  1.0448  2.8226
    8MOL    H65 1899   5.862   7.607   6.674  1.0824  0.1931  1.2530
    8MOL    H66 1900   6.021   7.536   6.680 -1.2656 -0.6209  0.7222
    8MOL    C67 1901   5.742   7.665   6.219  0.5730 -0.1727  0.6785
    8MOL    C68 1902   5.869   7.757   6.186 -0.5625  0.5040  0.5111
    8MOL    O69 1903   5.826   0.028   6.117  0.0424  0.1899 -0.1282
    8MOL    C70 1904   5.801   0.145   6.189  0.0684 -0.0164 -0.8635
    8MOL    C71 1905   5.762   0.259   6.102  0.0674 -0.0268 -0.0679
    8MOL    H72 1906   5.671   7.729   6.271 -0.1272 -0.5095  0.1365
    8MOL    H73 1907   5.684   7.623   6.137 -0.8401  0.4421  1.3498
    8MOL    H74 1908   5.942   7.790   6.260  0.7320  0.3001 -0.6588
    8MOL    H75 1909   5.883   0.180   6.253  0.2602  0.0574 -1.1500
    8MOL    H76 1910   5.727   0.123   6.267  1.3309  2.2405  1.0649
    8MOL    H77 1911   5.784   0.351   6.157  1.2458  0.7101 -1.7157
    8MOL    H78 1912   5.813   0.255   6.006  2.6510  0.8101  1.2107
    8MOL    H79 1913   5.654   0.252   6.091  0.3329 -1.7627 -1.6899
    8MOL    C80 1914   5.957   7.683   6.083  0.1552  0.7353  0.0523
    8MOL    C81 1915   6.078   7.753   6.025 -0.4135 -0.3880 -0.0879
    8MOL    O82 1916   6.140   7.665   5.931  0.2345 -0.1672 -0.1662
    8MOL    C83 1917   6.219   7.730   5.833 -0.1988 -0.1352 -0.1765
    8MOL    C84 1918   6.206   7.626   5.722  0.4150  0.2686 -0.0664
    8MOL    H85 1919   5.893   7.659   5.998 -1.0661  1.3314  0.7843
    8MOL    H86 1920   5.998   7.588   6.118  1.8329  0.2855 -2.9648
    8MOL    H87 1921   6.038   7.821   5.950  1.4871  0.2470 -0.5489
    8MOL    H88 1922   6.324   7.720   5.859 -0.5869  0.7501  1.8614
    8MOL    H89 1923   6.187   7.827   5.796  0.9082 -0.0554 -0.9540
    8MOL    H90 1924   6.258   7.536   5.756  1.0000  0.7307  0.2747
    8MOL    H91 1925   6.104   7.595   5.698  0.6855 -1.4948  1.0236
    8MOL    H92 1926   6.265   7.658   5.635 -0.2056 -0.2469 -0.6820
    8MOL    C93 1927   6.177   7.815   6.123  0.3081  0.3376 -0.3191
    8MOL    C94 1928   6.227   7.739   6.252 -0.5462  0.3429  0.8549
    8MOL    O95 1929   6.298   7.822   6.339 -0.6789 -0.1712  0.4027
    8MOL    C96 1930   6.258   7.838   6.479 -0.3630 -0.1671  0.1489
    8MOL    C97 1931   6.159   0.109   6.491 -0.0312 -0.5879  0.2037
    8MOL    H98 1932   6.134   0.060   6.168 -0.5297 -0.6720  0.8925
    8MOL    H99 1933   6.269   0.005   6.075  0.9486  0.1394  0.7532
    8MOL   H100 1934   6.146   7.689   6.305 -0.4302  1.6613  2.3124
    8MOL   H101 1935   6.341   0.012   6.548  2.3415  0.1452 -3.0826
    8MOL   H102 1936   6.223   7.739   6.508 -0.1816 -1.0451 -2.5400
    8MOL   H103 1937   6.213   0.195   6.452  2.4442 -1.2252  2.1553
    8MOL   H104 1938   6.069   0.106   6.429  0.3169 -0.3907 -0.3112
    8MOL   H105 1939   6.133   0.137   6.593  1.6258 -1.1059  0.7872
    8MOL   C106 1940   6.327   7.621   6.216  0.1774 -0.0548 -0.3502
    8MOL   C107 1941   6.351   7.511   6.325 -0.2998  1.0726 -1.0219
    8MOL   O108 1942   6.487   7.470   6.335 -0.1227 -0.7021 -0.1082
    8MOL   C109 1943   6.562   7.531   6.438 -0.4068  0.1911  0.2055
    8MOL   C110 1944   6.711   7.534   6.403 -0.2361  0.1682 -0.1381
    8MOL   H111 1945   6.424   7.667   6.196  0.1956 -0.0906 -0.3466
    8MOL   H112 1946   6.301   7.565   6.126 -0.3250 -0.5606  0.1061
    8MOL   H113 1947   6.316   7.558   6.417 -2.3816 -1.1385 -0.6165
    8MOL   H114 1948   6.533   7.474   6.527  0.7871  0.7063  0.9312
    8MOL   H115 1949   6.530   7.634   6.454 -0.2124 -0.2286  3.9371
    8MOL   H116 1950   6.737   7.557   6.300  1.6334 -0.2778  0.2170
    8MOL   H117 1951   6.749   7.619   6.460  1.0475  0.3608 -1.2509
    8MOL   H118 1952   6.769   7.450   6.441  0.2322  1.0769  1.1907
    8MOL   C119 1953   6.276   7.377   6.267  0.3409 -0.3625 -0.1145
    8MOL   C120 1954   6.272   7.261   6.373  0.0429  0.0980  0.4032
    8MOL   O121 1955   6.213   7.148   6.318 -0.5106  0.5221  0.4098
    8MOL   C122 1956   6.299   7.054   6.259  0.1580  0.3614 -0.2052
    8MOL   C123 1957   6.217   6.925   6.229  0.1739 -0.3892 -0.1698
    8MOL   H124 1958   6.320   7.344   6.173  1.4998 -2.6514  1.2042
    8MOL   H125 1959   6.171   7.401   6.249  0.3438  0.3836  0.8166
    8MOL   H126 1960   6.374   7.234   6.400 -1.0182 -2.6399  1.8800
    8MOL   H127 1961   6.372   7.025   6.334  0.4686 -0.8497 -0.9580
    8MOL   H128 1962   6.359   7.088   6.175 -0.9819  0.0737 -1.1389
    8MOL   H129 1963   6.150   6.889   6.307 -0.7967  2.5142  0.4025
    8MOL   H130 1964   6.143   6.954   6.155  1.1819  0.6314 -0.7968
    8MOL   H131 1965   6.275   6.842   6.189  0.8380 -0.2440  0.4697
    8MOL   C132 1966   6.178   7.298   6.493 -0.4601  0.1673  0.4175
    8MOL   C133 1967   6.206   7.218   6.618 -0.0952  0.4755  0.2504
    8MOL   O134 1968   6.095   7.236   6.713  0.7167  0.1356  0.7502
    8MOL   C135 1969   5.982   7.158   6.698 -0.8402 -0.3238 -0.0037
    8MOL   C136 1970   5.882   7.222   6.785  0.0780 -0.0181  0.0699
    8MOL   H137 1971   6.076   7.287   6.457 -0.4969  2.7499 -0.4193
    8MOL   H138 1972   6.189   7.400   6.532 -2.0382  0.7798 -0.6810
    8MOL   H139 1973   6.216   7.116   6.582 -1.3591  0.8848 -1.3504
    8MOL   H140 1974   6.001   7.057   6.735  0.3977  0.1040  0.5683
    8MOL   H141 1975   5.952   7.142   6.595  2.3946 -4.8043 -0.4203
    8MOL   H142 1976   5.887   7.330   6.767 -1.3295  0.0882  0.2462
    8MOL   H143 1977   5.790   7.172   6.754  0.8677 -3.5017  3.0050
    8MOL   H144 1978   5.898   7.204   6.892  1.4205 -0.4587 -0.1887
    8MOL   C145 1979   6.329   7.281   6.691  0.1891 -0.6072 -0.0443
    8MOL   C146 1980   6.375   7.205   6.815  0.0633  0.1385  0.1664
    8MOL   O147 1981   6.460   7.274   6.902 -0.1115 -0.6689  0.0106
    8MOL   C148 1982   6.415   7.298   7.034  0.5096 -0.2319 -0.3618
    8MOL   C149 1983   6.480   7.430   7.087 -0.0223 -0.2601  0.1091
    8MOL   H150 1984   6.299   7.380   6.724  2.9282  1.5055 -3.5445
    8MOL   H151 1985   6.415   7.293   6.625 -0.5564  1.5806 -0.6529
    8MOL   H152 1986   6.288   7.178   6.874  1.5530 -3.0012  1.0599
    8MOL   H153 1987   6.421   7.220   7.109  0.5403  1.1127  1.0566
    8MOL   H154 1988   6.307   7.311   7.040  0.4221 -0.8941 -0.4759
    8MOL   H155 1989   6.468   7.456   7.192  1.9290  2.1841 -0.2380
    8MOL   H156 1990   6.589   7.421   7.085 -0.0792 -0.9677 -0.3700
    8MOL   H157 1991   6.454   7.504   7.011  0.2023 -0.5860 -0.2878
    8MOL   C158 1992   6.460   7.083   6.773  0.1399  0.0361  0.4816
    8MOL   C159 1993   6.484   6.985   6.891 -0.1904  0.0829 -0.1212
    8MOL   O160 1994   6.581   6.891   6.856 -0.0644 -0.1026 -0.4668
    8MOL   C161 1995   6.718   6.945   6.879 -0.2415  0.4249  0.2532
    8MOL   C162 1996   6.762   6.921   7.021 -0.4233  0.0458  0.3154
    8MOL   H163 1997   6.553   7.116   6.728  0.1689  0.2535  0.6984
    8MOL   H164 1998   6.417   7.020   6.695 -0.3141 -0.1980  0.9221
    8MOL   H165 1999   6.512   7.040   6.980  1.2945 -0.4515 -0.2496
    8MOL   H166 2000   6.725   7.049   6.847  0.7508 -0.7098 -3.4705
    8MOL   H167 2001   6.789   6.894   6.814  1.6531  0.1604  2.4948
    8MOL   H168 2002   6.748   6.820   7.060 -0.8064 -0.2129 -0.5016
    8MOL   H169 2003   6.870   6.931   7.035 -0.3331  0.4798 -0.6523
    8MOL   H170 2004   6.708   6.984   7.092  1.4951 -0.3419  2.1899
    8MOL   C171 2005   6.354   6.903   6.920  0.2698 -0.1944  0.8095
    8MOL   C172 2006   6.365   6.798   7.030  0.2442 -0.5017  0.2370
    8MOL   O173 2007   6.243   6.713   7.012 -0.2325  0.4578  0.1387
    8MOL   C174 2008   6.258   6.570   7.005  0.5212  0.2560 -0.4639
    8MOL   C175 2009   6.128   6.495   6.983  0.0435  0.1311 -0.4090
    8MOL   H176 2010   6.317   6.849   6.833  1.7457  0.7193 -0.4173
    8MOL   H177 2011   6.278   6.973   6.953  0.3035  0.7316 -1.0052
    8MOL   H178 2012   6.454   6.738   7.013  0.1102 -0.9407  1.0852
    8MOL   H179 2013   6.302   6.533   7.097  0.4441 -0.3272 -0.6622
    8MOL   H180 2014   6.327   6.543   6.925  1.1398  0.2460  0.0615
    8MOL   H181 2015   6.067   6.546   6.908 -0.2605 -0.0876 -0.3132
    8MOL   H182 2016   6.153   6.394   6.951  1.7651  0.4337 -0.0635
    8MOL   H183 2017   6.059   6.491   7.067  0.9316  1.1817  0.3702
    8MOL   C184 2018   6.361   6.872   7.170  0.0825 -0.2501  0.3029
    8MOL   C185 2019   6.389   6.775   7.276 -0.2920 -0.2357  0.1887
    8MOL   O186 2020   6.335   6.829   7.394 -0.0246 -0.4141 -0.4837
    8MOL   C187 2021   6.221   6.758   7.454  0.2740 -0.6385 -0.7930
    8MOL   C188 2022   6.141   6.869   7.535  0.4274 -0.4446 -0.5246
    8MOL   H189 2023   6.266   6.925   7.172 -0.4882 -1.2777  0.5246
    8MOL   H190 2024   6.433   6.954   7.172  1.1609 -1.1275 -1.2365
    8MOL   H191 2025   6.338   6.683   7.247  0.5891 -0.2453 -1.3699
    8MOL   H192 2026   6.256   6.685   7.526 -1.1134 -1.7565 -1.2272
    8MOL   H193 2027   6.156   6.694   7.394 -0.6518  0.1904 -0.7011
    8MOL   H194 2028   6.137   6.956   7.470 -0.0883 -0.3362 -0.3506
    8MOL   H195 2029   6.040   6.835   7.557  1.1133 -0.6160  2.5995
    8MOL   H196 2030   6.182   6.901   7.631  2.2833 -0.7234 -1.1990
    8MOL   C197 2031   6.542   6.750   7.294 -0.1364  0.0952  0.0298
    8MOL   C198 2032   6.569   6.637   7.401  0.3017 -0.5004  0.3528
    8MOL   O199 2033   6.700   6.636   7.457  0.2990 -0.1220  0.4804
    8MOL   C200 2034   6.736   6.747   7.529  0.1412 -0.3901  0.1350
    8MOL   C201 2035   6.853   6.705   7.615  0.6983 -0.5723  0.2655
    8MOL   H202 2036   6.586   6.845   7.324  0.4218 -1.0762  3.1503
    8MOL   H203 2037   6.582   6.718   7.199 -1.9472 -0.5328 -0.5428
    8MOL   H204 2038   6.503   6.648   7.486 -1.7202 -1.3585 -1.0637
    8MOL   H205 2039   6.656   6.788   7.590 -0.0003 -0.6053  0.0918
    8MOL   H206 2040   6.780   6.826   7.468  0.9848 -1.4154 -0.6011
    8MOL   H207 2041   6.932   6.664   7.553 -0.0051  0.1611 -1.1350
    8MOL   H208 2042   6.894   6.797   7.657 -4.5457  1.4970  1.3031
    8MOL   H209 2043   6.830   6.632   7.692 -1.0981 -1.6846 -1.2891
    8MOL   C210 2044   6.553   6.496   7.337 -0.2027 -0.0177  0.3289
    8MOL   C211 2045   6.536   6.385   7.444  0.4608  0.1661 -0.1708
    8MOL   O212 2046   6.549   6.264   7.363  0.0895 -0.1277  0.4227
    8MOL   C213 2047   6.660   6.175   7.385 -0.2354 -0.9088 -0.2564
    8MOL   C214 2048   6.637   6.048   7.304 -0.0013 -0.2089  0.3883
    8MOL   H215 2049   6.630   6.472   7.263 -1.3685  1.3829 -1.3710
    8MOL   H216 2050   6.463   6.488   7.276 -2.0443 -2.7112  3.2361
    8MOL   H217 2051   6.628   6.379   7.503  0.6005 -1.5920 -0.5414
    8MOL   H218 2052   6.681   6.170   7.492 -0.4440 -2.4310 -0.2810
    8MOL   H219 2053   6.746   6.218   7.334 -2.2034  1.7280 -1.5135
    8MOL   H220 2054   6.566   6.071   7.224  0.1724  0.3196  0.3861
    8MOL   H221 2055   6.730   6.009   7.262 -1.3930 -3.4124  0.0998
    8MOL   H222 2056   6.582   5.968   7.354  1.7243 -0.9977  1.0337
    8MOL   C223 2057   6.412   6.383   7.532  0.5823 -0.4532 -0.1997
    8MOL   C224 2058   6.416   6.297   7.655  0.3822 -0.0996  0.3157
    8MOL   O225 2059   6.550   6.307   7.720  0.3221  0.0358  0.4162
    8MOL   C226 2060   6.565   6.416   7.810  0.0680 -0.2700 -0.1229
    8MOL   C227 2061   6.708   6.392   0.023  0.4375  0.1367 -0.0981
    8MOL   H228 2062   6.317   6.382   7.478  0.0679  2.2609  0.5432
    8MOL   H229 2063   6.415   6.486   7.567  0.6189 -0.6279  0.3107
    8MOL   H230 2064   6.335   6.328   7.721 -0.7028  1.7062 -1.7850
    8MOL   H231 2065   6.489   6.421   0.044 -0.2072 -1.8358 -0.2835
    8MOL   H232 2066   6.560   6.514   7.763 -0.7216  1.0069  2.5560
    8MOL   H233 2067   6.735   6.469   0.096 -0.5764  1.0856 -0.7134
    8MOL   H234 2068   6.716   6.293   0.070  1.4232 -0.1480 -0.8524
    8MOL   H235 2069   6.783   6.398   7.788  1.7384  2.3080  1.2540
    8MOL   C236 2070   6.399   6.138   7.623  0.5634  0.3489 -0.1133
    8MOL   C237 2071   6.344   6.048   7.736  0.0680 -0.0351  0.9971
    8MOL   O238 2072   6.222   6.121   7.774 -0.2710  0.1191 -0.0061
    8MOL   C239 2073   6.120   6.063   0.015  0.2426 -0.4436  0.2895
    8MOL   C240 2074   5.992   6.144   7.834 -0.5808 -0.1051  0.0300
    8MOL   H241 2075   6.501   6.105   7.603 -0.3071 -1.4315 -1.7805
    8MOL   H242 2076   6.333   6.112   7.540  0.3283 -1.1043  0.5064
    8MOL   H243 2077   6.321   5.950   7.693  0.3063  0.9833 -1.5244
    8MOL   H244 2078   6.156   6.072   0.118 -0.1666 -1.0493  0.4884
    8MOL   H245 2079   6.109   5.958   7.832 -2.1717  0.2442 -1.5120
    8MOL   H246 2080   5.977   6.162   7.728  0.2414  1.5328  0.1774
    8MOL   H247 2081   5.906   6.091   0.031 -1.0685  0.9548  0.4169
    8MOL   H248 2082   6.005   6.240   0.041 -0.3176 -0.3479  0.4247
    8MOL   C249 2083   6.434   6.029   0.015  0.2507  0.0154 -0.1642
    8MOL   C250 2084   6.564   5.953   7.820 -0.5957  1.0710  0.1300
    8MOL   O251 2085   6.625   5.935   0.100 -0.0129  0.0366  0.4333
    8MOL   C252 2086   6.742   5.852   0.080 -0.1032 -0.0714 -0.4936
    8MOL   C253 2087   6.783   5.819   0.220  0.0420 -0.1717 -0.5181
    8MOL   H254 2088   6.384   5.971   0.093 -1.3440  1.9450  0.2729
    8MOL   H255 2089   6.461   6.121   0.066 -1.8013  1.0537 -0.9361
    8MOL   H256 2090   6.550   5.857   7.771  0.0625 -0.1427  2.2755
    8MOL   H257 2091   6.824   5.914   0.044 -1.4430  1.3393 -1.1964
    8MOL   H258 2092   6.732   5.761   0.022  0.7183 -1.8580  2.0714
    8MOL   H259 2093   6.793   5.908   0.282  2.4550 -1.0314  0.3941
    8MOL   H260 2094   6.703   5.755   0.257  0.4106  0.1342  0.8293
    8MOL   H261 2095   6.875   5.761   0.216 -0.5276 -1.1235  0.0108
    8MOL   H262 2096   6.632   6.004   7.751  0.0771 -0.6002 -0.4463
    9MOL     C1 2097   0.302   2.667   2.871  0.2967 -0.7775 -0.2093
    9MOL     C2 2098   0.252   2.640   3.012 -0.8200 -0.0031 -1.0340
    9MOL     O3 2099   0.309   2.741   3.090 -0.3691  0.3661  0.0033
    9MOL     C4 2100   0.250   2.863   3.096 -0.2088  0.1563  0.4457
    9MOL     C5 2101   0.303   2.937   3.217  0.3340  0.2794  0.6862
    9MOL     H6 2102   0.280   2.583   2.806 -1.4171 -1.0828  0.7448
    9MOL     H7 2103   0.256   2.754   2.823  0.4699 -0.8586 -0.5228
    9MOL     H8 2104   0.144   2.645   3.019 -0.6238  1.0523  1.9580
    9MOL     H9 2105   0.142   2.875   3.090  0.0552  4.1344  2.0825
    9MOL    H10 2106   0.275   2.926   3.010 -2.3065  1.6854  0.9196
    9MOL    H11 2107   0.405   2.976   3.209  0.6871 -0.7593  0.1020
    9MOL    H12 2108   0.241   3.027   3.222 -0.1926  0.0332 -1.2837
    9MOL    H13 2109   0.284   2.896   3.316 -0.8273 -0.5040  0.1444
    9MOL    H14 2110   0.411   2.676   2.866  0.3676 -1.5399 -0.1164
    9MOL    C15 2111   0.293   2.502   3.065 -0.2461  0.4716 -0.6384
    9MOL    C16 2112   0.207   2.388   3.009  0.2715 -0.6587  0.4596
    9MOL    O17 2113   0.085   2.398   3.073  0.4933 -0.7281 -0.1548
    9MOL    C18 2114   7.821   2.362   2.990 -0.3606  0.1940 -0.2616
    9MOL    C19 2115   7.699   2.342   3.076  0.2166  0.2316  0.1764
    9MOL    H20 2116   0.276   2.500   3.172  1.2080  1.0886 -0.3864
    9MOL    H21 2117   0.401   2.492   3.054 -0.2895 -0.4227 -0.2790
    9MOL    H22 2118   0.191   2.407   2.903 -0.9334 -0.3631  0.6952
    9MOL    H23 2119   7.833   2.258   2.959 -0.3651 -0.8161  2.9171
    9MOL    H24 2120   7.803   2.433   2.909 -0.6913 -0.7835 -1.0686
    9MOL    H25 2121   7.605   2.327   3.024 -0.1271 -0.3902  0.9500
    9MOL    H26 2122   7.679   2.423   3.146 -0.9869  1.0907 -1.1395
    9MOL    H27 2123   7.709   2.253   3.139  0.7735  1.9336  2.5662
    9MOL    C28 2124   0.273   2.244   3.026  0.0463  0.1476  0.3734
    9MOL    C29 2125   0.397   2.225   2.931 -0.2650 -0.1216 -0.0414
    9MOL    O30 2126   0.349   2.240   2.796  0.2233 -0.1377 -0.4808
    9MOL    C31 2127   0.440   2.332   2.723 -0.0646 -0.0642  0.4474
    9MOL    C32 2128   0.401   2.332   2.579 -0.7288 -0.5155  0.1508
    9MOL    H33 2129   0.211   2.160   2.996  1.8270 -0.7972 -0.7223
    9MOL    H34 2130   0.306   2.217   3.127 -1.9132  0.3549  1.1042
    9MOL    H35 2131   0.467   2.303   2.963  1.0730 -0.2309 -2.5956
    9MOL    H36 2132   0.545   2.301   2.725  0.6756  2.3640  1.1777
    9MOL    H37 2133   0.432   2.428   2.773 -1.0598  0.8679 -1.4633
    9MOL    H38 2134   0.298   2.367   2.565 -0.8314 -1.3564 -1.2847
    9MOL    H39 2135   0.454   2.411   2.526  2.4330 -1.3432  1.9664
    9MOL    H40 2136   0.425   2.236   2.534 -0.4944 -0.4723  0.1845
    9MOL    C41 2137   0.460   2.083   2.948  0.5959 -0.1698  0.3763
    9MOL    C42 2138   0.581   2.055   2.854 -0.3309  0.4734 -0.0014
    9MOL    O43 2139   0.611   1.912   2.865 -0.0641 -0.2592 -0.2182
    9MOL    C44 2140   0.551   1.829   2.767  0.3986 -0.0840  0.0518
    9MOL    C45 2141   0.628   1.835   2.634 -0.4053 -0.2831  0.1709
    9MOL    H46 2142   0.381   2.010   2.932 -0.4598  0.6475  1.7089
    9MOL    H47 2143   0.477   2.073   3.055  1.2197  0.7195  0.3702
    9MOL    H48 2144   0.549   2.086   2.754 -0.4726  3.5516  0.9378
    9MOL    H49 2145   0.447   1.858   2.754  0.2307 -0.1909  1.1066
    9MOL    H50 2146   0.546   1.726   2.803  3.5564 -0.6689 -0.9835
    9MOL    H51 2147   0.735   1.812   2.637 -0.5789 -1.3417 -1.1840
    9MOL    H52 2148   0.587   1.768   2.558 -0.6304  0.1443 -0.0884
    9MOL    H53 2149   0.614   1.936   2.597 -4.2514 -0.1021  1.8703
    9MOL    C54 2150   0.708   2.133   2.889  0.1119 -0.5950  0.6414
    9MOL    C55 2151   0.818   2.118   2.780  0.4156 -0.9006  0.4591
    9MOL    O56 2152   0.952   2.101   2.837  0.1686 -0.3395  0.4669
    9MOL    C57 2153   0.978   1.985   2.901  0.0100 -0.4419  0.1926
    9MOL    C58 2154   1.124   1.988   2.950  0.0085  1.1223  0.1031
    9MOL    H59 2155   0.751   2.087   2.977  0.0429 -2.3214 -0.1978
    9MOL    H60 2156   0.684   2.234   2.923 -2.9954  0.2190 -3.4974
    9MOL    H61 2157   0.796   2.022   2.733 -0.7992 -0.7925  0.7916
    9MOL    H62 2158   0.952   1.905   2.833 -0.4940 -1.4670  1.5621
    9MOL    H63 2159   0.930   1.978   2.999  3.2527  0.4850  1.9412
    9MOL    H64 2160   1.191   1.990   2.864  0.8295 -0.9834  0.6424
    9MOL    H65 2161   1.136   2.077   3.011  0.8585  0.3312  1.1205
    9MOL    H66 2162   1.151   1.898   3.006 -0.2800  1.1714  0.3236
    9MOL    C67 2163   0.821   2.228   2.669  0.7681 -0.0409 -0.4915
    9MOL    C68 2164   0.876   2.364   2.724 -0.4585 -0.2854 -0.4680
    9MOL    O69 2165   0.772   2.437   2.783  0.0344 -0.4969 -0.4175
    9MOL    C70 2166   0.804   2.517   2.899 -0.0888 -0.4237 -0.5728
    9MOL    C71 2167   0.674   2.532   2.974 -0.0222  0.8297  0.5255
    9MOL    H72 2168   0.723   2.249   2.626  0.7766  0.7089 -0.1443
    9MOL    H73 2169   0.892   2.190   2.596  2.6153 -0.4078  1.4333
    9MOL    H74 2170   0.955   2.334   2.793  1.4898  2.5272 -1.4029
    9MOL    H75 2171   0.842   2.615   2.867  0.3647 -0.7945 -1.1767
    9MOL    H76 2172   0.873   2.464   2.964 -0.2182  1.2543  0.9853
    9MOL    H77 2173   0.695   2.594   3.061  0.9145  1.3930 -0.0727
    9MOL    H78 2174   0.602   2.578   2.906  0.1536 -2.6789 -2.1686
    9MOL    H79 2175   0.633   2.437   3.006 -0.6405  1.0264  0.3193
    9MOL    C80 2176   0.916   2.450   2.611 -0.3073 -1.0695 -0.0768
    9MOL    C81 2177   1.042   2.414   2.526  0.1859  0.0374 -0.3714
    9MOL    O82 2178   1.157   2.407   2.616 -0.0758  0.0181 -0.0339
    9MOL    C83 2179   1.201   2.273   2.645  0.2343  0.3506 -0.5270
    9MOL    C84 2180   1.281   2.291   2.774  0.4897 -0.1459 -0.1046
    9MOL    H85 2181   0.943   2.549   2.645 -1.6916  0.1151 -2.3039
    9MOL    H86 2182   0.835   2.453   2.537  0.9688 -0.7200 -1.4866
    9MOL    H87 2183   1.024   2.324   2.468 -1.7059  0.1560  0.0050
    9MOL    H88 2184   1.267   2.244   2.564 -0.0335  0.5895 -0.8323
    9MOL    H89 2185   1.112   2.211   2.659  1.2277 -1.1452 -0.7655
    9MOL    H90 2186   1.346   2.204   2.786  0.3839  0.1501  3.1010
    9MOL    H91 2187   1.340   2.382   2.775  2.3000 -1.2947 -0.4960
    9MOL    H92 2188   1.217   2.295   2.863 -1.1245  1.5131 -1.3008
    9MOL    C93 2189   1.088   2.516   2.421 -0.3159 -0.3359 -0.0601
    9MOL    C94 2190   0.990   2.563   2.319  0.6359  0.0099 -0.0253
    9MOL    O95 2191   0.946   2.442   2.264  0.1260 -0.5988 -0.1780
    9MOL    C96 2192   0.829   2.452   2.184  0.2150  0.2406 -0.4160
    9MOL    C97 2193   0.707   2.395   2.254  0.0596 -0.1810  0.0869
    9MOL    H98 2194   1.179   2.491   2.367  0.4086 -0.2409  1.0996
    9MOL    H99 2195   1.121   2.606   2.473  0.4150  0.0694 -1.2037
    9MOL   H100 2196   0.903   2.606   2.369 -0.0260 -0.9719 -0.3095
    9MOL   H101 2197   0.851   2.381   2.105  3.8734 -0.4449  1.1260
    9MOL   H102 2198   0.807   2.551   2.145  1.1851 -0.1857 -2.0542
    9MOL   H103 2199   0.677   2.448   2.344 -0.8873  0.3589 -0.5410
    9MOL   H104 2200   0.623   2.397   2.184  1.1369 -1.5873 -1.2809
    9MOL   H105 2201   0.725   2.290   2.278  2.0475 -0.2021 -1.3250
    9MOL   C106 2202   1.037   2.660   2.204  0.1716 -0.2698  0.3524
    9MOL   C107 2203   1.113   2.786   2.244  0.0258 -0.4399 -0.5967
    9MOL   O108 2204   1.017   2.850   2.334 -0.0143  0.4150 -0.2080
    9MOL   C109 2205   1.067   2.950   2.410 -0.0963 -0.6943 -0.0732
    9MOL   C110 2206   0.962   3.023   2.492  0.1948  0.0523  0.2243
    9MOL   H111 2207   0.958   2.700   2.140 -1.1052 -1.3521  1.2214
    9MOL   H112 2208   1.105   2.610   2.135  1.6561 -0.6683  2.0696
    9MOL   H113 2209   1.201   2.761   2.303  1.3076  2.5035 -1.1612
    9MOL   H114 2210   1.119   3.021   2.345 -1.3351 -0.2190 -0.5474
    9MOL   H115 2211   1.137   2.901   2.478 -0.3471 -2.1224 -0.8342
    9MOL   H116 2212   0.911   2.955   2.560  1.0113 -0.2829  0.5098
    9MOL   H117 2213   1.011   3.102   2.549 -0.8935  1.7393 -1.1471
    9MOL   H118 2214   0.882   3.066   2.433 -1.7205 -1.7268  1.4760
    9MOL   C119 2215   1.163   2.868   2.122 -0.3934 -0.2510  0.1502
    9MOL   C120 2216   1.254   2.801   2.013  0.5720 -0.3082 -0.6893
    9MOL   O121 2217   1.351   2.727   2.084 -0.1022  0.3756 -0.7003
    9MOL   C122 2218   1.409   2.622   2.020 -0.1663  0.4348  0.2143
    9MOL   C123 2219   1.541   2.580   2.078  0.0265 -0.2231 -0.6625
    9MOL   H124 2220   1.213   2.958   2.157  1.5049 -0.8743 -0.8655
    9MOL   H125 2221   1.068   2.889   2.072 -1.2571  0.6408  2.1200
    9MOL   H126 2222   1.200   2.723   1.959 -0.4342 -1.6999  2.1908
    9MOL   H127 2223   1.418   2.639   1.913 -1.5137 -0.4237 -0.0499
    9MOL   H128 2224   1.342   2.536   2.019 -1.8321  1.7276 -0.9409
    9MOL   H129 2225   1.518   2.557   2.182 -1.6873  0.5666 -0.8657
    9MOL   H130 2226   1.578   2.490   2.028 -1.5064 -1.8885  1.1427
    9MOL   H131 2227   1.624   2.649   2.063  1.0018 -1.7592 -2.6437
    9MOL   C132 2228   1.319   2.905   1.921  0.3961  0.2590 -0.2856
    9MOL   C133 2229   1.223   3.017   1.875 -0.9764  0.0536  0.4735
    9MOL   O134 2230   1.110   2.958   1.808 -0.0033 -0.1477  0.4776
    9MOL   C135 2231   0.991   3.032   1.828 -0.1707 -0.8386 -0.2918
    9MOL   C136 2232   0.882   2.961   1.752  0.3389 -0.0928 -0.2269
    9MOL   H137 2233   1.369   2.850   1.841 -0.9973  0.8422 -1.5780
    9MOL   H138 2234   1.404   2.941   1.979 -1.2056  1.4137  1.4168
    9MOL   H139 2235   1.198   3.070   1.966  3.2675 -0.1846  1.9044
    9MOL   H140 2236   1.007   3.138   1.809 -0.5805 -0.1749  2.7995
    9MOL   H141 2237   0.962   3.040   1.933 -2.8513  0.8096 -1.1125
    9MOL   H142 2238   0.790   3.011   1.784 -1.3806 -1.1967 -3.2880
    9MOL   H143 2239   0.898   2.970   1.645 -2.6816 -0.2465 -0.7340
    9MOL   H144 2240   0.880   2.856   1.782  0.1871 -0.7165 -2.3862
    9MOL   C145 2241   1.290   3.106   1.774  0.0023  0.6987  1.1704
    9MOL   C146 2242   1.423   3.174   1.808  0.1517 -0.2213 -0.1690
    9MOL   O147 2243   1.539   3.095   1.809  0.2543  0.5174  0.0854
    9MOL   C148 2244   1.598   3.060   1.687  0.1827 -0.4415  0.4257
    9MOL   C149 2245   1.735   3.014   1.743 -0.3381  0.1427 -0.7755
    9MOL   H150 2246   1.220   3.180   1.736 -2.6668 -3.4442 -2.4870
    9MOL   H151 2247   1.303   3.044   1.685 -2.8249  1.8922 -0.1332
    9MOL   H152 2248   1.432   3.252   1.733 -1.4614 -0.2527 -0.4236
    9MOL   H153 2249   1.614   3.139   1.614 -0.7464 -0.7333 -0.1038
    9MOL   H154 2250   1.531   2.980   1.653 -1.3894  0.6514  0.8884
    9MOL   H155 2251   1.796   3.101   1.767  1.6405 -1.7302  1.2115
    9MOL   H156 2252   1.722   2.950   1.830 -3.7256 -0.1866 -1.4657
    9MOL   H157 2253   1.793   2.959   1.669 -1.0913 -2.0415  0.2433
    9MOL   C158 2254   1.407   3.246   1.941  0.5928 -0.2384  0.0278
    9MOL   C159 2255   1.519   3.353   1.980  0.4233  0.4787 -0.2339
    9MOL   O160 2256   1.531   3.348   2.117  0.8668 -0.0175 -0.4342
    9MOL   C161 2257   1.657   3.380   2.172  0.1524  0.6110 -0.2608
    9MOL   C162 2258   1.645   3.365   2.318 -0.2491  0.6201  0.0746
    9MOL   H163 2259   1.414   3.166   2.015 -1.2208 -0.5408 -0.1158
    9MOL   H164 2260   1.306   3.284   1.954 -0.0974 -1.9970 -0.0664
    9MOL   H165 2261   1.614   3.322   1.937 -0.7269 -3.4402 -0.2046
    9MOL   H166 2262   1.688   3.482   2.147 -1.1947  1.5457  1.7103
    9MOL   H167 2263   1.723   3.299   2.144  1.5874  1.5778  0.2381
    9MOL   H168 2264   1.679   3.267   2.352  1.1075  1.6487  1.7705
    9MOL   H169 2265   1.695   3.447   2.371  0.2637  1.1880 -1.2611
    9MOL   H170 2266   1.540   3.373   2.344 -0.6464 -2.0583 -0.5742
    9MOL   C171 2267   1.478   3.497   1.942 -0.0823  0.5759 -0.4402
    9MOL   C172 2268   1.441   3.539   1.796  0.9234  0.4640  0.0200
    9MOL   O173 2269   1.571   3.551   1.736  0.5172 -0.4114  0.8754
    9MOL   C174 2270   1.602   3.446   1.635  1.1919 -0.2777  0.5097
    9MOL   C175 2271   1.720   3.493   1.549 -0.5753 -0.2184 -0.4400
    9MOL   H176 2272   1.553   3.572   1.966 -1.1473  1.6352 -0.3831
    9MOL   H177 2273   1.397   3.519   2.011  0.7622 -2.4230  1.5998
    9MOL   H178 2274   1.381   3.459   1.751  3.3136  0.0028 -2.5046
    9MOL   H179 2275   1.509   3.430   1.581  1.4149  0.8736 -0.2266
    9MOL   H180 2276   1.634   3.362   1.697  1.2944 -0.0938  0.7065
    9MOL   H181 2277   1.699   3.579   1.486 -0.5796  0.6133  0.6842
    9MOL   H182 2278   1.808   3.518   1.608 -0.3506 -2.1799  0.1069
    9MOL   H183 2279   1.741   3.411   1.480 -0.3182 -2.3990  2.1222
    9MOL   C184 2280   1.372   3.670   1.785  0.5098 -0.8027 -0.1307
    9MOL   C185 2281   1.218   3.664   1.821  0.1973 -0.1546 -0.6064
    9MOL   O186 2282   1.150   3.566   1.748 -0.1997 -0.2074 -0.7448
    9MOL   C187 2283   1.031   3.511   1.806  0.4717  0.4152 -0.4523
    9MOL   C188 2284   1.001   3.397   1.709  0.2683 -0.0004 -0.3064
    9MOL   H189 2285   1.389   3.706   1.683 -0.3019 -1.5180 -0.5296
    9MOL   H190 2286   1.427   3.741   1.847 -1.0433 -0.4193  0.8397
    9MOL   H191 2287   1.204   3.650   1.928 -0.4883  1.7675 -0.4192
    9MOL   H192 2288   0.954   3.588   1.809  1.7486  1.6832  0.5413
    9MOL   H193 2289   1.056   3.470   1.904  0.3903 -0.3514 -0.7461
    9MOL   H194 2290   0.942   3.433   1.625 -1.1437 -1.1751  0.1588
    9MOL   H195 2291   1.084   3.337   1.673  0.7775  0.0905  0.6853
    9MOL   H196 2292   0.937   3.328   1.764 -0.2479  0.4659 -0.3164
    9MOL   C197 2293   1.147   3.801   1.800 -0.1856 -0.3580  0.2042
    9MOL   C198 2294   1.209   3.922   1.881  0.6797 -0.2450  0.0742
    9MOL   O199 2295   1.172   3.898   2.024 -0.2094 -0.6137  0.1003
    9MOL   C200 2296   1.288   3.853   2.101  0.0104 -0.1152  0.9025
    9MOL   C201 2297   1.249   3.819   2.243  0.3439  0.2612  0.0477
    9MOL   H202 2298   1.041   3.780   1.811 -0.5741  0.9862 -0.7859
    9MOL   H203 2299   1.160   3.827   1.695  4.4124 -0.0001  0.7538
    9MOL   H204 2300   1.316   3.931   1.864  0.1862 -0.3518 -3.5245
    9MOL   H205 2301   1.361   3.934   2.105  1.7344 -1.5729  0.0945
    9MOL   H206 2302   1.346   3.771   2.057 -0.9628 -0.1664 -0.3047
    9MOL   H207 2303   1.182   3.733   2.234  2.3430 -1.1215 -2.4250
    9MOL   H208 2304   1.326   3.764   2.298  1.1375  0.8048 -0.5080
    9MOL   H209 2305   1.186   3.895   2.289 -0.9636 -1.8768  1.9234
    9MOL   C210 2306   1.144   4.055   1.838 -0.0860  0.7086 -0.5529
    9MOL   C211 2307   1.179   4.103   1.702  0.3477  0.1043 -0.3079
    9MOL   O212 2308   1.297   4.180   1.701  0.5362 -0.3358 -0.5955
    9MOL   C213 2309   1.389   4.154   1.598 -0.0256  0.5912 -0.9872
    9MOL   C214 2310   1.486   4.038   1.633 -0.0855 -0.0987  0.6495
    9MOL   H215 2311   1.164   4.133   1.912 -1.0324 -0.3719  0.8864
    9MOL   H216 2312   1.036   4.042   1.842 -0.2460  2.1584  0.2332
    9MOL   H217 2313   1.193   4.019   1.633  0.8709 -1.4231  1.6257
    9MOL   H218 2314   1.435   4.249   1.575  0.6804  0.3928 -0.3976
    9MOL   H219 2315   1.336   4.127   1.506  1.3496 -2.0108 -1.0886
    9MOL   H220 2316   1.552   4.067   1.715 -0.9718  2.1738  0.6070
    9MOL   H221 2317   1.432   3.947   1.657 -1.1291  0.7442  1.5796
    9MOL   H222 2318   1.554   4.013   1.552 -0.0032  0.8274  0.4203
    9MOL   C223 2319   1.076   4.199   1.633 -0.7707 -0.0635  0.0035
    9MOL   C224 2320   0.935   4.135   1.603  0.6004  0.4601  0.1454
    9MOL   O225 2321   0.946   3.998   1.556  0.2627  0.7735  0.2054
    9MOL   C226 2322   0.838   3.915   1.608  0.0154 -0.3198  0.3963
    9MOL   C227 2323   0.873   3.777   1.549  0.0420  0.1471  0.7160
    9MOL   H228 2324   1.120   4.228   1.538 -1.3894  1.5193  0.1743
    9MOL   H229 2325   1.069   4.294   1.686 -0.9371 -0.1118  0.0699
    9MOL   H230 2326   0.870   4.128   1.690  2.2127  1.6046  1.4780
    9MOL   H231 2327   0.741   3.949   1.574  1.4295  2.4344 -1.0014
    9MOL   H232 2328   0.836   3.923   1.717  2.2532  1.3060  0.3573
    9MOL   H233 2329   0.875   3.769   1.440  0.3177  0.9163  0.6626
    9MOL   H234 2330   0.960   3.728   1.592  0.8631 -0.2524 -1.3235
    9MOL   H235 2331   0.791   3.713   1.582 -0.6136  0.6878  0.1505
    9MOL   C236 2332   0.845   4.201   1.499 -0.0633  0.0278  0.1504
    9MOL   C237 2333   0.801   4.342   1.532  0.6925 -0.1794  0.0944
    9MOL   O238 2334   0.713   4.326   1.639 -0.1630  0.6089 -0.6277
    9MOL   C239 2335   0.748   4.388   1.765  0.5405 -0.2647 -0.3718
    9MOL   C240 2336   0.639   4.357   1.863 -0.8767 -0.1552 -0.4861
    9MOL   H241 2337   0.759   4.136   1.484 -0.1332  0.3809 -1.0985
    9MOL   H242 2338   0.902   4.195   1.406 -0.0564 -4.5355  0.3267
    9MOL   H243 2339   0.884   4.408   1.556  2.5971 -1.7630 -1.9598
    9MOL   H244 2340   0.755   4.496   1.774  1.7463 -0.4548  1.0316
    9MOL   H245 2341   0.844   4.355   1.805  0.2472  1.9873  2.3285
    9MOL   H246 2342   0.678   4.372   1.964  1.6428 -1.1923 -1.2451
    9MOL   H247 2343   0.554   4.425   1.860 -0.7535  0.2493  3.0412
    9MOL   H248 2344   0.612   4.252   1.854 -0.4367 -0.3729  0.6406
    9MOL   C249 2345   0.721   4.409   1.413  0.0932 -0.0684 -0.4762
    9MOL   C250 2346   0.662   4.546   1.441 -0.0940 -0.5185 -0.4860
    9MOL   O251 2347   0.625   4.610   1.319 -0.6020  0.2203 -0.5879
    9MOL   C252 2348   0.567   4.732   1.334 -0.0799  0.2788  0.4655
    9MOL   C253 2349   0.507   4.787   1.209  0.1059 -0.5822 -0.7881
    9MOL   H254 2350   0.636   4.347   1.383  0.1011 -0.5728  0.5302
    9MOL   H255 2351   0.798   4.412   1.336 -0.7975 -1.9762 -1.4791
    9MOL   H256 2352   0.577   4.553   1.509  1.5743  1.4899  1.4406
    9MOL   H257 2353   0.648   4.796   1.369 -0.0345 -0.1089  1.0716
    9MOL   H258 2354   0.501   4.731   1.421 -2.3878  0.4530 -1.2192
    9MOL   H259 2355   0.476   4.889   1.234  0.0145 -0.8446  0.1939
    9MOL   H260 2356   0.579   4.772   1.128  0.1932  1.4309 -1.1299
    9MOL   H261 2357   0.422   4.736   1.166  0.0325 -0.2020 -1.0986
    9MOL   H262 2358   0.732   4.613   1.490 -3.8734  3.0662  0.2836
   10MOL     C1 2359   4.352   3.588   5.187 -0.6595 -0.1277 -0.8767
   10MOL     C2 2360   4.421   3.713   5.120  0.0893 -0.3358 -0.7310
   10MOL     O3 2361   4.468   3.791   5.224  0.1447 -0.2703  0.3254
   10MOL     C4 2362   4.612   3.797   5.244  0.0651 -0.3373  0.2150
   10MOL     C5 2363   4.642   3.900   5.350  0.2595 -1.5221  0.4927
   10MOL     H6 2364   4.424   3.522   5.236 -0.9824 -0.0380 -0.2758
   10MOL     H7 2365   4.280   3.623   5.261 -0.8924 -2.0871 -0.1600
   10MOL     H8 2366   4.502   3.692   5.050  1.8916  0.8719  0.9149
   10MOL     H9 2367   4.656   3.830   5.150 -1.4656 -0.5403 -0.5793
   10MOL    H10 2368   4.640   3.694   5.269 -0.5684 -0.0380  2.2874
   10MOL    H11 2369   4.601   3.876   5.448 -0.9502  2.2202  1.0041
   10MOL    H12 2370   4.749   3.909   5.366  0.4586 -0.3830 -1.2917
   10MOL    H13 2371   4.609   3.996   5.308 -0.1163 -1.0147  1.9255
   10MOL    H14 2372   4.306   3.523   5.113 -1.7404 -0.6530  0.2476
   10MOL    C15 2373   4.321   3.790   5.042 -0.8099 -0.0712 -0.2911
   10MOL    C16 2374   4.350   3.932   4.990  0.1930 -0.3000  0.4436
   10MOL    O17 2375   4.233   3.984   4.929 -0.2490  0.1198  0.8772
   10MOL    C18 2376   4.158   4.065   5.018 -0.0873 -0.3884  0.9160
   10MOL    C19 2377   4.029   4.116   4.960  0.1976 -0.3193  0.6405
   10MOL    H20 2378   4.229   3.791   5.100 -0.5773 -0.1030  0.0761
   10MOL    H21 2379   4.287   3.730   4.957  2.3639 -2.1387 -0.1735
   10MOL    H22 2380   4.374   3.991   5.078  1.0154  0.3795 -0.2319
   10MOL    H23 2381   4.227   4.144   5.048 -1.5124 -0.0022  3.2862
   10MOL    H24 2382   4.153   4.010   5.113 -0.5380 -0.9616  0.5588
   10MOL    H25 2383   4.056   4.188   4.882  0.1478  1.6397  2.3875
   10MOL    H26 2384   3.971   4.166   5.037 -0.1571 -1.1913  0.9434
   10MOL    H27 2385   3.979   4.039   4.901 -0.6212 -0.8585  2.0318
   10MOL    C28 2386   4.470   3.939   4.885  0.6131 -0.4009 -0.2362
   10MOL    C29 2387   4.448   3.864   4.757  0.5295 -0.6293  0.2377
   10MOL    O30 2388   4.455   3.725   4.785  0.0906  0.1853 -0.1245
   10MOL    C31 2389   4.382   3.636   4.704  0.5807 -0.7236 -0.1205
   10MOL    C32 2390   4.386   3.496   4.761 -0.5709  0.0632  0.3515
   10MOL    H33 2391   4.560   3.895   4.930 -0.3525 -0.7264  1.4268
   10MOL    H34 2392   4.502   4.043   4.879  2.7967 -1.1476 -2.7102
   10MOL    H35 2393   4.348   3.890   4.722  1.0655  1.3627  0.0831
   10MOL    H36 2394   4.417   3.630   4.601 -0.2083 -2.5555 -0.3119
   10MOL    H37 2395   4.276   3.660   4.711  0.8799  0.4644  0.4565
   10MOL    H38 2396   4.492   3.469   4.765 -0.8769 -1.5169 -1.0829
   10MOL    H39 2397   4.343   3.483   4.860 -1.9678  0.0113 -0.2518
   10MOL    H40 2398   4.327   3.423   4.704 -2.3878  0.0540  2.1807
   10MOL    C41 2399   4.556   3.888   4.642  0.1725 -0.6287 -0.9126
   10MOL    C42 2400   4.568   4.032   4.593 -0.8142  0.6053  0.4460
   10MOL    O43 2401   4.486   4.044   4.481  0.4013 -0.3978  0.1422
   10MOL    C44 2402   4.416   4.164   4.471 -0.0656 -0.1742 -0.1397
   10MOL    C45 2403   4.294   4.172   4.570 -0.1248 -0.2303 -0.1129
   10MOL    H46 2404   4.548   3.825   4.553  2.0555 -3.1795  0.6260
   10MOL    H47 2405   4.653   3.859   4.684 -0.4321 -0.8527  0.3387
   10MOL    H48 2406   4.534   4.102   4.669  0.2186  1.9840 -0.3434
   10MOL    H49 2407   4.388   4.170   4.366 -2.1529 -1.2614  0.3253
   10MOL    H50 2408   4.484   4.248   4.487  2.3987 -2.3886  1.4375
   10MOL    H51 2409   4.312   4.144   4.674  0.0582  0.4993  0.0540
   10MOL    H52 2410   4.244   4.269   4.578 -1.6720 -0.9560 -0.7370
   10MOL    H53 2411   4.222   4.096   4.540 -0.3853 -0.5719  1.3550
   10MOL    C54 2412   4.706   4.061   4.542  0.1837 -0.2831  0.5497
   10MOL    C55 2413   4.818   4.076   4.639  0.2035  0.0660 -0.7727
   10MOL    O56 2414   4.805   4.203   4.713  0.6538 -0.1271  0.0807
   10MOL    C57 2415   4.866   4.200   4.843  0.3440 -0.0697  1.1810
   10MOL    C58 2416   4.944   4.327   4.856 -0.1385  0.4708  0.6479
   10MOL    H59 2417   4.703   4.152   4.482 -0.9776 -1.1086 -0.6733
   10MOL    H60 2418   4.729   3.988   4.464 -2.2794 -0.5418  0.0144
   10MOL    H61 2419   4.823   3.991   4.707  1.5260 -0.3441 -1.3726
   10MOL    H62 2420   4.917   4.105   4.864  0.1646 -0.0456  1.7488
   10MOL    H63 2421   4.785   4.214   4.915 -0.9698  2.7164 -0.7816
   10MOL    H64 2422   4.976   4.377   4.764  1.7036  0.4883  1.2902
   10MOL    H65 2423   4.894   4.399   4.921 -0.8018  0.7449 -0.1480
   10MOL    H66 2424   5.044   4.315   4.897 -0.2947 -1.8198  0.3982
   10MOL    C67 2425   4.952   4.096   4.562  0.5937 -0.8541  0.3212
   10MOL    C68 2426   5.015   3.971   4.496  0.3232 -0.1946  0.6094
   10MOL    O69 2427   4.952   3.937   4.369  0.4903  0.0600  0.3143
   10MOL    C70 2428   4.975   4.027   4.261  0.6889  0.5227  0.3154
   10MOL    C71 2429   4.920   3.971   4.129 -0.4600 -0.6149  0.0083
   10MOL    H72 2430   5.027   4.130   4.634  0.2869 -0.1056  0.2919
   10MOL    H73 2431   4.936   4.173   4.487  2.3446 -1.5244 -0.7700
   10MOL    H74 2432   5.120   4.000   4.487  0.1968  1.0617  2.8522
   10MOL    H75 2433   5.082   4.044   4.247  0.5023  1.9238  0.5744
   10MOL    H76 2434   4.936   4.126   4.281  3.0901  1.9094 -1.5734
   10MOL    H77 2435   4.934   4.037   4.043 -0.7662 -0.5386  0.0180
   10MOL    H78 2436   4.968   3.874   4.111  0.3815 -0.5022  1.5478
   10MOL    H79 2437   4.812   3.955   4.136 -0.4452 -1.6741 -1.7203
   10MOL    C80 2438   5.005   3.847   4.592  0.4236 -0.2865  0.0712
   10MOL    C81 2439   5.088   3.726   4.552 -0.2428 -0.1187 -0.6166
   10MOL    O82 2440   5.009   3.612   4.556 -0.0693 -0.2786 -0.1505
   10MOL    C83 2441   4.919   3.597   4.444  0.5795 -0.2181 -0.1866
   10MOL    C84 2442   4.839   3.469   4.474 -0.8752  0.4628 -0.5120
   10MOL    H85 2443   4.900   3.819   4.591  0.5783 -0.8614 -1.2644
   10MOL    H86 2444   5.030   3.885   4.691  0.0220  0.8586 -0.2603
   10MOL    H87 2445   5.130   3.738   4.452  1.9408  2.6458  0.5560
   10MOL    H88 2446   4.968   3.583   4.348 -1.4975  1.3668 -1.5140
   10MOL    H89 2447   4.862   3.687   4.422  0.8542  0.4587  1.8040
   10MOL    H90 2448   4.785   3.469   4.569 -0.0335  0.5586 -0.0322
   10MOL    H91 2449   4.768   3.448   4.394 -1.1509  0.7426 -0.3406
   10MOL    H92 2450   4.911   3.388   4.478 -0.5686  0.7989  1.4001
   10MOL    C93 2451   5.206   3.703   4.649 -0.0154  0.0972  0.2170
   10MOL    C94 2452   5.323   3.809   4.640 -0.0382  0.3751  0.1328
   10MOL    O95 2453   5.275   3.937   4.687 -0.2016  0.4171  0.1021
   10MOL    C96 2454   5.370   4.027   4.741 -0.1893 -0.1906 -0.2720
   10MOL    C97 2455   5.289   4.149   4.774  0.0470 -0.3280  0.4197
   10MOL    H98 2456   5.252   3.610   4.616  0.0397  0.9412 -2.1280
   10MOL    H99 2457   5.180   3.692   4.755  0.6254 -1.2722  0.2517
   10MOL   H100 2458   5.405   3.772   4.702 -0.1203  0.3997  0.2557
   10MOL   H101 2459   5.441   4.060   4.666 -1.5626  1.7474 -0.7634
   10MOL   H102 2460   5.412   3.999   4.838  1.4033  0.3670 -0.7750
   10MOL   H103 2461   5.204   4.134   4.840 -0.9583 -0.8887 -0.9805
   10MOL   H104 2462   5.349   4.231   4.814 -1.3308 -0.2994  2.4957
   10MOL   H105 2463   5.263   4.201   4.682  1.1899  0.1943  0.3762
   10MOL   C106 2464   5.393   3.834   4.495  0.6374  0.5969 -0.6486
   10MOL   C107 2465   5.543   3.828   4.495 -0.2297 -0.6681 -0.7634
   10MOL   O108 2466   5.603   3.868   4.372  0.1195  0.1470 -0.4905
   10MOL   C109 2467   5.583   4.008   4.347  0.6622  0.1233  0.8445
   10MOL   C110 2468   5.672   4.046   4.229  0.5670  0.5332  0.2496
   10MOL   H111 2469   5.357   3.936   4.477 -0.8247 -0.0019 -1.1927
   10MOL   H112 2470   5.347   3.764   4.426  0.4043  0.6769 -0.5753
   10MOL   H113 2471   5.584   3.894   4.571  1.2463 -1.2548 -1.0372
   10MOL   H114 2472   5.614   4.071   4.430  2.3074  0.1420  0.2463
   10MOL   H115 2473   5.476   4.025   4.338  0.8912  0.5766 -1.2346
   10MOL   H116 2474   5.652   4.151   4.207  1.8443  0.5655 -0.8665
   10MOL   H117 2475   5.779   4.042   4.249  0.7267  0.1152 -0.6482
   10MOL   H118 2476   5.639   3.992   4.140  1.0199  0.8993 -0.1479
   10MOL   C119 2477   5.589   3.680   4.505  0.4002  0.4550  0.9107
   10MOL   C120 2478   5.735   3.667   4.529  0.0132  0.2671  0.8403
   10MOL   O121 2479   5.766   3.526   4.504 -0.2777 -0.0718  0.7093
   10MOL   C122 2480   5.812   3.491   4.379 -0.3307  0.5212 -0.1265
   10MOL   C123 2481   5.877   3.358   4.396  0.6032 -0.1037  0.1990
   10MOL   H124 2482   5.558   3.648   4.406 -1.8253  0.5207  1.5688
   10MOL   H125 2483   5.527   3.634   4.582 -0.4138  0.4056  0.2233
   10MOL   H126 2484   5.792   3.731   4.462  0.6494 -1.0920  0.0370
   10MOL   H127 2485   5.900   3.551   4.356  0.3795 -0.7720 -0.8604
   10MOL   H128 2486   5.734   3.491   4.303 -1.0649 -1.9717  0.5516
   10MOL   H129 2487   5.965   3.349   4.332  1.2814  1.4544  0.8795
   10MOL   H130 2488   5.903   3.342   4.500 -3.4944  0.5652  1.3856
   10MOL   H131 2489   5.824   3.268   4.367 -0.2175 -0.1762  1.9140
   10MOL   C132 2490   5.784   3.689   4.674 -0.2273 -0.7416 -0.3060
   10MOL   C133 2491   5.933   3.682   4.712 -0.1422 -0.6652 -0.0315
   10MOL   O134 2492   5.939   3.697   4.853 -0.6845  0.2534 -0.4090
   10MOL   C135 2493   5.940   3.572   4.921  0.2579 -1.4672  0.1687
   10MOL   C136 2494   5.899   3.603   5.069 -0.9715  0.3627  0.1842
   10MOL   H137 2495   5.727   3.612   4.726  1.0348 -1.0013  0.7240
   10MOL   H138 2496   5.754   3.788   4.708 -1.1132 -0.8609 -0.7156
   10MOL   H139 2497   5.965   3.583   4.676 -0.3815 -0.4801 -0.7649
   10MOL   H140 2498   6.041   3.530   4.914  0.2415 -1.2665 -1.5425
   10MOL   H141 2499   5.866   3.503   4.879 -0.6319 -0.5282  0.1858
   10MOL   H142 2500   5.966   3.665   5.128  1.3267 -0.3923 -1.5564
   10MOL   H143 2501   5.801   3.650   5.071 -1.0827  0.2849 -1.8153
   10MOL   H144 2502   5.880   3.517   5.133  0.6910  1.3633  2.0525
   10MOL   C145 2503   6.043   3.785   4.659  0.1261  0.5207 -0.5331
   10MOL   C146 2504   6.194   3.748   4.688  0.5428 -0.1485 -0.8307
   10MOL   O147 2505   6.280   3.861   4.666  0.8584  0.3673  0.2249
   10MOL   C148 2506   6.285   3.962   4.770 -0.0046 -0.5256  0.2366
   10MOL   C149 2507   6.383   4.077   4.754 -0.0331  0.3144 -0.1274
   10MOL   H150 2508   6.024   3.885   4.700 -0.6588 -1.0857  3.2131
   10MOL   H151 2509   6.031   3.797   4.552 -1.8787 -0.6134 -0.4572
   10MOL   H152 2510   6.190   3.733   4.795  1.8055 -1.3877 -0.9492
   10MOL   H153 2511   6.305   3.905   4.860 -1.3874 -2.3458 -0.5813
   10MOL   H154 2512   6.188   4.009   4.786  0.6894  1.8910 -2.1997
   10MOL   H155 2513   6.369   4.143   4.669 -1.4482  2.0905  1.4606
   10MOL   H156 2514   6.389   4.138   4.843  1.0189 -0.3667  0.2848
   10MOL   H157 2515   6.477   4.027   4.729 -0.5988 -1.0681  0.4712
   10MOL   C158 2516   6.243   3.626   4.600  0.0147 -0.2893 -1.1157
   10MOL   C159 2517   6.350   3.545   4.676 -0.3271 -0.1746 -0.6647
   10MOL   O160 2518   6.408   3.468   4.577 -0.0240 -0.4155 -0.1006
   10MOL   C161 2519   6.543   3.491   4.531 -0.0171 -0.2334 -0.1843
   10MOL   C162 2520   6.586   3.414   4.402  0.4870 -0.0637 -0.3119
   10MOL   H163 2521   6.282   3.674   4.510  0.9064  0.2234 -0.4623
   10MOL   H164 2522   6.164   3.564   4.557  1.2897 -2.2179 -0.7147
   10MOL   H165 2523   6.406   3.630   4.716 -0.0546  0.0300 -1.4827
   10MOL   H166 2524   6.619   3.475   4.608  1.0645  1.7634 -0.7952
   10MOL   H167 2525   6.541   3.597   4.507  1.1812 -0.4752 -1.4302
   10MOL   H168 2526   6.668   3.461   4.348 -1.4803  1.3301 -2.1607
   10MOL   H169 2527   6.606   3.309   4.421 -1.2006 -0.2552  0.5293
   10MOL   H170 2528   6.507   3.419   4.328  1.9561 -2.1390 -2.0854
   10MOL   C171 2529   6.302   3.467   4.806 -0.1851 -0.0671  0.2650
   10MOL   C172 2530   6.419   3.380   4.868 -0.3491 -0.0965  0.2166
   10MOL   O173 2531   6.370   3.290   4.969  0.2123 -0.6750  0.5296
   10MOL   C174 2532   6.300   3.172   4.929 -1.0985 -0.4887 -0.2120
   10MOL   C175 2533   6.145   3.186   4.954  0.6467 -0.3721  0.6413
   10MOL   H176 2534   6.218   3.408   4.770  0.7217 -0.4522 -1.3180
   10MOL   H177 2535   6.263   3.533   4.882 -0.1924  1.1530 -0.7785
   10MOL   H178 2536   6.463   3.315   4.792 -0.0919  1.2752 -0.8358
   10MOL   H179 2537   6.346   3.097   4.994  0.2163  1.1442  0.7999
   10MOL   H180 2538   6.318   3.130   4.830  1.6400  1.2770 -0.5413
   10MOL   H181 2539   6.121   3.209   5.058  0.6838 -0.8548  0.7606
   10MOL   H182 2540   6.114   3.262   4.882 -1.5675 -1.5782  0.2825
   10MOL   H183 2541   6.097   3.091   4.929  0.6334 -0.3916  0.7386
   10MOL   C184 2542   6.514   3.472   4.945  0.0553  0.5973 -0.2753
   10MOL   C185 2543   6.646   3.413   4.989  0.2044  0.2120 -0.8206
   10MOL   O186 2544   6.651   3.388   5.132 -0.8640 -0.5055  0.1846
   10MOL   C187 2545   6.609   3.258   5.179  0.2554 -0.7185 -0.3584
   10MOL   C188 2546   6.659   3.240   5.326 -0.7302  0.4685  0.0835
   10MOL   H189 2547   6.465   3.503   5.037  1.4374  0.8130  0.4105
   10MOL   H190 2548   6.534   3.562   4.887 -0.3134  0.3150 -0.8473
   10MOL   H191 2549   6.656   3.319   4.934 -0.2680  0.0323 -0.6024
   10MOL   H192 2550   6.643   3.176   5.116  0.5320 -1.5468  0.8741
   10MOL   H193 2551   6.502   3.241   5.195 -0.0610  0.8923 -0.7057
   10MOL   H194 2552   6.767   3.244   5.340 -0.4775 -0.1275 -1.6191
   10MOL   H195 2553   6.617   3.325   5.381 -1.0266  0.9812 -0.9197
   10MOL   H196 2554   6.608   3.150   5.361  0.4645 -0.3447 -0.2644
   10MOL   C197 2555   6.759   3.519   4.953 -0.2575  0.7321  0.0700
   10MOL   C198 2556   6.909   3.478   4.970 -0.1607 -0.5743 -0.7421
   10MOL   O199 2557   6.985   3.586   4.931  0.0777 -0.9723 -0.4161
   10MOL   C200 2558   7.072   3.629   5.030 -0.0019  0.3908  0.4239
   10MOL   C201 2559   7.177   3.733   4.973  0.2165 -0.4249 -0.4647
   10MOL   H202 2560   6.736   3.608   5.011  1.0354  0.6137  0.7788
   10MOL   H203 2561   6.755   3.544   4.847  1.3373 -2.2589 -0.7739
   10MOL   H204 2562   6.918   3.459   5.077  0.5186  1.6505 -0.3819
   10MOL   H205 2563   7.127   3.545   5.072 -2.5174 -0.2643  2.5094
   10MOL   H206 2564   7.007   3.668   5.108 -2.2004 -1.3417 -0.4816
   10MOL   H207 2565   7.251   3.755   5.050 -0.1380  1.1614 -0.5607
   10MOL   H208 2566   7.228   3.688   4.889 -0.6204  1.6302 -2.1224
   10MOL   H209 2567   7.127   3.822   4.934 -0.8975  0.1776  2.1804
   10MOL   C210 2568   6.953   3.365   4.870 -0.8117 -0.3587 -0.5139
   10MOL   C211 2569   6.991   3.221   4.926 -0.1123 -0.0996  0.1725
   10MOL   O212 2570   7.099   3.240   5.022  0.0444 -0.3538 -0.4462
   10MOL   C213 2571   7.066   3.164   5.135 -0.5262 -0.1509  0.4466
   10MOL   C214 2572   7.180   3.162   5.239 -0.1413 -0.6688  0.3171
   10MOL   H215 2573   7.038   3.400   4.812  0.5980 -1.6786  0.7348
   10MOL   H216 2574   6.884   3.349   4.787 -0.6987 -1.0568 -0.4735
   10MOL   H217 2575   6.897   3.183   4.967 -0.9029 -0.7537 -2.1786
   10MOL   H218 2576   7.038   3.062   5.107 -1.9499 -0.3322  2.4252
   10MOL   H219 2577   6.976   3.204   5.181  0.1704  0.7767  1.0021
   10MOL   H220 2578   7.212   3.264   5.259  1.2346 -0.9886 -0.2297
   10MOL   H221 2579   7.138   3.124   5.333 -0.2451  2.4687  1.6090
   10MOL   H222 2580   7.264   3.103   5.202  1.3046  0.9823  0.9132
   10MOL   C223 2581   7.036   3.132   4.813 -0.0323  0.3854  0.4933
   10MOL   C224 2582   6.929   3.081   4.717  0.7130  0.0242 -0.2165
   10MOL   O225 2583   6.848   2.981   4.787 -0.3565 -0.0284  0.5283
   10MOL   C226 2584   6.711   2.980   4.754 -0.6715 -0.0131 -0.0354
   10MOL   C227 2585   6.636   2.917   4.868 -0.3514 -0.5033  0.5755
   10MOL   H228 2586   7.087   3.044   4.853  0.0523  1.0132  1.7707
   10MOL   H229 2587   7.113   3.189   4.761 -0.3406 -0.6007 -1.0607
   10MOL   H230 2588   6.861   3.161   4.688  0.6903  0.7547  1.7345
   10MOL   H231 2589   6.701   2.932   4.657  2.7127  0.2562 -0.5925
   10MOL   H232 2590   6.683   3.085   4.754 -0.1745  0.1215 -0.2801
   10MOL   H233 2591   6.531   2.914   4.839 -0.3003 -1.5347  0.4651
   10MOL   H234 2592   6.666   2.812   4.872 -0.0324 -0.5546 -2.1956
   10MOL   H235 2593   6.641   2.970   4.963  0.7661  2.5768 -1.1351
   10MOL   C236 2594   6.971   3.016   4.589 -0.2177  0.2085 -0.0448
   10MOL   C237 2595   7.058   3.107   4.502  0.0648 -0.4683  0.1441
   10MOL   O238 2596   6.977   3.222   4.483 -0.2026  0.1392  0.1764
   10MOL   C239 2597   7.045   3.339   4.505 -0.0475  0.2866 -0.0351
   10MOL   C240 2598   6.952   3.457   4.505 -0.4096 -1.0427 -0.7386
   10MOL   H241 2599   6.881   2.991   4.532 -1.0433 -0.1352  1.3897
   10MOL   H242 2600   7.034   2.929   4.609 -0.0175  0.7762  1.8411
   10MOL   H243 2601   7.151   3.125   4.555 -0.8881  0.7930  1.4360
   10MOL   H244 2602   7.110   3.362   4.420 -0.3540 -0.8656 -0.5833
   10MOL   H245 2603   7.095   3.344   4.602 -0.7127  2.0054  0.2348
   10MOL   H246 2604   7.003   3.553   4.511 -2.4403 -0.0398  1.1218
   10MOL   H247 2605   6.908   3.457   4.405 -0.1923 -0.4290 -0.8394
   10MOL   H248 2606   6.866   3.452   4.572 -0.1113  0.6918 -0.1934
   10MOL   C249 2607   7.096   3.042   4.370  0.1494 -0.0444  0.0409
   10MOL   C250 2608   7.205   2.932   4.380 -0.0641  0.1977  0.3187
   10MOL   O251 2609   7.258   2.917   4.252 -0.4689  0.5255  0.4558
   10MOL   C252 2610   7.357   2.822   4.245 -0.2646 -0.1880  1.0025
   10MOL   C253 2611   7.308   2.677   4.276  0.3772  0.5219 -0.3250
   10MOL   H254 2612   7.125   3.122   4.301  0.4476  0.5905  0.9023
   10MOL   H255 2613   7.012   2.991   4.322 -1.3305  2.0035  0.4236
   10MOL   H256 2614   7.287   2.966   4.443  1.3701 -1.9533 -0.3227
   10MOL   H257 2615   7.442   2.850   4.307  0.5687 -1.1825  0.3286
   10MOL   H258 2616   7.404   2.818   4.146 -1.6263  1.1080  0.2901
   10MOL   H259 2617   7.390   2.608   4.256  0.6623  0.0395  2.3593
   10MOL   H260 2618   7.290   2.679   4.384 -0.1634 -1.4000 -0.3600
   10MOL   H261 2619   7.218   2.660   4.216  1.0354  0.4099 -1.2843
   10MOL   H262 2620   7.167   2.837   4.420 -0.7479 -0.5804 -2.0978
   11MOL     C1 2621   2.059   4.669   2.654  0.6216  0.2963 -0.0942
   11MOL     C2 2622   1.938   4.595   2.590  1.1286  0.4947  0.0147
   11MOL     O3 2623   1.919   4.641   2.460  0.1483 -0.5680 -0.0426
   11MOL     C4 2624   1.858   4.546   2.366 -0.5661 -0.3576 -1.0657
   11MOL     C5 2625   1.831   4.628   2.242  0.0949 -0.3740 -1.0402
   11MOL     H6 2626   2.144   4.632   2.597 -0.4820 -1.3109 -0.7596
   11MOL     H7 2627   2.046   4.777   2.655 -3.1322 -0.0922  0.4497
   11MOL     H8 2628   1.951   4.487   2.583 -0.5587  0.3459 -1.1166
   11MOL     H9 2629   1.763   4.508   2.405  0.2229 -1.6399 -0.3831
   11MOL    H10 2630   1.916   4.458   2.338  1.4332  0.3628  0.6941
   11MOL    H11 2631   1.770   4.581   2.165 -2.5445 -0.2388  0.8699
   11MOL    H12 2632   1.785   4.723   2.270 -0.1039 -0.9832  0.7770
   11MOL    H13 2633   1.927   4.642   2.194 -0.0293 -1.0073 -1.4678
   11MOL    H14 2634   2.071   4.645   2.759 -2.5050 -0.2218  0.2086
   11MOL    C15 2635   1.805   4.617   2.666 -0.5985 -0.0660  0.1152
   11MOL    C16 2636   1.789   4.540   2.802  0.0571  0.4612 -0.0246
   11MOL    O17 2637   1.767   4.402   2.772 -0.3508  0.5881  0.1948
   11MOL    C18 2638   1.876   4.309   2.788  0.6214  0.2678  0.5909
   11MOL    C19 2639   1.826   4.174   2.723 -0.1674 -0.0367 -0.0711
   11MOL    H20 2640   1.715   4.617   2.603 -0.9069  0.7745  0.5554
   11MOL    H21 2641   1.817   4.724   2.677  0.9118 -0.1862 -0.3291
   11MOL    H22 2642   1.882   4.556   2.856  0.4143 -1.4410 -0.0332
   11MOL    H23 2643   1.893   4.290   2.894 -2.1838  3.6756  1.7806
   11MOL    H24 2644   1.966   4.350   2.743  1.0449 -0.8219  0.4467
   11MOL    H25 2645   1.909   4.104   2.718 -1.6648 -2.0128  1.9616
   11MOL    H26 2646   1.791   4.190   2.621 -1.2624 -1.0454  0.1355
   11MOL    H27 2647   1.738   4.139   2.778 -1.4516  0.3822 -1.8057
   11MOL    C28 2648   1.668   4.584   2.890  0.1443  1.0933  1.2819
   11MOL    C29 2649   1.662   4.738   2.901 -0.4708  0.2398 -0.2964
   11MOL    O30 2650   1.781   4.787   2.971 -0.1526 -0.1834 -0.2797
   11MOL    C31 2651   1.822   4.912   2.923 -0.5325 -0.1611 -0.2687
   11MOL    C32 2652   1.929   4.978   3.017  0.4719  0.1659 -0.2336
   11MOL    H33 2653   1.684   4.539   2.988  0.0215  2.3633  1.8974
   11MOL    H34 2654   1.574   4.547   2.849  2.1650 -1.9261 -0.8530
   11MOL    H35 2655   1.661   4.795   2.809  0.5867 -0.8655 -1.0150
   11MOL    H36 2656   1.736   4.978   2.911  0.5196  1.0739 -1.1905
   11MOL    H37 2657   1.871   4.893   2.827  1.2255  0.6661  0.4521
   11MOL    H38 2658   1.990   5.063   2.987 -1.6114  0.7771 -2.9028
   11MOL    H39 2659   1.886   5.017   3.109  0.7281  0.5047 -0.2559
   11MOL    H40 2660   1.995   4.892   3.034  0.6068  0.4834  0.8345
   11MOL    C41 2661   1.538   4.768   2.988 -0.0361  0.0208 -0.4819
   11MOL    C42 2662   1.398   4.755   2.921 -0.8197 -0.4230  0.4020
   11MOL    O43 2663   1.405   4.849   2.809  0.9306  0.3259 -0.9561
   11MOL    C44 2664   1.396   4.796   2.682 -0.5488  0.3721  0.3858
   11MOL    C45 2665   1.409   4.909   2.588 -0.5494 -0.3433  0.0659
   11MOL    H46 2666   1.546   4.868   3.030 -1.5307 -0.5226  1.1635
   11MOL    H47 2667   1.536   4.717   3.085  2.4239  2.7027  1.0726
   11MOL    H48 2668   1.377   4.652   2.893 -1.9964  0.3793 -1.8327
   11MOL    H49 2669   1.298   4.749   2.690 -0.4118 -0.0036 -0.0699
   11MOL    H50 2670   1.472   4.722   2.655 -0.2804  0.9151 -0.3703
   11MOL    H51 2671   1.508   4.954   2.597 -1.1741  0.9945  0.3084
   11MOL    H52 2672   1.399   4.877   2.484  0.8362 -0.4808 -0.0440
   11MOL    H53 2673   1.341   4.988   2.617 -0.2568 -0.5117  1.2131
   11MOL    C54 2674   1.286   4.807   3.013 -0.2296 -0.5644 -0.2993
   11MOL    C55 2675   1.149   4.834   2.950 -0.0955  0.0356  0.1961
   11MOL    O56 2676   1.064   4.911   3.028 -0.5094 -0.4490 -0.7599
   11MOL    C57 2677   1.105   5.041   3.048 -0.1458  0.6837  0.4770
   11MOL    C58 2678   0.989   5.120   3.107  0.1309  0.3582  0.0577
   11MOL    H59 2679   1.330   4.896   3.059  1.5899  0.1439 -3.3004
   11MOL    H60 2680   1.270   4.732   3.091  1.7280 -0.2148  0.4685
   11MOL    H61 2681   1.161   4.885   2.854 -0.9151 -0.4405 -0.1755
   11MOL    H62 2682   1.146   5.073   2.953  1.5767  0.7090  1.2202
   11MOL    H63 2683   1.192   5.037   3.113  0.5365  0.9427 -0.4127
   11MOL    H64 2684   0.994   5.121   3.215 -1.2603  1.5160  0.1267
   11MOL    H65 2685   1.000   5.225   3.080  1.0788  0.4395  0.7453
   11MOL    H66 2686   0.893   5.079   3.073 -0.5258  1.2561  0.8170
   11MOL    C67 2687   1.067   4.703   2.910 -0.1369 -0.6062  0.3610
   11MOL    C68 2688   1.054   4.588   3.019  0.1712  0.4180  0.0576
   11MOL    O69 2689   1.176   4.507   3.012  0.0838  0.1853 -0.0273
   11MOL    C70 2690   1.210   4.443   3.130 -0.0317  0.1207 -0.0606
   11MOL    C71 2691   1.365   4.441   3.129  0.4753 -0.2026 -0.2991
   11MOL    H72 2692   1.131   4.656   2.835  1.5290  0.1933  1.2305
   11MOL    H73 2693   0.973   4.744   2.873  0.4624 -1.6272 -2.4734
   11MOL    H74 2694   1.056   4.641   3.114 -1.1455  1.6761 -0.6055
   11MOL    H75 2695   1.169   4.342   3.126  0.1192 -0.0508  2.3951
   11MOL    H76 2696   1.167   4.500   3.212 -0.0092 -1.1065  0.8122
   11MOL    H77 2697   1.409   4.432   3.030 -0.5711 -1.7063 -0.6447
   11MOL    H78 2698   1.410   4.532   3.170 -2.7113  0.9780  0.6931
   11MOL    H79 2699   1.393   4.356   3.192  0.6298 -1.0649 -1.5157
   11MOL    C80 2700   0.927   4.508   3.010 -0.0016 -0.3224  0.6778
   11MOL    C81 2701   0.787   4.589   3.011 -0.9812  0.0275 -0.3476
   11MOL    O82 2702   0.757   4.635   2.872  0.2601  0.4538 -0.1348
   11MOL    C83 2703   0.624   4.681   2.854 -0.7613 -0.2162  0.1270
   11MOL    C84 2704   0.576   4.695   2.708 -0.5223 -0.6818  0.5131
   11MOL    H85 2705   0.935   4.434   3.090  0.6161 -2.0929 -0.9983
   11MOL    H86 2706   0.935   4.450   2.918 -0.8851 -0.0907  0.4518
   11MOL    H87 2707   0.703   4.523   3.032 -1.8510  1.3806  0.4816
   11MOL    H88 2708   0.615   4.779   2.901 -1.5760 -0.3236  0.1961
   11MOL    H89 2709   0.559   4.621   2.918  0.0809  1.5692  2.7586
   11MOL    H90 2710   0.470   4.717   2.704  0.1430  3.2545  1.6021
   11MOL    H91 2711   0.624   4.780   2.658 -0.2327  0.1548  2.2037
   11MOL    H92 2712   0.606   4.607   2.651 -0.2019 -1.7406  2.3151
   11MOL    C93 2713   0.778   4.696   3.119 -0.3203  0.4775 -0.8021
   11MOL    C94 2714   0.816   4.664   3.268 -0.1655  0.1959  0.9706
   11MOL    O95 2715   0.716   4.577   3.316 -0.1767  0.5110 -0.4592
   11MOL    C96 2716   0.754   4.446   3.323  0.2110 -1.5263  0.5048
   11MOL    C97 2717   0.690   4.384   3.445 -0.7278 -0.8821  0.0522
   11MOL    H98 2718   0.680   4.743   3.128 -0.9475 -0.5729 -2.1085
   11MOL    H99 2719   0.850   4.773   3.091 -0.5498 -0.3791 -3.8466
   11MOL   H100 2720   0.915   4.619   3.268  0.0511  0.4872 -2.6518
   11MOL   H101 2721   0.860   4.432   3.343  0.9317  2.1304 -0.3903
   11MOL   H102 2722   0.731   4.398   3.228  0.4300  0.9204 -0.8358
   11MOL   H103 2723   0.582   4.397   3.436 -1.0497 -1.1143  3.1318
   11MOL   H104 2724   0.715   4.280   3.464 -1.7051 -1.0687  0.3699
   11MOL   H105 2725   0.718   4.438   3.535 -1.4897 -2.1226  1.0601
   11MOL   C106 2726   0.810   4.793   3.352  0.1950 -0.3790 -0.1041
   11MOL   C107 2727   0.893   4.798   3.487 -0.1745 -0.0331  0.2249
   11MOL   O108 2728   1.028   4.757   3.452  0.2605  0.1269 -0.1800
   11MOL   C109 2729   1.106   4.850   3.374  0.2315  0.3137 -0.0506
   11MOL   C110 2730   1.253   4.808   3.395  0.7099 -0.3734  0.0555
   11MOL   H111 2731   0.711   4.812   3.393  0.5292  3.6286 -0.8844
   11MOL   H112 2732   0.823   4.884   3.294  1.4141 -0.2305  0.3706
   11MOL   H113 2733   0.899   4.900   3.525  0.2434 -0.2089  0.6311
   11MOL   H114 2734   1.093   4.952   3.408 -1.5843  0.6173 -1.5518
   11MOL   H115 2735   1.078   4.835   3.269 -0.1742 -1.2657  0.2622
   11MOL   H116 2736   1.316   4.884   3.349 -0.5574 -0.1587 -1.3422
   11MOL   H117 2737   1.269   4.795   3.502  0.8277 -1.8924 -0.1249
   11MOL   H118 2738   1.273   4.716   3.340  0.0004  0.2630 -1.3016
   11MOL   C119 2739   0.831   4.700   3.593  0.1427 -0.1729 -0.5510
   11MOL   C120 2740   0.684   4.732   3.648  0.6661 -0.3782 -1.1283
   11MOL   O121 2741   0.705   4.854   3.717  0.0777  0.4402 -0.7057
   11MOL   C122 2742   0.640   4.967   3.674  0.4210 -0.1160 -0.3078
   11MOL   C123 2743   0.646   5.086   3.772 -0.5255 -0.1982 -0.3267
   11MOL   H124 2744   0.911   4.680   3.664 -0.7722  1.6448  1.0251
   11MOL   H125 2745   0.839   4.598   3.554 -0.7006 -0.8204  0.8948
   11MOL   H126 2746   0.624   4.737   3.557 -2.4920 -0.0247  0.8752
   11MOL   H127 2747   0.536   4.939   3.657  0.5995 -0.1177 -1.3778
   11MOL   H128 2748   0.679   5.003   3.579  2.2008  2.3648  1.2872
   11MOL   H129 2749   0.747   5.107   3.808 -1.7138  3.0635  1.3709
   11MOL   H130 2750   0.590   5.173   3.738 -0.9228 -0.6378 -0.8022
   11MOL   H131 2751   0.603   5.055   3.867  2.2246 -1.8666  0.4352
   11MOL   C132 2752   0.626   4.634   3.753  0.1717 -0.8334  0.6800
   11MOL   C133 2753   0.474   4.665   3.794 -0.2443  0.8781 -0.0976
   11MOL   O134 2754   0.429   4.559   3.880  0.1742 -0.8356 -0.4320
   11MOL   C135 2755   0.492   4.543   4.011 -0.3885  0.0391 -0.0747
   11MOL   C136 2756   0.408   4.448   4.094  0.2786 -0.4127  0.2684
   11MOL   H137 2757   0.691   4.630   3.840 -1.5464 -0.3267  2.0125
   11MOL   H138 2758   0.628   4.526   3.738 -0.4596 -1.1704  2.8201
   11MOL   H139 2759   0.461   4.759   3.848 -1.0333  1.2954 -1.0040
   11MOL   H140 2760   0.508   4.639   4.060  1.1224 -0.4009  0.3378
   11MOL   H141 2761   0.594   4.509   3.992 -1.4323 -1.8816 -2.5183
   11MOL   H142 2762   0.416   4.350   4.046 -1.3739  0.0680 -1.0590
   11MOL   H143 2763   0.438   4.443   4.198 -0.8956 -1.1760  0.5814
   11MOL   H144 2764   0.305   4.483   4.092  0.6648  0.7293  0.0780
   11MOL   C145 2765   0.382   4.663   3.679 -0.6891  0.3026  0.8150
   11MOL   C146 2766   0.235   4.693   3.715  0.1240  0.4826 -0.2432
   11MOL   O147 2767   0.162   4.691   3.593  0.1299 -0.1543 -0.2101
   11MOL   C148 2768   0.025   4.656   3.607  0.6171  0.5891 -0.5354
   11MOL   C149 2769   7.790   4.722   3.495 -0.0926  0.8072 -0.4860
   11MOL   H150 2770   0.399   4.566   3.633  0.9594  0.7023  0.5221
   11MOL   H151 2771   0.392   4.741   3.603  0.0173 -0.0738  0.5170
   11MOL   H152 2772   0.203   4.612   3.780  0.1792  1.2525  0.7605
   11MOL   H153 2773   7.833   4.690   3.704  4.3647  1.6949  0.5581
   11MOL   H154 2774   0.026   4.547   3.605 -0.2926  0.5798 -0.5182
   11MOL   H155 2775   7.684   4.723   3.523  0.3751 -0.9929  1.5316
   11MOL   H156 2776   7.810   4.829   3.494 -0.2848  0.8414 -1.1262
   11MOL   H157 2777   7.806   4.682   3.395  1.3633  3.6103 -1.4230
   11MOL   C158 2778   0.213   4.826   3.790  0.1864 -0.2074  0.4935
   11MOL   C159 2779   0.229   4.826   3.946  0.2791  0.7843  0.6630
   11MOL   O160 2780   0.100   4.815   4.004 -0.0361 -0.2473  0.1303
   11MOL   C161 2781   0.038   4.687   4.016 -0.0949 -0.2092  0.3754
   11MOL   C162 2782   7.728   4.717   4.042  0.4027 -0.7770  0.7216
   11MOL   H163 2783   0.127   4.883   3.755 -0.1255 -1.4994 -0.8990
   11MOL   H164 2784   0.293   4.896   3.764  1.9289 -0.8122  3.9467
   11MOL   H165 2785   0.296   4.748   3.982  0.6985  0.8395  0.0246
   11MOL   H166 2786   0.076   4.645   4.109  0.3681  1.1720  0.8202
   11MOL   H167 2787   0.063   4.626   3.929 -0.7918 -0.3518  0.2766
   11MOL   H168 2788   7.720   4.800   4.112  1.6735  0.2624 -0.3341
   11MOL   H169 2789   7.680   4.766   3.957  0.3298  1.0478  1.7854
   11MOL   H170 2790   7.683   4.620   4.064 -0.8351 -0.6223 -1.0004
   11MOL   C171 2791   0.299   4.953   4.000 -0.5806 -0.0417  0.0510
   11MOL   C172 2792   0.291   4.973   4.154  0.0829 -0.2068 -0.2785
   11MOL   O173 2793   0.356   5.096   4.190 -0.4758 -0.5628  0.1816
   11MOL   C174 2794   0.277   5.216   4.203  0.3332  0.0864 -0.5071
   11MOL   C175 2795   0.362   5.339   4.210  0.6025 -0.7533  0.3068
   11MOL   H176 2796   0.254   5.037   3.949  0.8476  1.0928  0.6365
   11MOL   H177 2797   0.401   4.946   3.962 -0.3984  1.0471  0.3307
   11MOL   H178 2798   0.183   4.979   4.168 -0.2523 -2.5464 -1.5111
   11MOL   H179 2799   0.203   5.196   4.281  0.2137  0.0717 -0.6241
   11MOL   H180 2800   0.227   5.229   4.107  2.1443 -2.0678 -1.7893
   11MOL   H181 2801   0.425   5.330   4.299 -0.4827 -1.5610  1.0068
   11MOL   H182 2802   0.420   5.324   4.119  0.7831 -0.3239  0.3509
   11MOL   H183 2803   0.298   5.427   4.202  1.9582  0.5767  3.2184
   11MOL   C184 2804   0.354   4.864   4.249  0.2006  0.0485 -1.0456
   11MOL   C185 2805   0.288   4.864   4.389 -0.5563  0.8348  0.2103
   11MOL   O186 2806   0.322   4.989   4.454 -0.3274 -0.2808  0.2753
   11MOL   C187 2807   0.221   5.054   4.533 -0.4667  0.0943  0.0831
   11MOL   C188 2808   0.287   5.169   4.623  0.4476  0.2696 -0.3107
   11MOL   H189 2809   0.459   4.892   4.256 -0.0187  1.6560 -3.7155
   11MOL   H190 2810   0.343   4.772   4.192 -0.4715 -1.0992  0.9079
   11MOL   H191 2811   0.180   4.850   4.378 -0.6598  0.0919  1.9281
   11MOL   H192 2812   0.164   4.986   4.596 -2.4069  0.6706 -0.9794
   11MOL   H193 2813   0.152   5.099   4.461 -1.9773 -1.6710  0.3926
   11MOL   H194 2814   0.277   5.154   4.730  0.7561 -2.6843 -0.6591
   11MOL   H195 2815   0.393   5.173   4.598  0.5367  0.5296  0.1040
   11MOL   H196 2816   0.247   5.267   4.597 -0.1209  0.3632  0.8872
   11MOL   C197 2817   0.316   4.741   4.467 -0.3713 -0.4985 -0.1432
   11MOL   C198 2818   0.463   4.717   4.521  0.0254  0.4832  0.3091
   11MOL   O199 2819   0.525   4.607   4.449 -0.3602  0.4551  0.3307
   11MOL   C200 2820   0.663   4.606   4.459 -0.4861 -0.1608  0.6706
   11MOL   C201 2821   0.714   4.521   4.344  0.4337  0.6494 -0.0819
   11MOL   H202 2822   0.289   4.656   4.405  0.7242 -0.2386 -0.9968
   11MOL   H203 2823   0.239   4.740   4.544 -0.9275  0.6934 -0.6754
   11MOL   H204 2824   0.520   4.810   4.512 -1.8507  1.6976  0.6050
   11MOL   H205 2825   0.705   4.557   4.546 -2.5351 -0.9803  1.2102
   11MOL   H206 2826   0.711   4.702   4.440  0.7012 -0.5194  1.8067
   11MOL   H207 2827   0.679   4.544   4.244 -2.6518  0.9492  1.0269
   11MOL   H208 2828   0.823   4.533   4.342  0.1918  3.0076 -0.2484
   11MOL   H209 2829   0.704   4.417   4.373  1.8034  0.6646  0.5301
   11MOL   C210 2830   0.470   4.675   4.667  0.3411 -0.1302 -0.4065
   11MOL   C211 2831   0.446   4.792   4.769  0.2360  0.2556  0.0018
   11MOL   O212 2832   0.309   4.805   4.765 -0.4990 -1.1888  0.1239
   11MOL   C213 2833   0.231   4.781   4.884  0.7957 -0.2711  0.1922
   11MOL   C214 2834   0.083   4.800   4.876 -0.5643  0.3133 -0.0043
   11MOL   H215 2835   0.554   4.617   4.705 -0.9220 -0.9816  1.1372
   11MOL   H216 2836   0.381   4.614   4.683 -0.2109  0.1987 -2.1089
   11MOL   H217 2837   0.462   4.757   4.871  2.3042 -0.9948 -0.7305
   11MOL   H218 2838   0.277   4.823   4.973 -1.3360 -1.2269  1.7884
   11MOL   H219 2839   0.243   4.678   4.917  0.6318 -0.4049 -0.1639
   11MOL   H220 2840   0.058   4.764   4.976 -1.3235 -0.6612 -0.5300
   11MOL   H221 2841   0.053   4.901   4.851  2.6608  1.1958 -0.4662
   11MOL   H222 2842   0.038   4.733   4.802  1.8810  0.6997 -1.9044
   11MOL   C223 2843   0.526   4.925   4.754  0.1883 -0.4514 -0.9270
   11MOL   C224 2844   0.675   4.916   4.764 -0.3086  0.0531 -0.3645
   11MOL   O225 2845   0.711   4.836   4.874  0.0931  0.0540 -0.4642
   11MOL   C226 2846   0.848   4.781   4.878 -0.5620  0.5766 -0.1008
   11MOL   C227 2847   0.865   4.659   4.975 -0.5050  0.1143 -0.4014
   11MOL   H228 2848   0.493   4.992   4.833  0.4910  0.5456 -1.6463
   11MOL   H229 2849   0.492   4.975   4.663  0.2042  1.3752  0.0542
   11MOL   H230 2850   0.711   4.860   4.678 -0.3317 -2.3983  1.1902
   11MOL   H231 2851   0.920   4.855   4.913  1.1178 -0.7793 -0.6927
   11MOL   H232 2852   0.889   4.744   4.784 -0.6877 -0.4438  0.2466
   11MOL   H233 2853   0.800   4.576   4.947  1.3148 -1.9807  1.4531
   11MOL   H234 2854   0.970   4.633   4.981 -0.1942  1.3888 -0.1958
   11MOL   H235 2855   0.835   4.687   5.076  1.2891 -2.2852  0.8514
   11MOL   C236 2856   0.750   5.048   4.783 -0.3132 -0.3926 -0.0283
   11MOL   C237 2857   0.736   5.162   4.679  0.3528 -0.4818  0.4898
   11MOL   O238 2858   0.795   5.110   4.570  0.1071  0.3573  0.0524
   11MOL   C239 2859   0.774   5.159   4.433 -0.4312  0.1613 -0.6069
   11MOL   C240 2860   0.632   5.128   4.385 -0.0477 -0.2122  0.6384
   11MOL   H241 2861   0.858   5.034   4.787  0.0171  1.9588 -0.0675
   11MOL   H242 2862   0.727   5.080   4.884  1.1134 -3.7936  1.4715
   11MOL   H243 2863   0.627   5.168   4.673  0.5158  2.3364 -0.2487
   11MOL   H244 2864   0.844   5.094   4.382  0.9620  0.4549  0.8837
   11MOL   H245 2865   0.802   5.264   4.438 -1.4835  0.4142  0.0870
   11MOL   H246 2866   0.609   5.175   4.290  1.0668 -0.8903  0.0218
   11MOL   H247 2867   0.620   5.022   4.365  0.8860  0.0014 -1.1514
   11MOL   H248 2868   0.556   5.156   4.459 -0.9878  3.3599 -1.5329
   11MOL   C249 2869   0.799   5.306   4.719 -0.4656 -0.1732 -0.0356
   11MOL   C250 2870   0.962   5.316   4.706 -0.0693 -0.0435  0.5297
   11MOL   O251 2871   1.020   5.295   4.827  0.1139  0.9263 -0.0210
   11MOL   C252 2872   1.158   5.270   4.842  0.0390 -0.7264  0.2801
   11MOL   C253 2873   1.162   5.177   4.961 -0.9303 -0.2454 -0.4648
   11MOL   H254 2874   0.768   5.326   4.822 -1.5223  1.1773 -0.5984
   11MOL   H255 2875   0.760   5.389   4.661 -2.0358 -0.4490  0.6073
   11MOL   H256 2876   0.991   5.237   4.637  3.6097  1.7850 -0.0944
   11MOL   H257 2877   1.210   5.362   4.869 -0.0629 -0.7089  0.4141
   11MOL   H258 2878   1.200   5.223   4.753 -0.9086  1.9239 -1.6594
   11MOL   H259 2879   1.114   5.225   5.046 -0.6672 -1.7504  0.5481
   11MOL   H260 2880   1.116   5.082   4.933 -0.7181  0.2652 -2.6587
   11MOL   H261 2881   1.269   5.159   4.974 -1.1371 -1.6627 -0.6483
   11MOL   H262 2882   0.989   5.414   4.668  2.7282 -0.4496  1.3811
   12MOL     C1 2883   2.998   0.266   0.279  0.1994 -0.9796  0.2742
   12MOL     C2 2884   3.026   0.114   0.302 -0.5090 -0.0397  0.0423
   12MOL     O3 2885   2.937   0.023   0.238 -0.0182 -0.3303  0.3336
   12MOL     C4 2886   2.985   7.736   0.229 -0.7897 -0.0605  0.2698
   12MOL     C5 2887   2.991   7.698   0.089 -0.3532  0.2850 -0.2115
   12MOL     H6 2888   3.082   0.331   0.304 -0.4203  1.0874 -2.7715
   12MOL     H7 2889   2.999   0.292   0.174 -0.0758 -0.1445  0.4766
   12MOL     H8 2890   3.125   0.105   0.256 -1.1585  1.9941 -1.8954
   12MOL     H9 2891   2.932   7.663   0.291 -1.5941  0.7687  0.5574
   12MOL    H10 2892   3.089   7.735   0.264 -0.9021 -0.0524  0.6106
   12MOL    H11 2893   3.034   7.599   0.073 -0.8931 -0.5281  3.0749
   12MOL    H12 2894   2.893   7.696   0.040 -0.1628 -0.1847 -0.5782
   12MOL    H13 2895   3.049   7.777   0.040 -0.5930 -0.2736 -1.4070
   12MOL    H14 2896   2.908   0.295   0.333 -0.4454 -1.0454 -0.7663
   12MOL    C15 2897   3.029   0.076   0.453  0.1424  0.5808 -0.3462
   12MOL    C16 2898   3.124   0.163   0.533 -0.8385  0.7039  0.0931
   12MOL    O17 2899   3.247   0.132   0.467 -0.1533  0.3318 -0.5728
   12MOL    C18 2900   3.334   0.252   0.443 -0.4188 -0.1142 -0.4896
   12MOL    C19 2901   3.454   0.209   0.365  0.6651 -0.1913 -0.6553
   12MOL    H20 2902   3.059   7.816   0.470  0.5679  0.8949  0.8192
   12MOL    H21 2903   2.933   0.095   0.499  0.0707  0.7031 -0.5441
   12MOL    H22 2904   3.095   0.268   0.533 -0.0334  0.9246  0.2435
   12MOL    H23 2905   3.368   0.292   0.538 -0.8714 -0.8826  0.0032
   12MOL    H24 2906   3.285   0.325   0.380 -1.7057 -0.5740 -0.0331
   12MOL    H25 2907   3.519   0.293   0.341  3.0420 -1.7082  0.2771
   12MOL    H26 2908   3.415   0.165   0.273  0.1485  1.5417 -1.2711
   12MOL    H27 2909   3.512   0.132   0.417  0.2853  0.2712  0.4601
   12MOL    C28 2910   3.135   0.111   0.679 -0.6300 -0.4209  0.2072
   12MOL    C29 2911   3.015   0.140   0.774 -0.0722  0.4234  0.5312
   12MOL    O30 2912   3.010   0.273   0.798 -1.1123 -0.0694 -0.3692
   12MOL    C31 2913   2.886   0.333   0.789  0.3282  0.3748  0.1667
   12MOL    C32 2914   2.902   0.483   0.750  0.4398  0.2514 -0.8784
   12MOL    H33 2915   3.224   0.154   0.725  0.2465 -1.8091 -0.1537
   12MOL    H34 2916   3.155   0.005   0.661  0.9629 -0.1738  0.4783
   12MOL    H35 2917   2.926   0.109   0.718 -0.2567 -0.1290  1.1294
   12MOL    H36 2918   2.833   0.319   0.883  0.6958 -0.6524  0.2318
   12MOL    H37 2919   2.823   0.288   0.712  1.6035 -0.2638 -0.5209
   12MOL    H38 2920   2.961   0.534   0.827  0.6768 -2.1700  0.6063
   12MOL    H39 2921   2.952   0.486   0.654  1.6175  1.5120 -0.2367
   12MOL    H40 2922   2.801   0.526   0.750  0.0291 -0.5874 -4.7864
   12MOL    C41 2923   3.026   0.067   0.903 -0.2373  0.5821 -0.2874
   12MOL    C42 2924   2.989   7.763   0.893  0.1935 -0.1713  0.2854
   12MOL    O43 2925   3.058   7.688   0.793  0.3241 -0.1112  0.3862
   12MOL    C44 2926   3.070   7.547   0.824  0.9197 -0.6570  0.2668
   12MOL    C45 2927   3.170   7.508   0.935  0.0304 -0.9221 -0.3479
   12MOL    H46 2928   2.966   0.110   0.983 -2.0918 -3.1709  0.4604
   12MOL    H47 2929   3.128   0.063   0.941 -0.4056 -0.8860  0.0498
   12MOL    H48 2930   2.999   7.720   0.993  1.2011 -2.0555 -0.5918
   12MOL    H49 2931   3.103   7.489   0.738  0.5446  0.3443 -0.5709
   12MOL    H50 2932   2.971   7.504   0.836  1.8543 -3.0952 -0.3574
   12MOL    H51 2933   3.134   7.552   1.028  1.2665  0.4080 -0.4706
   12MOL    H52 2934   3.175   7.400   0.949  0.3914 -1.0015 -1.0191
   12MOL    H53 2935   3.269   7.549   0.913  0.3908 -1.6333 -0.0551
   12MOL    C54 2936   2.835   7.749   0.874  0.6681 -0.2417 -0.3322
   12MOL    C55 2937   2.760   7.676   0.995 -0.4807  0.2455  0.5426
   12MOL    O56 2938   2.818   7.548   1.022 -0.2393  0.5650 -0.4009
   12MOL    C57 2939   2.795   7.499   1.155 -0.6050 -0.6075  0.5903
   12MOL    C58 2940   2.895   7.383   1.159  0.6492  0.2767 -0.7867
   12MOL    H59 2941   2.820   7.696   0.781  1.7322  0.0617 -0.6847
   12MOL    H60 2942   2.788   0.004   0.864  0.3709  0.0705  3.1836
   12MOL    H61 2943   2.777   7.729   1.089  1.4468 -1.2752  1.0966
   12MOL    H62 2944   2.694   7.469   1.181 -1.0423  1.0043  0.8110
   12MOL    H63 2945   2.823   7.578   1.225 -0.0270  0.6739 -1.0553
   12MOL    H64 2946   2.879   7.302   1.089  3.7593 -0.8980 -0.2098
   12MOL    H65 2947   3.001   7.410   1.157  0.8416 -0.0718  2.0152
   12MOL    H66 2948   2.895   7.334   1.257 -1.3826 -1.6367 -1.7144
   12MOL    C67 2949   2.610   7.658   0.988  0.6049  0.1820 -0.7120
   12MOL    C68 2950   2.530   7.790   1.008  0.3649  0.3520 -0.1990
   12MOL    O69 2951   2.562   7.830   1.138  0.1168 -0.2530 -0.1915
   12MOL    C70 2952   2.586   0.127   1.161 -0.3240  1.1740 -0.2739
   12MOL    C71 2953   2.725   0.170   1.119 -0.8979 -0.0665 -0.2211
   12MOL    H72 2954   2.570   7.599   1.070 -1.6119 -1.7118 -3.0424
   12MOL    H73 2955   2.592   7.616   0.889 -0.1504 -2.0923  0.3620
   12MOL    H74 2956   2.560   0.020   0.934 -0.1270  0.5930 -0.1613
   12MOL    H75 2957   2.578   0.141   1.269  0.6130 -1.0638  0.1202
   12MOL    H76 2958   2.506   0.181   1.110  0.0769  2.0373 -0.0027
   12MOL    H77 2959   2.725   0.279   1.118  0.7390 -0.0283 -4.1987
   12MOL    H78 2960   2.812   0.121   1.162 -1.8306 -2.0119 -0.5360
   12MOL    H79 2961   2.728   0.155   1.011  0.4907  0.0464 -0.1971
   12MOL    C80 2962   2.378   7.765   0.995 -0.0452  0.1805 -0.8651
   12MOL    C81 2963   2.327   7.726   0.849 -0.0088 -0.6062 -0.0250
   12MOL    O82 2964   2.199   7.792   0.823  0.3625  0.1972 -0.3803
   12MOL    C83 2965   2.205   0.085   0.777 -0.0425  0.7711  0.5011
   12MOL    C84 2966   2.268   0.115   0.638 -0.3347  0.1691  0.8952
   12MOL    H85 2967   2.341   0.021   1.022  1.8370  1.0228 -1.3229
   12MOL    H86 2968   2.348   7.687   1.065  0.5927  2.6180  2.2397
   12MOL    H87 2969   2.407   7.766   0.787 -1.0953 -0.2991 -1.2495
   12MOL    H88 2970   2.266   0.142   0.847  1.5607 -0.7595  0.4018
   12MOL    H89 2971   2.106   0.130   0.786 -0.0403  1.0461 -0.8206
   12MOL    H90 2972   2.266   0.223   0.621  0.5447  0.1381  0.5781
   12MOL    H91 2973   2.370   0.078   0.638 -0.7642 -1.0661  1.9318
   12MOL    H92 2974   2.213   0.069   0.556  1.8610 -2.7292  0.9642
   12MOL    C93 2975   2.303   7.578   0.833 -0.5404  0.6366  0.3972
   12MOL    C94 2976   2.255   7.537   0.696 -0.7192 -0.0041 -0.4601
   12MOL    O95 2977   2.257   7.396   0.692 -0.3776 -0.1083  0.8175
   12MOL    C96 2978   2.130   7.340   0.693  0.1463 -0.0898 -0.4041
   12MOL    C97 2979   2.164   7.191   0.677  0.3120  0.3570 -0.4706
   12MOL    H98 2980   2.226   7.548   0.904 -0.4270 -0.0035  0.2527
   12MOL    H99 2981   2.395   7.527   0.865 -0.9979  0.1212  0.8997
   12MOL   H100 2982   2.161   7.582   0.661 -0.9557 -1.1938 -1.3949
   12MOL   H101 2983   2.074   7.375   0.606 -0.6770  0.4531  0.3287
   12MOL   H102 2984   2.084   7.368   0.788  0.3744  0.4863 -0.4621
   12MOL   H103 2985   2.074   7.129   0.677  1.0769 -0.7612 -0.3332
   12MOL   H104 2986   2.221   7.166   0.587 -0.1390 -0.9002 -0.4117
   12MOL   H105 2987   2.211   7.151   0.767 -1.6253  2.6540  1.6304
   12MOL   C106 2988   2.359   7.589   0.594 -0.1148  0.7205  0.3379
   12MOL   C107 2989   2.329   7.561   0.442  0.0624 -0.3933 -0.5973
   12MOL   O108 2990   2.456   7.550   0.382  0.3047  0.0497  0.6498
   12MOL   C109 2991   2.524   7.424   0.390  0.7794 -0.3718 -0.6172
   12MOL   C110 2992   2.650   7.436   0.302 -0.4174 -0.2369 -0.0502
   12MOL   H111 2993   2.449   7.540   0.630 -0.3338  0.1443  0.1136
   12MOL   H112 2994   2.379   7.696   0.602  2.9286  0.2003  0.2167
   12MOL   H113 2995   2.272   7.468   0.445  0.3803 -0.5668  0.3400
   12MOL   H114 2996   2.465   7.339   0.356 -0.8336  0.0023  1.1235
   12MOL   H115 2997   2.549   7.407   0.494  0.2334  0.9902 -0.2448
   12MOL   H116 2998   2.714   7.521   0.321  0.5424 -1.0540  0.4038
   12MOL   H117 2999   2.718   7.352   0.315  0.5531  0.5249 -0.1663
   12MOL   H118 3000   2.624   7.455   0.197 -1.0029 -0.0307  0.1329
   12MOL   C119 3001   2.238   7.674   0.383  0.1288 -0.5221  0.1818
   12MOL   C120 3002   2.206   7.639   0.235  0.7401  0.0447  0.0549
   12MOL   O121 3003   2.161   7.503   0.232 -0.2134 -0.1346 -0.2457
   12MOL   C122 3004   2.020   7.491   0.237  0.1768 -0.1301 -0.4938
   12MOL   C123 3005   1.988   7.342   0.262 -0.2251 -0.1949 -0.3010
   12MOL   H124 3006   2.272   7.777   0.382  1.4345 -0.9416 -0.4405
   12MOL   H125 3007   2.147   7.677   0.441 -1.1199  0.9476 -1.7821
   12MOL   H126 3008   2.134   7.713   0.202 -0.7303 -0.7073  1.4839
   12MOL   H127 3009   1.967   7.521   0.147 -1.6846  1.4146  1.0805
   12MOL   H128 3010   1.975   7.551   0.316 -0.2490  1.5760 -1.9911
   12MOL   H129 3011   2.038   7.298   0.349 -1.4034 -2.5749 -0.7944
   12MOL   H130 3012   1.883   7.316   0.252 -0.2793  0.3788 -1.2734
   12MOL   H131 3013   2.031   7.276   0.186 -0.8097  2.1354 -2.7274
   12MOL   C132 3014   2.322   7.658   0.150  0.2013 -0.0551  0.2707
   12MOL   C133 3015   2.290   7.686   0.001  0.0996  0.1144 -0.2251
   12MOL   O134 3016   2.170   7.752   7.815  0.0742  0.1992 -0.3976
   12MOL   C135 3017   2.164   0.047   7.814 -0.1903  0.4159 -0.1744
   12MOL   C136 3018   2.025   0.114   7.786  0.0466 -0.1048 -0.2070
   12MOL   H137 3019   2.392   7.574   0.154  0.7382  0.3900  0.3483
   12MOL   H138 3020   2.387   7.740   0.181 -0.1282  0.6036 -0.7873
   12MOL   H139 3021   2.362   7.751   7.797 -0.8479  2.0698  0.9477
   12MOL   H140 3022   2.234   0.080   7.737 -1.1943  0.9180 -0.8893
   12MOL   H141 3023   2.206   0.088   0.062 -0.5057  1.1265 -0.3400
   12MOL   H142 3024   1.967   0.062   7.710 -0.1292 -0.6727  0.3109
   12MOL   H143 3025   1.973   0.121   0.038 -1.2520 -2.7498 -0.6737
   12MOL   H144 3026   2.033   0.214   7.744  0.9885 -1.1882 -2.7170
   12MOL   C145 3027   2.293   7.565   7.751  0.6625  0.2990 -0.1678
   12MOL   C146 3028   2.420   7.471   7.748  0.5803 -0.0622  0.7964
   12MOL   O147 3029   2.515   7.527   7.659 -0.3248  0.7090 -0.0810
   12MOL   C148 3030   2.629   7.583   7.726 -0.3238  0.0149 -0.6911
   12MOL   C149 3031   2.748   7.594   7.631  0.0698 -0.4217  0.3831
   12MOL   H150 3032   2.251   7.579   7.651 -1.2166 -2.9190  0.1012
   12MOL   H151 3033   2.219   7.492   7.784  2.1528 -0.9258  0.5044
   12MOL   H152 3034   2.468   7.450   0.001  2.2355  1.1600  0.2703
   12MOL   H153 3035   2.655   7.530   7.817  1.0540  1.0634 -0.4470
   12MOL   H154 3036   2.608   7.684   7.762 -0.2297 -0.5741  1.0581
   12MOL   H155 3037   2.720   7.640   7.536 -1.6464 -2.6956 -0.2752
   12MOL   H156 3038   2.826   7.649   7.683 -0.4249 -1.0139  1.7766
   12MOL   H157 3039   2.788   7.498   7.598 -0.6334 -0.3285 -0.7557
   12MOL   C158 3040   2.384   7.334   7.675 -0.4203  0.3428 -0.0283
   12MOL   C159 3041   2.308   7.234   7.775 -0.7657  0.5300 -0.1188
   12MOL   O160 3042   2.397   7.183   0.025  0.2661 -0.0178  0.7621
   12MOL   C161 3043   2.337   7.172   0.153  0.1026  0.1845 -0.0593
   12MOL   C162 3044   2.419   7.071   0.234 -0.7584  0.6982 -0.2855
   12MOL   H163 3045   2.472   7.286   7.632  1.0342  1.6596  1.4189
   12MOL   H164 3046   2.325   7.362   7.588  0.3150 -0.1281 -0.6835
   12MOL   H165 3047   2.220   7.284   7.815 -0.9615 -0.1903  0.3562
   12MOL   H166 3048   2.233   7.141   0.149  0.5574 -1.6245  1.2401
   12MOL   H167 3049   2.330   7.264   0.211 -0.0116 -1.1124  2.0535
   12MOL   H168 3050   2.382   7.040   0.331 -3.5968  0.7331 -1.3241
   12MOL   H169 3051   2.427   6.977   0.179  0.0338  1.5459 -1.6822
   12MOL   H170 3052   2.523   7.104   0.246 -1.5995  3.7300 -0.8506
   12MOL   C171 3053   2.256   7.109   7.692 -0.1154  0.2620 -0.3860
   12MOL   C172 3054   2.132   7.133   7.606 -0.1306 -0.0028 -0.2669
   12MOL   O173 3055   2.008   7.130   7.682  0.2584  0.1518  0.0329
   12MOL   C174 3056   1.934   7.254   7.684 -0.3400 -0.3974 -0.8161
   12MOL   C175 3057   1.801   7.231   7.757 -0.2856  0.5923 -0.6839
   12MOL   H176 3058   2.254   7.012   7.741  1.8723  0.7830  0.7496
   12MOL   H177 3059   2.336   7.092   7.620  1.0629 -1.4743  1.2828
   12MOL   H178 3060   2.138   7.229   7.555 -0.1325  0.0571 -0.1535
   12MOL   H179 3061   1.912   7.287   7.582  1.3888 -0.8628 -1.3526
   12MOL   H180 3062   1.998   7.327   7.734 -0.2037 -0.5529 -0.7666
   12MOL   H181 3063   1.744   7.323   7.751 -0.5567  0.3776 -1.4834
   12MOL   H182 3064   1.750   7.148   7.707 -0.4157  0.6843 -0.7037
   12MOL   H183 3065   1.816   7.207   0.019  0.1223 -0.2069 -0.9188
   12MOL   C184 3066   2.103   7.013   7.512  0.5635  0.8741  0.1309
   12MOL   C185 3067   1.979   7.037   7.421  0.4479  0.1163  0.7059
   12MOL   O186 3068   1.951   6.924   7.336  0.0772 -0.5224 -0.1868
   12MOL   C187 3069   1.856   6.829   7.382  0.2879 -0.1780 -0.0465
   12MOL   C188 3070   1.833   6.727   7.268 -1.1948  0.2354 -0.0514
   12MOL   H189 3071   2.079   6.922   7.567 -1.3420  1.6635  0.6031
   12MOL   H190 3072   2.188   7.000   7.444  0.2429 -0.5188 -0.0229
   12MOL   H191 3073   1.890   7.057   7.481 -1.1762  1.3204 -2.0034
   12MOL   H192 3074   1.767   6.887   7.407 -0.5191 -1.0374 -0.8484
   12MOL   H193 3075   1.887   6.782   7.475  0.8342  0.7935  0.2664
   12MOL   H194 3076   1.908   6.648   7.277 -0.2188  1.0233 -1.1192
   12MOL   H195 3077   1.734   6.683   7.282 -0.7559 -0.7234  0.0754
   12MOL   H196 3078   1.841   6.772   7.169  2.3356  0.7770  0.4092
   12MOL   C197 3079   2.002   7.154   7.320  0.4461  0.5884 -0.2056
   12MOL   C198 3080   1.885   7.200   7.227 -0.1708 -0.2745  0.1064
   12MOL   O199 3081   1.934   7.295   7.133 -0.6102 -0.2005 -0.0284
   12MOL   C200 3082   1.984   7.233   7.015  0.6669  0.5807  0.6576
   12MOL   C201 3083   2.117   7.289   6.982  0.2393 -0.1959 -0.0062
   12MOL   H202 3084   2.088   7.126   7.260 -1.8351 -0.8272 -2.9372
   12MOL   H203 3085   2.026   7.252   7.362  1.3895  0.1131  0.3638
   12MOL   H204 3086   1.844   7.117   7.171 -1.7394 -0.7580  1.9272
   12MOL   H205 3087   1.917   7.251   6.931 -0.2985 -1.8973  0.8442
   12MOL   H206 3088   2.002   7.126   7.028 -0.8595  0.6340  3.5341
   12MOL   H207 3089   2.108   7.397   6.990 -3.5484 -0.6010  3.1403
   12MOL   H208 3090   2.183   7.267   7.066 -0.5184  2.8209  1.4586
   12MOL   H209 3091   2.155   7.265   6.883  1.2421 -0.0763  0.3400
   12MOL   C210 3092   1.771   7.279   7.303 -0.3329  0.5073  0.0676
   12MOL   C211 3093   1.654   7.337   7.227 -0.5286 -0.2089  0.6223
   12MOL   O212 3094   1.580   7.426   7.315 -0.1186 -0.0890  0.0177
   12MOL   C213 3095   1.477   7.493   7.243 -0.0752  0.8517 -0.7765
   12MOL   C214 3096   1.407   7.595   7.339  0.8604 -0.3129 -0.3101
   12MOL   H215 3097   1.814   7.363   7.357  1.9668 -0.2859 -0.4633
   12MOL   H216 3098   1.739   7.214   7.384  3.0318  0.3733  1.3640
   12MOL   H217 3099   1.706   7.405   7.159 -0.4614 -1.8883 -1.0362
   12MOL   H218 3100   1.398   7.424   7.211  0.8892 -0.6583  0.0085
   12MOL   H219 3101   1.511   7.548   7.156  2.3901  1.3285  0.4406
   12MOL   H220 3102   1.319   7.635   7.288  1.1713 -0.6982 -1.1659
   12MOL   H221 3103   1.378   7.557   7.437 -0.5319  0.0827 -0.5586
   12MOL   H222 3104   1.473   7.676   7.373 -1.2419  0.9682  0.8112
   12MOL   C223 3105   1.579   7.230   7.140  0.0347 -0.4247  0.1169
   12MOL   C224 3106   1.526   7.104   7.225  0.2947  0.1020 -0.4718
   12MOL   O225 3107   1.483   7.008   7.130 -0.0265 -0.4454  0.1428
   12MOL   C226 3108   1.569   6.899   7.104  0.1559  0.2634  0.1321
   12MOL   C227 3109   1.503   6.762   7.137  0.0902  0.4696  0.4238
   12MOL   H228 3110   1.649   7.202   7.061 -1.5306  1.2760 -1.9296
   12MOL   H229 3111   1.495   7.270   7.083 -1.6189 -3.2261  0.4819
   12MOL   H230 3112   1.606   7.066   7.288 -1.3732 -0.8605  1.1229
   12MOL   H231 3113   1.662   6.903   7.161 -0.3406  0.0449  0.9554
   12MOL   H232 3114   1.592   6.894   6.997 -0.0169  2.4705 -0.0278
   12MOL   H233 3115   1.574   6.680   7.127 -0.8509 -0.0769 -2.1828
   12MOL   H234 3116   1.478   6.775   7.243  1.6464  0.7861  0.7581
   12MOL   H235 3117   1.414   6.759   7.074  1.0895  1.7467 -1.0746
   12MOL   C236 3118   1.398   7.139   7.310 -0.2658  0.4502  0.4866
   12MOL   C237 3119   1.369   7.025   7.402  0.8212 -0.6527  0.1515
   12MOL   O238 3120   1.242   7.061   7.462  0.9455 -0.0787  0.3018
   12MOL   C239 3121   1.125   7.021   7.390  0.5450 -0.2188 -0.0949
   12MOL   C240 3122   1.098   6.874   7.424  0.2840 -0.0113  0.7719
   12MOL   H241 3123   1.319   7.180   7.248 -0.2229 -0.6096 -0.2992
   12MOL   H242 3124   1.427   7.216   7.381  0.1766  1.5351 -0.8500
   12MOL   H243 3125   1.359   6.935   7.343 -0.4430  0.8166 -1.9372
   12MOL   H244 3126   1.135   7.036   7.282 -0.5144  2.2395  0.1052
   12MOL   H245 3127   1.031   7.067   7.419 -0.5237 -1.1385 -1.9975
   12MOL   H246 3128   1.185   6.808   7.420  1.1259  1.0137  1.8391
   12MOL   H247 3129   1.061   6.870   7.527  0.9112  3.3096  1.1740
   12MOL   H248 3130   1.033   6.830   7.348 -0.2595  0.9002  0.6970
   12MOL   C249 3131   1.471   7.013   7.521  0.2451  0.3340  0.7035
   12MOL   C250 3132   1.448   6.883   7.605 -0.4873  0.3977  0.3039
   12MOL   O251 3133   1.466   6.781   7.510 -0.3904  0.1723  0.2125
   12MOL   C252 3134   1.484   6.651   7.573  0.9210  0.7658 -0.3265
   12MOL   C253 3135   1.464   6.552   7.460 -0.1436  0.3345 -0.6031
   12MOL   H254 3136   1.462   7.099   7.587 -1.6863  0.6707  0.0428
   12MOL   H255 3137   1.569   7.019   7.475 -1.1107  2.4054 -2.0530
   12MOL   H256 3138   1.520   6.882   7.687  2.9043  0.0573 -2.5439
   12MOL   H257 3139   1.413   6.636   7.654 -0.2972  1.6728 -1.2072
   12MOL   H258 3140   1.585   6.638   7.611  0.9960 -0.1686 -0.8462
   12MOL   H259 3141   1.499   6.453   7.488  3.5227  2.0004  1.1528
   12MOL   H260 3142   1.364   6.562   7.418 -1.0581 -2.7586  0.6658
   12MOL   H261 3143   1.522   6.574   7.371  0.6549  0.7069  0.0021
   12MOL   H262 3144   1.345   6.883   7.640  0.2213  0.8102  2.5046
   13MOL     C1 3145   3.815   0.336   5.952  0.1895 -1.1850 -0.1112
   13MOL     C2 3146   3.750   0.419   6.062  0.1088 -0.6511 -0.1401
   13MOL     O3 3147   3.679   0.524   5.995  0.7648 -0.2538  0.9767
   13MOL     C4 3148   3.560   0.564   6.059 -0.5968  0.0141 -0.9100
   13MOL     C5 3149   3.502   0.670   5.970 -0.2521 -0.0228  0.2090
   13MOL     H6 3150   3.729   0.302   5.894 -1.1039  0.0007  1.0766
   13MOL     H7 3151   3.879   0.397   5.888 -0.9741 -1.5544 -1.6618
   13MOL     H8 3152   3.687   0.343   6.109  1.0686 -0.9135  0.7528
   13MOL     H9 3153   3.579   0.602   6.159 -1.3761 -2.5803  0.2727
   13MOL    H10 3154   3.476   0.495   6.053 -0.3295 -0.3929 -0.0242
   13MOL    H11 3155   3.556   0.765   5.976  1.7022 -1.0186 -1.3490
   13MOL    H12 3156   3.504   0.643   5.864  0.2380  1.9152 -0.3020
   13MOL    H13 3157   3.397   0.682   5.999  0.0215  0.1690  1.1380
   13MOL    H14 3158   3.857   0.248   5.999  2.9383  1.0465  1.7782
   13MOL    C15 3159   3.852   0.483   6.166  0.5517 -0.6250  0.1632
   13MOL    C16 3160   3.936   0.379   6.258 -0.3592  0.0138 -0.9254
   13MOL    O17 3161   3.851   0.312   6.349 -0.3112 -0.7240  0.0408
   13MOL    C18 3162   3.869   0.180   6.378  0.2191 -0.5637 -0.1301
   13MOL    C19 3163   3.751   0.151   6.478  0.0229 -0.3871 -0.9053
   13MOL    H20 3164   3.808   0.549   6.241 -0.5207 -0.0067 -0.9995
   13MOL    H21 3165   3.914   0.549   6.106 -0.9608 -1.2917 -2.1674
   13MOL    H22 3166   3.983   0.305   6.192  2.0457  0.8017 -0.1689
   13MOL    H23 3167   3.965   0.147   6.419  0.4219 -3.2711 -2.6375
   13MOL    H24 3168   3.854   0.116   6.291  0.4063 -1.9641  0.8581
   13MOL    H25 3169   3.756   0.044   6.492  0.1685 -0.7784 -3.6946
   13MOL    H26 3170   3.658   0.189   6.435  0.8688  0.6906 -1.8474
   13MOL    H27 3171   3.770   0.196   6.576  1.0140 -2.4832 -0.1244
   13MOL    C28 3172   4.066   0.442   6.328  0.0206  0.2025 -0.3245
   13MOL    C29 3173   4.059   0.513   6.464 -0.1385 -0.0636  0.1602
   13MOL    O30 3174   4.152   0.614   6.479 -0.0487 -1.0811 -0.6818
   13MOL    C31 3175   4.096   0.750   6.468  0.6030 -0.8970  0.1050
   13MOL    C32 3176   4.058   0.788   6.324  0.4923 -0.0837 -0.3892
   13MOL    H33 3177   4.111   0.514   6.259  1.5023  0.8668  1.2890
   13MOL    H34 3178   4.130   0.354   6.334  0.5318  0.6238  0.6626
   13MOL    H35 3179   3.959   0.556   6.468 -0.9009 -1.8920  0.9429
   13MOL    H36 3180   4.174   0.813   6.508 -0.1196  0.8665 -1.2109
   13MOL    H37 3181   4.015   0.758   6.540  0.4968 -0.8666 -0.0171
   13MOL    H38 3182   4.009   0.708   6.270 -0.5575  0.0388  0.3564
   13MOL    H39 3183   4.007   0.885   6.321  0.5185 -0.0899 -1.0884
   13MOL    H40 3184   4.151   0.801   6.269 -0.8034 -1.7664 -3.0230
   13MOL    C41 3185   4.060   0.413   6.582  0.3582 -0.2700 -0.2862
   13MOL    C42 3186   4.197   0.357   6.619  0.2735  0.2579  0.2789
   13MOL    O43 3187   4.195   0.231   6.551  0.0666  0.1059 -0.3369
   13MOL    C44 3188   4.316   0.166   6.542 -0.1263  0.1439 -0.6354
   13MOL    C45 3189   4.301   0.046   6.452 -0.2864  0.1831  0.7456
   13MOL    H46 3190   3.980   0.338   6.576  0.4392 -0.2902 -1.2134
   13MOL    H47 3191   4.037   0.484   6.662  0.8306 -1.4861  0.9407
   13MOL    H48 3192   4.278   0.419   6.580  0.0744  1.1505  1.2903
   13MOL    H49 3193   4.351   0.135   6.641 -2.4678  0.5361  0.3533
   13MOL    H50 3194   4.392   0.234   6.505  0.2679  1.2449  2.0800
   13MOL    H51 3195   4.397   7.837   6.456 -0.7487 -0.7694 -0.4308
   13MOL    H52 3196   4.211   7.829   6.452 -0.8646  0.9270 -2.6951
   13MOL    H53 3197   4.307   0.080   6.348 -0.7243 -0.4009  0.5307
   13MOL    C54 3198   4.224   0.333   6.767 -0.4983  0.5257 -0.4400
   13MOL    C55 3199   4.374   0.349   6.809 -0.2856 -0.2896  0.5783
   13MOL    O56 3200   4.388   0.275   6.925 -0.1769  0.2952 -0.6331
   13MOL    C57 3201   4.465   0.157   6.924 -0.2928  0.2989 -0.2250
   13MOL    C58 3202   4.560   0.170   7.046 -0.4201 -0.5276  0.0376
   13MOL    H59 3203   4.196   0.229   6.788  0.0161  0.4611 -0.0466
   13MOL    H60 3204   4.170   0.395   6.838  1.6156  1.2436  0.5791
   13MOL    H61 3205   4.437   0.312   6.728  1.6037 -0.6854  2.2061
   13MOL    H62 3206   4.517   0.151   6.829 -3.1134  0.0740 -1.8134
   13MOL    H63 3207   4.399   0.071   6.930 -0.7837  0.5293 -1.9680
   13MOL    H64 3208   4.588   0.275   7.041  0.2119 -0.6802  0.3209
   13MOL    H65 3209   4.523   0.166   7.148  0.1807  0.4266  0.2942
   13MOL    H66 3210   4.655   0.118   7.033 -0.5709 -0.8423  0.1751
   13MOL    C67 3211   4.419   0.487   6.845  0.5350  0.5089  0.1039
   13MOL    C68 3212   4.419   0.594   6.735  0.5970  0.9972 -0.3592
   13MOL    O69 3213   4.524   0.552   6.638  0.0829 -0.0233  0.2758
   13MOL    C70 3214   4.504   0.615   6.512  0.9774  0.1960 -0.0531
   13MOL    C71 3215   4.604   0.549   6.428  0.3167  0.2582  0.4022
   13MOL    H72 3216   4.522   0.477   6.879  0.5508 -1.0457 -0.4084
   13MOL    H73 3217   4.357   0.520   6.929 -0.5591 -0.1450 -0.4473
   13MOL    H74 3218   4.318   0.607   6.695  0.0927 -0.8334  0.3124
   13MOL    H75 3219   4.527   0.721   6.523 -0.1594  0.4501 -0.0774
   13MOL    H76 3220   4.403   0.599   6.476  0.9281  0.1871  0.0894
   13MOL    H77 3221   4.568   0.583   6.331  0.1819  0.8377  0.6548
   13MOL    H78 3222   4.701   0.592   6.453  0.0282 -0.1695  2.3608
   13MOL    H79 3223   4.595   0.441   6.426 -2.1091  0.4669 -1.7079
   13MOL    C80 3224   4.463   0.730   6.784  0.4865 -0.5260 -0.7334
   13MOL    C81 3225   4.395   0.780   6.916  0.1254 -0.2525  0.4308
   13MOL    O82 3226   4.263   0.805   6.873 -0.4436 -0.3918  0.2381
   13MOL    C83 3227   4.169   0.762   6.968  0.0929 -0.8378 -0.8052
   13MOL    C84 3228   4.029   0.782   6.910 -0.1574  0.4927 -0.6619
   13MOL    H85 3229   4.460   0.809   6.709 -0.8244  0.9051  0.7913
   13MOL    H86 3230   4.570   0.737   6.804  0.3542  1.0366 -0.5289
   13MOL    H87 3231   4.415   0.701   6.988  3.1872  0.6854  0.6922
   13MOL    H88 3232   4.188   0.826   7.054  2.6532 -2.3971 -0.1708
   13MOL    H89 3233   4.173   0.657   6.998 -0.7204  0.1666  3.1638
   13MOL    H90 3234   3.952   0.743   6.976  0.8084  1.2792  0.9611
   13MOL    H91 3235   4.021   0.891   6.916 -1.7099  0.2760  1.5808
   13MOL    H92 3236   4.016   0.734   6.813  0.6974 -0.3240 -0.3752
   13MOL    C93 3237   4.459   0.902   6.973  0.3820  0.3368  0.0346
   13MOL    C94 3238   4.578   0.882   7.067 -0.2705 -0.0613 -0.1968
   13MOL    O95 3239   4.532   0.800   7.170 -0.6635 -0.6288  0.2250
   13MOL    C96 3240   4.605   0.687   7.215 -0.3985 -0.5413 -0.3784
   13MOL    C97 3241   4.732   0.726   7.297 -0.5051 -0.2801 -0.4967
   13MOL    H98 3242   4.386   0.945   7.041  0.4147 -0.2816  0.4590
   13MOL    H99 3243   4.472   0.968   6.887 -1.3314  0.1554 -0.3703
   13MOL   H100 3244   4.662   0.833   7.017  1.1230  0.1479  1.8490
   13MOL   H101 3245   4.629   0.622   7.131  0.9273  0.0058 -0.4501
   13MOL   H102 3246   4.535   0.644   7.286 -0.0636  0.1448  0.3920
   13MOL   H103 3247   4.752   0.642   7.363 -0.0528 -1.1263 -1.6917
   13MOL   H104 3248   4.813   0.760   7.232 -0.5702 -0.7810 -0.8424
   13MOL   H105 3249   4.715   0.806   7.369 -1.0582  0.2953 -1.2700
   13MOL   C106 3250   4.619   1.016   7.127  0.0232 -0.2821  0.3890
   13MOL   C107 3251   4.691   1.112   7.035 -0.3683 -0.5567 -0.0670
   13MOL   O108 3252   4.809   1.051   6.976  0.8251  0.0567  0.5769
   13MOL   C109 3253   4.908   1.033   7.075  0.5997  0.3687  0.0503
   13MOL   C110 3254   4.995   0.914   7.019  0.0371  0.3507  0.4750
   13MOL   H111 3255   4.682   0.989   7.211 -1.6672 -2.1334  1.1056
   13MOL   H112 3256   4.529   1.063   7.168 -0.4524 -0.9001  0.0612
   13MOL   H113 3257   4.633   1.142   6.948 -0.7922  0.8119  0.6732
   13MOL   H114 3258   4.875   1.004   7.174 -0.9036  3.1240  0.3893
   13MOL   H115 3259   4.976   1.119   7.071 -1.3918  1.9447 -0.3900
   13MOL   H116 3260   4.937   0.823   7.030  0.0896  0.2875  0.2188
   13MOL   H117 3261   5.019   0.924   6.914 -1.7282  1.8983  0.1744
   13MOL   H118 3262   5.088   0.906   7.075 -0.1695 -0.9216  0.6486
   13MOL   C119 3263   4.741   1.250   7.092 -0.5024 -0.5179  0.2013
   13MOL   C120 3264   4.632   1.362   7.083 -0.3501  0.0964  0.0099
   13MOL   O121 3265   4.499   1.308   7.113  0.4180 -0.2927 -0.1721
   13MOL   C122 3266   4.406   1.408   7.150 -0.4234 -0.6024  0.2000
   13MOL   C123 3267   4.278   1.336   7.162  0.3089  1.1563  0.2693
   13MOL   H124 3268   4.825   1.284   7.032  1.0702 -1.1727  1.9904
   13MOL   H125 3269   4.767   1.238   7.197  0.7434 -0.0619 -0.0501
   13MOL   H126 3270   4.659   1.430   7.164  3.2302 -0.1783 -0.8520
   13MOL   H127 3271   4.411   1.492   7.081  2.0297 -1.6548 -0.9608
   13MOL   H128 3272   4.435   1.443   7.249 -0.7890  0.5673 -0.1095
   13MOL   H129 3273   4.219   1.318   7.071  0.3361  2.2829  0.0209
   13MOL   H130 3274   4.282   1.255   7.235  3.1913  0.2950 -0.7864
   13MOL   H131 3275   4.207   1.412   7.195 -1.6828 -0.8149  0.6832
   13MOL   C132 3276   4.646   1.437   6.952 -0.4633 -0.4483  0.2784
   13MOL   C133 3277   4.757   1.548   6.947  0.2497  0.0868 -0.3324
   13MOL   O134 3278   4.724   1.654   7.039  0.4323  0.4381 -0.0548
   13MOL   C135 3279   4.826   1.722   7.115 -0.0895 -0.4426 -0.3558
   13MOL   C136 3280   4.766   1.831   7.207 -0.2585 -0.6718  0.2949
   13MOL   H137 3281   4.557   1.485   6.910  1.3310  3.3057  0.5864
   13MOL   H138 3282   4.664   1.363   6.874  1.4747 -0.5666  0.8189
   13MOL   H139 3283   4.853   1.504   6.974 -0.0052  1.0892  2.3379
   13MOL   H140 3284   4.901   1.768   7.050  1.9562 -2.0787  0.8123
   13MOL   H141 3285   4.880   1.661   7.187 -0.2883  0.6554  0.7542
   13MOL   H142 3286   4.842   1.847   7.282 -1.2905  0.1381  1.1760
   13MOL   H143 3287   4.743   1.922   7.151 -3.2277 -0.7171  1.3134
   13MOL   H144 3288   4.670   1.800   7.250 -2.5169 -0.7524 -4.4406
   13MOL   C145 3289   4.773   1.614   6.810 -0.1120 -0.1761 -0.7961
   13MOL   C146 3290   4.799   1.509   6.694  0.3248 -0.8821  0.3817
   13MOL   O147 3291   4.921   1.450   6.723 -0.0293  0.8658  0.2661
   13MOL   C148 3292   4.937   1.313   6.682 -0.2282 -0.3680  0.3576
   13MOL   C149 3293   5.019   1.242   6.788 -0.3665  0.4670 -0.2618
   13MOL   H150 3294   4.854   1.688   6.815 -2.2274  2.1083  0.7391
   13MOL   H151 3295   4.685   1.676   6.796  1.7704  2.2818 -2.2787
   13MOL   H152 3296   4.716   1.440   6.678 -1.3260  1.2481 -0.4970
   13MOL   H153 3297   4.974   1.305   6.580 -0.0613  1.0438  0.3112
   13MOL   H154 3298   4.839   1.267   6.666  0.1516 -0.9430 -0.3638
   13MOL   H155 3299   4.962   1.257   6.879 -2.9954  0.4511 -1.8415
   13MOL   H156 3300   5.044   1.137   6.774  2.2955  0.7097  2.2810
   13MOL   H157 3301   5.115   1.293   6.791  0.1191 -0.5762  3.6662
   13MOL   C158 3302   4.819   1.567   6.551 -0.4973 -0.4685  0.4218
   13MOL   C159 3303   4.935   1.669   6.549  0.3863 -0.0802  0.1708
   13MOL   O160 3304   4.867   1.797   6.557  0.5357  0.4295  0.0178
   13MOL   C161 3305   4.947   1.912   6.576  0.9469 -1.1538  0.7446
   13MOL   C162 3306   4.915   2.019   6.468  0.2242 -0.7158 -0.7547
   13MOL   H163 3307   4.731   1.605   6.500  1.8211  2.2068 -1.7104
   13MOL   H164 3308   4.843   1.480   6.490  0.8821  0.6440 -0.6774
   13MOL   H165 3309   5.004   1.659   6.632 -0.2309  0.2769  0.7357
   13MOL   H166 3310   5.056   1.908   6.572  0.8575 -0.8557 -3.2433
   13MOL   H167 3311   4.921   1.959   6.671 -1.5750 -0.0822 -0.4615
   13MOL   H168 3312   4.938   2.120   6.503  1.0171 -0.7774 -1.0978
   13MOL   H169 3313   4.963   2.014   6.371  0.6811  0.9508 -0.6430
   13MOL   H170 3314   4.807   2.020   6.456 -0.2153 -2.7787  2.4200
   13MOL   C171 3315   5.004   1.661   6.411  1.0063  0.8266 -0.1241
   13MOL   C172 3316   5.100   1.540   6.380  0.8307  0.9151  0.3173
   13MOL   O173 3317   5.018   1.419   6.358 -0.3819 -0.2775  0.6732
   13MOL   C174 3318   5.067   1.340   6.246 -0.0436  1.0143  0.6850
   13MOL   C175 3319   4.981   1.215   6.212 -1.0968 -0.6541 -0.4771
   13MOL   H176 3320   5.069   1.749   6.405 -0.4911  1.8268 -2.3616
   13MOL   H177 3321   4.933   1.677   6.330  2.5669 -1.1111 -1.9278
   13MOL   H178 3322   5.146   1.570   6.285 -0.6433  2.7060  0.1468
   13MOL   H179 3323   5.164   1.300   6.274  0.2730 -0.0186 -1.7827
   13MOL   H180 3324   5.076   1.407   6.161  2.0020 -0.1759 -0.0509
   13MOL   H181 3325   4.878   1.229   6.180 -0.6028 -1.7806 -2.7021
   13MOL   H182 3326   5.035   1.144   6.149  0.3178  0.7537 -0.8803
   13MOL   H183 3327   4.959   1.157   6.302 -1.9639 -0.1917 -0.3879
   13MOL   C184 3328   5.210   1.513   6.480  0.2220  0.3229 -0.6439
   13MOL   C185 3329   5.297   1.632   6.519  0.6448 -0.3272  0.2220
   13MOL   O186 3330   5.328   1.700   6.393 -0.0943 -0.0341 -0.5410
   13MOL   C187 3331   5.361   1.832   6.405 -0.2039 -0.6039  0.2386
   13MOL   C188 3332   5.436   1.879   6.279 -0.1253 -0.3991 -0.3019
   13MOL   H189 3333   5.269   1.429   6.442  0.0765 -0.1463  0.1622
   13MOL   H190 3334   5.166   1.480   6.574 -2.0827  2.6420 -0.8366
   13MOL   H191 3335   5.251   1.705   6.586  0.0366 -0.8513  0.3860
   13MOL   H192 3336   5.430   1.850   6.488 -1.0848  0.0441  0.8455
   13MOL   H193 3337   5.275   1.898   6.411  0.2801  0.2215 -1.4371
   13MOL   H194 3338   5.373   1.852   6.195  1.3417 -0.8469 -1.2595
   13MOL   H195 3339   5.445   1.988   6.288 -0.1460 -0.3556 -0.8224
   13MOL   H196 3340   5.537   1.840   6.267  0.0811  0.6206 -1.9930
   13MOL   C197 3341   5.434   1.579   6.571 -0.4014 -0.3461  0.2662
   13MOL   C198 3342   5.426   1.543   6.721  0.1670  0.6943  0.7470
   13MOL   O199 3343   5.417   1.662   6.793  0.4473 -0.3092 -0.8913
   13MOL   C200 3344   5.378   1.654   6.926 -0.0662  0.4206 -0.5897
   13MOL   C201 3345   5.292   1.784   6.952 -0.5482 -0.0474 -0.5394
   13MOL   H202 3346   5.509   1.658   6.579 -0.1048 -0.2844 -2.7315
   13MOL   H203 3347   5.475   1.516   6.492  0.9046  0.7659  0.0378
   13MOL   H204 3348   5.343   1.475   6.740  0.9398 -0.0349  1.5863
   13MOL   H205 3349   5.468   1.648   6.989  0.4630 -0.2153 -1.3991
   13MOL   H206 3350   5.324   1.561   6.944 -0.8471  0.7600 -1.1666
   13MOL   H207 3351   5.212   1.803   6.881 -0.3739 -1.8892 -1.2596
   13MOL   H208 3352   5.262   1.788   7.057  1.0574  1.1396 -0.1032
   13MOL   H209 3353   5.351   1.873   6.935 -1.1564  0.9096  2.1454
   13MOL   C210 3354   5.546   1.463   6.776  0.1300  0.0179 -0.1706
   13MOL   C211 3355   5.535   1.310   6.745  0.9534  0.1773  0.2355
   13MOL   O212 3356   5.457   1.243   6.848  0.1350 -0.3121  0.2752
   13MOL   C213 3357   5.387   1.127   6.802 -0.6198 -0.1030  0.6266
   13MOL   C214 3358   5.298   1.055   6.917  0.1307 -0.7532  0.8947
   13MOL   H215 3359   5.555   1.460   6.885 -1.9484 -2.0806 -0.0008
   13MOL   H216 3360   5.638   1.508   6.739  0.3204 -1.6264 -1.7274
   13MOL   H217 3361   5.492   1.301   6.645 -1.1559  2.6889  0.8857
   13MOL   H218 3362   5.455   1.053   6.759  0.2559  0.7088  0.6079
   13MOL   H219 3363   5.322   1.165   6.722 -2.1108 -0.0385  1.8378
   13MOL   H220 3364   5.229   0.981   6.877  0.6923  0.0646 -1.7002
   13MOL   H221 3365   5.359   1.019   7.000  2.4059  3.1888  1.0758
   13MOL   H222 3366   5.232   1.127   6.966 -1.2216 -0.9136 -0.6558
   13MOL   C223 3367   5.678   1.248   6.753  0.3828  0.1170 -0.4175
   13MOL   C224 3368   5.762   1.280   6.623  0.3573 -0.3081  0.3944
   13MOL   O225 3369   5.689   1.242   6.503 -0.2910 -0.1174  0.4493
   13MOL   C226 3370   5.726   1.337   6.396 -0.5605 -0.2276 -0.1264
   13MOL   C227 3371   5.640   1.329   6.272  0.2755  0.0877 -0.7698
   13MOL   H228 3372   5.691   1.141   6.774  0.7702 -0.1299 -1.8441
   13MOL   H229 3373   5.728   1.293   6.839  0.2831 -0.6861  0.0665
   13MOL   H230 3374   5.758   1.388   6.633  2.1243 -0.2765  1.0131
   13MOL   H231 3375   5.829   1.312   6.369  0.3447  0.9939  2.0179
   13MOL   H232 3376   5.719   1.437   6.439 -0.6539 -0.4425  0.3651
   13MOL   H233 3377   5.588   1.234   6.275 -0.5997  0.4654 -3.0002
   13MOL   H234 3378   5.574   1.415   6.263  0.2826  0.1361 -0.3791
   13MOL   H235 3379   5.701   1.318   6.182  0.3211 -1.3386 -0.5681
   13MOL   C236 3380   5.902   1.211   6.620 -0.1034 -0.2070  0.5446
   13MOL   C237 3381   5.993   1.245   6.732  0.3182  0.3873  0.1512
   13MOL   O238 3382   6.029   1.381   6.705  0.8236 -0.1001 -0.5001
   13MOL   C239 3383   6.015   1.472   6.817  0.8287  0.0130  0.2654
   13MOL   C240 3384   6.060   1.613   6.781 -0.1195 -0.2729 -0.1229
   13MOL   H241 3385   5.958   1.215   6.527  0.2019  0.4824  0.7562
   13MOL   H242 3386   5.881   1.104   6.627 -0.3054 -0.2035 -0.0067
   13MOL   H243 3387   5.933   1.237   6.822  0.1458  1.6863  0.1535
   13MOL   H244 3388   6.075   1.437   6.901  0.1145  1.6600  1.4967
   13MOL   H245 3389   5.909   1.470   6.844  0.8055 -1.8975  0.0904
   13MOL   H246 3390   6.165   1.612   6.751  0.1186  0.3972  0.6753
   13MOL   H247 3391   6.002   1.649   6.696  0.4394  2.6867  0.6759
   13MOL   H248 3392   6.055   1.688   6.860 -2.7176 -0.0463 -0.4548
   13MOL   C249 3393   6.130   1.167   6.732 -0.1333  1.0850  0.0582
   13MOL   C250 3394   6.231   1.187   6.847 -0.3863  0.6014 -0.0381
   13MOL   O251 3395   6.157   1.175   6.965 -0.2318  0.3824  0.4243
   13MOL   C252 3396   6.185   1.052   7.034 -0.2817 -0.0975 -0.3581
   13MOL   C253 3397   6.069   0.962   7.007 -0.9627 -0.1684  0.3388
   13MOL   H254 3398   6.180   1.193   6.638 -1.1190 -0.2806 -0.8700
   13MOL   H255 3399   6.117   1.059   6.721  1.3021  0.6395  2.4401
   13MOL   H256 3400   6.319   1.123   6.832  0.4509  1.5594  0.7205
   13MOL   H257 3401   6.196   1.070   7.141 -1.8685  0.0372 -0.2066
   13MOL   H258 3402   6.277   0.996   7.017 -0.5900 -0.5870 -0.4180
   13MOL   H259 3403   6.058   0.915   6.909  3.1607  2.5512 -1.5428
   13MOL   H260 3404   6.085   0.885   7.082 -1.0171 -0.7634 -0.2541
   13MOL   H261 3405   5.973   1.014   7.019 -1.7350 -1.1413 -1.4976
   13MOL   H262 3406   6.268   1.289   6.852  1.4319 -0.0292 -0.1336
   14MOL     C1 3407   0.866   5.235   4.076 -0.2480 -0.3639  0.2837
   14MOL     C2 3408   0.945   5.357   4.114  0.4855  0.3592 -0.1982
   14MOL     O3 3409   0.876   5.434   4.205 -0.4177  0.6442  0.1872
   14MOL     C4 3410   0.942   5.489   4.318 -0.6917 -0.4699  0.3815
   14MOL     C5 3411   0.836   5.558   4.395 -0.2011 -0.4912  0.0125
   14MOL     H6 3412   0.842   5.172   4.162  1.3118 -2.4284 -0.7658
   14MOL     H7 3413   0.775   5.275   4.030 -0.1567  0.9982  1.2532
   14MOL     H8 3414   1.028   5.313   4.168 -0.3266  0.2795  1.0106
   14MOL     H9 3415   1.017   5.566   4.299 -2.8984  1.7346  0.2065
   14MOL    H10 3416   0.989   5.405   4.367  1.4839 -0.4396 -1.5660
   14MOL    H11 3417   0.791   5.637   4.335  0.5885  0.3104  0.4610
   14MOL    H12 3418   0.754   5.496   4.432 -0.8480 -0.8728 -1.9867
   14MOL    H13 3419   0.887   5.594   4.484 -0.9527  1.9399 -0.4952
   14MOL    H14 3420   0.919   5.173   4.004  1.1213  1.7528 -0.5712
   14MOL    C15 3421   0.996   5.441   3.996  0.6111 -0.3829 -0.0824
   14MOL    C16 3422   1.115   5.386   3.905  0.6151  0.6057 -0.0301
   14MOL    O17 3423   1.075   5.273   3.828  1.0072 -0.1920 -0.4728
   14MOL    C18 3424   0.997   5.285   3.708  0.1155  0.3349  0.6182
   14MOL    C19 3425   0.982   5.154   3.629  0.4821  0.1692  0.1005
   14MOL    H20 3426   1.028   5.541   4.025 -2.1696  0.0672  1.6817
   14MOL    H21 3427   0.908   5.449   3.932 -0.1768  0.5685  1.1011
   14MOL    H22 3428   1.141   5.463   3.832 -0.0773  2.5785  1.7598
   14MOL    H23 3429   1.046   5.359   3.644  1.3561 -2.1982 -1.4454
   14MOL    H24 3430   0.899   5.329   3.727 -0.6287 -0.2288 -1.7108
   14MOL    H25 3431   0.950   5.079   3.701  0.5451  0.8372  0.8433
   14MOL    H26 3432   1.068   5.108   3.580  0.8767 -1.2869  2.0916
   14MOL    H27 3433   0.911   5.168   3.548 -0.1038 -0.0845  0.5697
   14MOL    C28 3434   1.235   5.333   3.988  0.3918 -0.0296  0.3811
   14MOL    C29 3435   1.309   5.442   4.069  0.4740 -0.1238  0.3435
   14MOL    O30 3436   1.348   5.537   3.975 -0.4750  0.3322  0.3654
   14MOL    C31 3437   1.368   5.663   4.036  0.1264  0.1423  0.5931
   14MOL    C32 3438   1.234   5.745   4.011 -1.1447 -0.2856  0.2051
   14MOL    H33 3439   1.299   5.289   3.911 -0.6719  2.2112 -1.8403
   14MOL    H34 3440   1.206   5.248   4.050  0.1267 -0.0857  0.1778
   14MOL    H35 3441   1.232   5.479   4.137  0.3533  0.0702  0.1016
   14MOL    H36 3442   1.448   5.708   3.979 -1.7588  4.5981  1.2814
   14MOL    H37 3443   1.407   5.662   4.138  0.4022  2.7651  0.5469
   14MOL    H38 3444   1.247   5.853   4.024 -1.0843 -0.0046 -2.0241
   14MOL    H39 3445   1.207   5.740   3.905 -0.3733  2.0546 -0.1264
   14MOL    H40 3446   1.150   5.706   4.069 -1.5165  0.7524  0.3845
   14MOL    C41 3447   1.434   5.392   4.149 -0.0233 -0.3156  0.1439
   14MOL    C42 3448   1.408   5.288   4.265  0.5559 -0.0215 -0.7436
   14MOL    O43 3449   1.337   5.343   4.367 -0.7609  0.4238  0.2401
   14MOL    C44 3450   1.362   5.472   4.412  0.2776 -0.2958  0.3167
   14MOL    C45 3451   1.291   5.484   4.543  0.3452 -0.2628 -0.4833
   14MOL    H46 3452   1.492   5.479   4.179  1.6117 -1.1690 -0.4644
   14MOL    H47 3453   1.493   5.341   4.072 -1.1425 -0.7335 -0.4421
   14MOL    H48 3454   1.353   5.203   4.225  0.0686  1.7697 -4.0729
   14MOL    H49 3455   1.327   5.550   4.344 -0.1567  1.0863  2.0732
   14MOL    H50 3456   1.468   5.481   4.432  0.5475 -1.1988 -0.7197
   14MOL    H51 3457   1.349   5.432   4.620 -1.4427 -1.0270  0.3832
   14MOL    H52 3458   1.272   5.588   4.569 -0.0939 -0.0373 -1.6590
   14MOL    H53 3459   1.194   5.434   4.540 -0.3211  0.4961  4.3090
   14MOL    C54 3460   1.545   5.240   4.334  0.3776 -0.1266  0.3598
   14MOL    C55 3461   1.628   5.150   4.225 -0.7978  0.4552  0.3522
   14MOL    O56 3462   1.586   5.014   4.217 -0.4043 -0.2195 -0.3411
   14MOL    C57 3463   1.476   4.979   4.125  0.1384 -0.7547  0.4486
   14MOL    C58 3464   1.521   4.850   4.064 -0.8158 -0.5756 -0.2442
   14MOL    H59 3465   1.510   5.165   4.405 -2.1587  0.8211  0.1472
   14MOL    H60 3466   1.603   5.311   4.393  0.5647  1.5810 -1.8226
   14MOL    H61 3467   1.626   5.192   4.125 -2.0818  0.4993  0.3958
   14MOL    H62 3468   1.456   5.057   4.052  1.0629 -1.1531 -0.2405
   14MOL    H63 3469   1.384   4.953   4.177 -0.4535 -0.1678 -0.2969
   14MOL    H64 3470   1.540   4.774   4.139  2.6497 -0.6382 -1.0983
   14MOL    H65 3471   1.458   4.823   3.979 -0.4853  0.6452 -0.8897
   14MOL    H66 3472   1.620   4.867   4.022 -1.2193  1.7734 -0.3061
   14MOL    C67 3473   1.775   5.140   4.275  0.2423  0.0887  0.1186
   14MOL    C68 3474   1.879   5.223   4.192  0.3958 -0.3480  0.7970
   14MOL    O69 3475   2.007   5.173   4.206 -0.2971 -0.1146 -0.7863
   14MOL    C70 3476   2.094   5.190   4.096  0.7187 -0.5436 -0.4176
   14MOL    C71 3477   2.208   5.093   4.126  0.2223 -0.3637  0.2064
   14MOL    H72 3478   1.810   5.036   4.278  1.2799  0.4197 -0.1954
   14MOL    H73 3479   1.775   5.160   4.382  1.9731 -1.0396  0.3655
   14MOL    H74 3480   1.849   5.219   4.087  1.4569 -0.5044  0.5017
   14MOL    H75 3481   2.132   5.292   4.091 -0.5532 -0.0872 -0.9437
   14MOL    H76 3482   2.034   5.174   4.006 -2.3510  4.3235  0.5642
   14MOL    H77 3483   2.273   5.080   4.039 -0.3633 -0.0901 -0.2754
   14MOL    H78 3484   2.269   5.119   4.212  0.5360 -1.1372  0.2232
   14MOL    H79 3485   2.160   5.000   4.155  3.6282 -2.2411  0.0484
   14MOL    C80 3486   1.871   5.375   4.212  0.1978  0.0791 -0.0447
   14MOL    C81 3487   1.906   5.442   4.347 -0.2102  0.5766  0.3190
   14MOL    O82 3488   1.899   5.576   4.335 -0.1868 -0.2500  0.0918
   14MOL    C83 3489   1.779   5.646   4.354  0.1913  0.3836 -0.1315
   14MOL    C84 3490   1.820   5.786   4.328 -0.1329 -0.1665 -0.2374
   14MOL    H85 3491   1.770   5.403   4.182 -0.1725  0.6209  1.6410
   14MOL    H86 3492   1.937   5.416   4.135  0.1532  0.4698  0.1218
   14MOL    H87 3493   1.841   5.404   4.426 -2.7707  0.6046 -1.6953
   14MOL    H88 3494   1.753   5.626   4.458  4.9855 -4.0165  0.4291
   14MOL    H89 3495   1.708   5.605   4.283  1.1303  1.2383 -1.5955
   14MOL    H90 3496   1.742   5.851   4.367 -1.3511 -2.3381  1.0739
   14MOL    H91 3497   1.910   5.813   4.383 -1.1085  2.1564  0.2623
   14MOL    H92 3498   1.830   5.802   4.221  1.1320 -0.4250 -0.1673
   14MOL    C93 3499   2.053   5.419   4.395 -0.3949  0.1046 -0.6132
   14MOL    C94 3500   2.066   5.443   4.551 -0.8499 -0.2838 -0.2221
   14MOL    O95 3501   2.207   5.476   4.571  0.2044  0.3264  0.1696
   14MOL    C96 3502   2.226   5.606   4.630  0.8210 -0.7640 -0.7263
   14MOL    C97 3503   2.230   5.708   4.515 -0.5483 -0.0153 -0.3433
   14MOL    H98 3504   2.114   5.484   4.332  1.3121  0.0109  0.8810
   14MOL    H99 3505   2.077   5.316   4.369  0.3251  0.5065 -1.6058
   14MOL   H100 3506   1.998   5.522   4.584 -1.7211 -0.7890 -0.8077
   14MOL   H101 3507   2.321   5.606   4.681  1.6222  2.7428 -2.0784
   14MOL   H102 3508   2.154   5.621   4.711  1.7825 -1.5018  0.2674
   14MOL   H103 3509   2.237   5.811   4.549  3.0665 -1.0117  2.3171
   14MOL   H104 3510   2.325   5.688   4.465  0.3362 -0.6691  1.5410
   14MOL   H105 3511   2.141   5.701   4.453  0.7230  0.2593 -2.2518
   14MOL   C106 3512   2.026   5.317   4.622  0.6095 -0.1737  0.2196
   14MOL   C107 3513   2.053   5.328   4.777  0.1366  0.3074 -0.2410
   14MOL   O108 3514   2.036   5.203   4.836 -0.0069  0.4085 -0.4436
   14MOL   C109 3515   2.163   5.137   4.866  0.3502 -0.2044  0.0283
   14MOL   C110 3516   2.131   5.007   4.943 -0.3057 -0.2543 -0.5492
   14MOL   H111 3517   2.097   5.238   4.600 -1.6580 -2.6513  1.5962
   14MOL   H112 3518   1.926   5.275   4.617  1.2985 -1.9854  1.3400
   14MOL   H113 3519   2.158   5.357   4.786  0.1683  0.3136 -0.6426
   14MOL   H114 3520   2.227   5.192   4.934  0.5060  0.1633 -0.4138
   14MOL   H115 3521   2.211   5.105   4.773  0.2406  0.4955 -0.2712
   14MOL   H116 3522   2.063   5.026   5.026  1.8284 -0.1855  1.2327
   14MOL   H117 3523   2.074   4.936   4.883 -3.4317  1.0389  0.7524
   14MOL   H118 3524   2.220   4.961   4.984  1.2684  2.9425 -0.1930
   14MOL   C119 3525   1.954   5.415   4.857  0.0205  0.8323  0.3234
   14MOL   C120 3526   1.981   5.442   5.011  0.1960  0.2913 -0.2122
   14MOL   O121 3527   1.866   5.520   5.049  0.9248 -0.2558  0.3749
   14MOL   C122 3528   1.786   5.473   5.156  0.1006 -0.2444  0.2202
   14MOL   C123 3529   1.668   5.572   5.186 -0.0530 -0.6743 -0.1598
   14MOL   H124 3530   1.861   5.360   4.843  0.0597  0.4918  1.3633
   14MOL   H125 3531   1.933   5.510   4.808  0.9694  1.3455  0.9003
   14MOL   H126 3532   1.985   5.355   5.075 -0.7677 -0.0328 -0.5832
   14MOL   H127 3533   1.846   5.451   5.244  2.6449 -0.7707 -1.5884
   14MOL   H128 3534   1.741   5.375   5.137  0.9309 -0.5725 -0.0791
   14MOL   H129 3535   1.600   5.570   5.101  0.1985 -0.0458 -0.3732
   14MOL   H130 3536   1.618   5.544   5.279  1.2580  0.8214  1.0056
   14MOL   H131 3537   1.705   5.672   5.208 -1.1750 -0.0322 -1.1003
   14MOL   C132 3538   2.108   5.536   5.023 -1.4350  0.2340 -0.7772
   14MOL   C133 3539   2.213   5.467   5.115 -0.3423 -0.0356  0.5093
   14MOL   O134 3540   2.161   5.470   5.246 -0.8803  0.7786  0.2901
   14MOL   C135 3541   2.172   5.344   5.311 -0.7247  0.2574 -0.6079
   14MOL   C136 3542   2.095   5.339   5.442  0.5205  0.1574  0.2765
   14MOL   H137 3543   2.083   5.636   5.057 -4.3023 -0.6489 -0.1821
   14MOL   H138 3544   2.152   5.557   4.925  2.2617 -3.7028 -0.1200
   14MOL   H139 3545   2.231   5.368   5.075  0.1083 -0.2242  1.1745
   14MOL   H140 3546   2.277   5.320   5.327 -1.0775 -1.0783 -0.1591
   14MOL   H141 3547   2.130   5.268   5.245 -2.0037 -1.4067  1.9958
   14MOL   H142 3548   1.990   5.366   5.430 -0.0178 -2.4514 -1.2983
   14MOL   H143 3549   2.113   5.251   5.505  0.6234  1.0356  1.5019
   14MOL   H144 3550   2.134   5.414   5.511  0.0970 -0.1209  0.8293
   14MOL   C145 3551   2.351   5.531   5.110 -0.1064 -0.1452 -0.5061
   14MOL   C146 3552   2.443   5.495   4.987  0.0085  0.2940 -0.2969
   14MOL   O147 3553   2.478   5.356   4.982 -0.3470  0.1596 -0.2330
   14MOL   C148 3554   2.508   5.305   4.852 -0.1365 -0.8711 -0.2572
   14MOL   C149 3555   2.586   5.170   4.853  0.7599 -0.8030  0.0401
   14MOL   H150 3556   2.412   5.514   5.200  1.9861  2.3552 -1.3798
   14MOL   H151 3557   2.336   5.639   5.117 -0.7957 -0.2793  0.2706
   14MOL   H152 3558   2.392   5.512   4.892 -0.3793 -1.3619 -0.3927
   14MOL   H153 3559   2.557   5.374   4.783 -1.8700  0.8847  0.2168
   14MOL   H154 3560   2.411   5.285   4.807 -0.9528  0.5688  0.8187
   14MOL   H155 3561   2.603   5.112   4.763  0.1934  0.8108 -1.1251
   14MOL   H156 3562   2.683   5.183   4.902  1.4281 -0.2720 -1.3879
   14MOL   H157 3563   2.531   5.099   4.914 -0.3067 -0.2725 -0.3070
   14MOL   C158 3564   2.576   5.574   5.005 -0.1105  0.3632 -0.0570
   14MOL   C159 3565   2.574   5.730   5.010 -0.5424 -0.1181  0.2710
   14MOL   O160 3566   2.498   5.775   4.902 -0.3587 -0.1148  0.5173
   14MOL   C161 3567   2.452   5.907   4.907 -0.4924  0.6159  0.0384
   14MOL   C162 3568   2.306   5.901   4.872 -0.1670 -0.8127  0.3481
   14MOL   H163 3569   2.652   5.529   4.941 -1.0392 -2.4385  0.7203
   14MOL   H164 3570   2.608   5.547   5.106 -1.6007 -1.1162  0.0326
   14MOL   H165 3571   2.522   5.766   5.099  1.8032  2.8112  0.5710
   14MOL   H166 3572   2.508   5.968   4.836  0.4449  0.1170  0.3303
   14MOL   H167 3573   2.478   5.947   5.005 -0.2765 -1.4932  0.8693
   14MOL   H168 3574   2.296   5.858   4.772 -0.4190  0.8597 -0.3628
   14MOL   H169 3575   2.268   5.822   4.938 -1.0939 -1.5159 -0.9999
   14MOL   H170 3576   2.249   5.993   4.881  0.9442 -0.0603 -0.2702
   14MOL   C171 3577   2.710   5.796   5.012  0.2381  1.0645  0.1779
   14MOL   C172 3578   2.793   5.762   5.137  0.4424 -0.2544  0.1524
   14MOL   O173 3579   2.720   5.820   5.242 -0.1795 -0.0847  0.2068
   14MOL   C174 3580   2.705   5.735   5.359  0.6621  0.1922  0.2425
   14MOL   C175 3581   2.611   5.812   5.443  0.3772 -0.6235 -0.3857
   14MOL   H176 3582   2.714   5.902   4.986 -0.4253  1.8953  3.2916
   14MOL   H177 3583   2.760   5.747   4.928 -1.8574  0.0940 -0.5297
   14MOL   H178 3584   2.805   5.655   5.149 -0.7301 -0.7748 -3.0130
   14MOL   H179 3585   2.800   5.731   5.411 -0.2404  1.9296  2.0690
   14MOL   H180 3586   2.653   5.641   5.339 -1.6722  1.7755 -1.4732
   14MOL   H181 3587   2.642   5.915   5.460 -2.7637  0.1255  1.3742
   14MOL   H182 3588   2.507   5.807   5.411  0.4526  2.0581 -1.2028
   14MOL   H183 3589   2.615   5.760   5.539 -4.2016  1.6549  1.1993
   14MOL   C184 3590   2.937   5.819   5.132  0.1898 -0.4659  0.7110
   14MOL   C185 3591   3.040   5.748   5.221 -0.5953  0.4966 -0.1048
   14MOL   O186 3592   3.144   5.839   5.237 -0.0404 -0.3747  0.5926
   14MOL   C187 3593   3.131   5.937   5.339  0.2526  0.6346  0.3655
   14MOL   C188 3594   3.254   6.024   5.344  0.8942  0.3511 -0.3422
   14MOL   H189 3595   2.928   5.926   5.151 -0.6317 -0.4513  0.2701
   14MOL   H190 3596   2.974   5.805   5.030 -0.8567 -0.3167  0.2995
   14MOL   H191 3597   2.989   5.732   5.316 -0.5581  0.3191 -0.1159
   14MOL   H192 3598   3.123   5.885   5.435  1.2123  0.9847  0.6336
   14MOL   H193 3599   3.044   6.000   5.318 -1.4563 -1.7397  0.1292
   14MOL   H194 3600   3.338   5.968   5.385  0.4195  0.1869  0.4105
   14MOL   H195 3601   3.291   6.064   5.250  1.6888 -0.0677 -0.2120
   14MOL   H196 3602   3.245   6.109   5.412 -1.9202 -0.5097  0.4186
   14MOL   C197 3603   3.096   5.608   5.169  0.1145 -0.2274  0.6756
   14MOL   C198 3604   3.191   5.539   5.275  0.1725 -0.0214 -0.3102
   14MOL   O199 3605   3.226   5.428   5.200 -0.2282 -0.1414 -0.2983
   14MOL   C200 3606   3.337   5.351   5.249  0.0923  0.0515  0.6858
   14MOL   C201 3607   3.386   5.250   5.150  0.3844  0.1823 -0.4377
   14MOL   H202 3608   3.161   5.624   5.083 -1.1386 -1.5671 -0.5522
   14MOL   H203 3609   3.019   5.537   5.138 -2.0420  2.8827 -1.4071
   14MOL   H204 3610   3.274   5.607   5.292  0.8336 -1.1676  1.0805
   14MOL   H205 3611   3.308   5.296   5.339 -1.5744 -1.2476 -0.6306
   14MOL   H206 3612   3.422   5.417   5.268  1.5163 -1.6234  0.2659
   14MOL   H207 3613   3.424   5.303   5.063  0.5577  1.6329  0.5035
   14MOL   H208 3614   3.462   5.184   5.191  1.4858  0.3246 -2.1859
   14MOL   H209 3615   3.294   5.212   5.106  1.5183 -1.8035 -1.1326
   14MOL   C210 3616   3.129   5.495   5.411 -0.6180  0.6222  0.0188
   14MOL   C211 3617   2.999   5.426   5.422  0.0110 -0.1287 -0.8736
   14MOL   O212 3618   2.956   5.412   5.557  0.6354 -0.2558  0.9202
   14MOL   C213 3619   2.873   5.523   5.594  0.0687  0.3230  0.5661
   14MOL   C214 3620   2.854   5.529   5.742 -0.3454  0.8231 -0.3335
   14MOL   H215 3621   3.111   5.585   5.470  0.8373  1.3357 -0.6036
   14MOL   H216 3622   3.193   5.440   5.480 -1.4761 -0.2143  0.1612
   14MOL   H217 3623   2.935   5.484   5.355 -0.1851  0.9944  0.2814
   14MOL   H218 3624   2.777   5.504   5.546  0.5318 -0.9651  0.1273
   14MOL   H219 3625   2.921   5.613   5.557  0.3388 -0.1163 -0.1740
   14MOL   H220 3626   2.949   5.561   5.786  0.3603 -0.4704 -0.9040
   14MOL   H221 3627   2.773   5.599   5.762 -0.3777  0.3963  1.0620
   14MOL   H222 3628   2.824   5.431   5.779  2.9417 -0.5524 -1.1172
   14MOL   C223 3629   2.983   5.286   5.355 -0.2974 -0.3530  0.4226
   14MOL   C224 3630   2.850   5.213   5.363  0.2435 -0.0525 -0.1639
   14MOL   O225 3631   2.851   5.088   5.293  0.2036  0.2064 -0.2133
   14MOL   C226 3632   2.891   4.971   5.367  0.2037  0.2322  0.1161
   14MOL   C227 3633   2.850   4.850   5.281  0.7155  0.0503 -0.5117
   14MOL   H228 3634   3.060   5.224   5.401  1.1272  0.4660 -0.8002
   14MOL   H229 3635   3.016   5.274   5.252  0.5567  0.3385  0.6028
   14MOL   H230 3636   2.819   5.207   5.468 -1.0856 -0.6402 -0.5690
   14MOL   H231 3637   2.841   4.976   5.464 -2.9771 -1.5483 -1.3475
   14MOL   H232 3638   2.998   4.971   5.383  0.0311  3.7207  1.6778
   14MOL   H233 3639   2.904   4.850   5.186  2.3855 -0.1297  0.4227
   14MOL   H234 3640   2.883   4.760   5.332  0.4080  0.1018 -0.2224
   14MOL   H235 3641   2.743   4.841   5.263  1.2489 -3.2546 -2.5238
   14MOL   C236 3642   2.735   5.289   5.291  0.5180  0.1059  0.3528
   14MOL   C237 3643   2.596   5.261   5.348  0.6758 -0.1986 -0.8442
   14MOL   O238 3644   2.604   5.314   5.482  0.3535  0.1614 -0.4369
   14MOL   C239 3645   2.478   5.354   5.541 -0.3684 -0.3636  0.4409
   14MOL   C240 3646   2.498   5.376   5.690  0.0992  0.0323 -0.0006
   14MOL   H241 3647   2.745   5.260   5.187  2.6638 -2.4710  1.2134
   14MOL   H242 3648   2.745   5.398   5.297 -0.0456  0.2813 -1.6062
   14MOL   H243 3649   2.523   5.316   5.288 -0.3327 -2.8226 -2.0738
   14MOL   H244 3650   2.392   5.290   5.520 -0.1651 -0.5387  0.1385
   14MOL   H245 3651   2.450   5.447   5.491 -0.8547 -0.8641 -0.2214
   14MOL   H246 3652   2.554   5.463   5.723  1.2780 -0.1606 -1.4120
   14MOL   H247 3653   2.406   5.374   5.748  0.0870  0.6669  0.0015
   14MOL   H248 3654   2.545   5.287   5.732  0.4599  0.8834  1.4394
   14MOL   C249 3655   2.555   5.118   5.340  0.9694  0.4113  0.3717
   14MOL   C250 3656   2.541   5.059   5.200  0.3129  0.4336 -0.7535
   14MOL   O251 3657   2.506   4.924   5.214 -0.2027  0.5464  0.1415
   14MOL   C252 3658   2.484   4.844   5.100  0.0087  1.0718  0.0056
   14MOL   C253 3659   2.433   4.712   5.154 -0.0301 -0.4330  0.7267
   14MOL   H254 3660   2.459   5.104   5.390  1.3133  4.0586  2.2142
   14MOL   H255 3661   2.620   5.048   5.393  0.2551 -1.8702 -1.6263
   14MOL   H256 3662   2.460   5.107   5.146 -0.3959 -0.1912 -0.2576
   14MOL   H257 3663   2.568   4.813   5.038 -2.9310 -1.3009 -2.9701
   14MOL   H258 3664   2.419   4.887   5.024 -0.7309 -2.4999 -1.4978
   14MOL   H259 3665   2.510   4.672   5.220  0.2320  1.0334  1.3363
   14MOL   H260 3666   2.332   4.719   5.194 -0.0386 -1.5233  0.9134
   14MOL   H261 3667   2.417   4.629   5.085 -0.8048  0.4471 -0.1690
   14MOL   H262 3668   2.631   5.062   5.139  0.8411 -0.6762 -0.0456
   15MOL     C1 3669   2.727   5.353   2.421  0.3725  0.2908  0.4667
   15MOL     C2 3670   2.653   5.383   2.288  0.1108 -0.5925  0.5242
   15MOL     O3 3671   2.710   5.487   2.209 -1.1658 -0.3355  0.5157
   15MOL     C4 3672   2.811   5.440   2.116 -0.0030  0.2738  0.2169
   15MOL     C5 3673   2.868   5.570   2.051  0.7518 -0.3380 -0.2003
   15MOL     H6 3674   2.753   5.453   2.458 -0.5117 -0.0666  2.0964
   15MOL     H7 3675   2.667   5.292   2.489 -0.5104  1.7225  1.0028
   15MOL     H8 3676   2.659   5.291   2.229  1.1731 -1.2491  1.6546
   15MOL     H9 3677   2.763   5.373   2.044  3.3732 -1.9786 -0.0206
   15MOL    H10 3678   2.886   5.385   2.173  1.1216  2.4058  0.8133
   15MOL    H11 3679   2.910   5.567   1.951  0.4204  0.4399 -0.3636
   15MOL    H12 3680   2.788   5.644   2.050  1.2123  0.1547 -1.0455
   15MOL    H13 3681   2.951   5.604   2.113  1.7608 -1.3223 -0.9942
   15MOL    H14 3682   2.819   5.298   2.402  0.8296  2.0439 -2.8885
   15MOL    C15 3683   2.503   5.425   2.299  0.9205  0.2492  0.1029
   15MOL    C16 3684   2.409   5.322   2.377  0.5883  0.0623  0.9556
   15MOL    O17 3685   2.424   5.190   2.324  0.0949  0.5270 -0.1859
   15MOL    C18 3686   2.434   5.084   2.417 -0.3024  0.7853 -0.7696
   15MOL    C19 3687   2.401   4.956   2.337  0.8071 -0.3336  0.2792
   15MOL    H20 3688   2.449   5.449   2.207 -0.4081 -0.1126  0.7803
   15MOL    H21 3689   2.506   5.521   2.350 -2.0897 -0.0329  0.8746
   15MOL    H22 3690   2.441   5.327   2.481  1.3303  1.4058  0.6867
   15MOL    H23 3691   2.372   5.096   2.506  0.7420  0.5047  0.0037
   15MOL    H24 3692   2.538   5.088   2.449 -0.1447  1.3359 -1.3460
   15MOL    H25 3693   2.294   4.937   2.344  1.2413 -2.6693  1.1145
   15MOL    H26 3694   2.459   4.873   2.377  2.2353  0.5644  0.0894
   15MOL    H27 3695   2.433   4.965   2.233  0.9881  1.4578  0.4906
   15MOL    C28 3696   2.263   5.363   2.372  0.2146 -0.1699 -0.2168
   15MOL    C29 3697   2.235   5.468   2.487  0.1650  0.4470  0.2972
   15MOL    O30 3698   2.204   5.389   2.606 -0.5094 -0.0035  0.2552
   15MOL    C31 3699   2.258   5.439   2.729 -0.7154  0.2798  0.2027
   15MOL    C32 3700   2.253   5.352   2.853 -0.4594  0.0388  0.0660
   15MOL    H33 3701   2.196   5.277   2.377 -0.1010  0.1245  0.9729
   15MOL    H34 3702   2.254   5.415   2.277  0.6341  1.3980  0.5822
   15MOL    H35 3703   2.326   5.527   2.497  0.7559 -0.6381  1.4495
   15MOL    H36 3704   2.202   5.531   2.746 -0.0809  0.6189  0.4680
   15MOL    H37 3705   2.359   5.470   2.704 -0.1007 -1.4760  0.3927
   15MOL    H38 3706   2.151   5.341   2.891  0.0887 -2.2582  0.9616
   15MOL    H39 3707   2.285   5.250   2.831  0.2914 -0.0182  1.3425
   15MOL    H40 3708   2.312   5.387   2.937 -0.9255 -0.8214  0.7616
   15MOL    C41 3709   2.117   5.570   2.465 -0.0862 -0.3865 -0.5110
   15MOL    C42 3710   2.141   5.671   2.346 -0.2318 -0.5535 -0.9033
   15MOL    O43 3711   2.272   5.734   2.372 -0.1968 -0.0431 -0.4424
   15MOL    C44 3712   2.319   5.828   2.279  0.6756  0.2953  0.0786
   15MOL    C45 3713   2.376   5.767   2.156  0.3953 -0.1545 -0.6864
   15MOL    H46 3714   2.087   5.631   2.550  1.5523  0.8447 -0.7832
   15MOL    H47 3715   2.039   5.499   2.441  1.4947 -1.5513 -2.3908
   15MOL    H48 3716   2.136   5.598   2.265  2.3126 -1.5372 -0.2448
   15MOL    H49 3717   2.390   5.892   2.331  1.3175  0.0319 -0.4591
   15MOL    H50 3718   2.246   5.907   2.264 -2.1392 -1.9152  1.5938
   15MOL    H51 3719   2.451   5.695   2.189 -0.2057 -1.5272 -2.2661
   15MOL    H52 3720   2.310   5.704   2.097  1.3255 -2.6379  0.8777
   15MOL    H53 3721   2.420   5.840   2.087 -0.3288  2.3744  1.4600
   15MOL    C54 3722   2.021   5.779   2.333 -0.0720  0.2264 -0.2054
   15MOL    C55 3723   1.999   5.871   2.449 -0.2992  0.0506  0.1549
   15MOL    O56 3724   1.940   5.779   2.538  0.2438 -0.2845  0.1871
   15MOL    C57 3725   1.915   5.835   2.663  0.7603  0.4545 -0.1143
   15MOL    C58 3726   1.915   5.709   2.756 -0.1729 -0.5963  0.2419
   15MOL    H59 3727   1.933   5.736   2.285 -0.3924  0.2540  0.3449
   15MOL    H60 3728   2.054   5.839   2.248  0.8166  0.6948  0.4575
   15MOL    H61 3729   2.094   5.908   2.487  1.1213 -1.5018 -1.7491
   15MOL    H62 3730   1.815   5.879   2.666 -0.6487 -2.6489  0.1784
   15MOL    H63 3731   1.997   5.902   2.689  0.8245  0.2969  0.0926
   15MOL    H64 3732   1.847   5.635   2.714  2.6298 -2.9290 -0.3120
   15MOL    H65 3733   2.014   5.665   2.754  0.9559  1.8929 -0.8528
   15MOL    H66 3734   1.877   5.744   2.852  1.0854  2.5127 -0.3253
   15MOL    C67 3735   1.897   5.989   2.416 -0.3392 -0.2221 -0.1552
   15MOL    C68 3736   1.952   6.109   2.336 -0.5840  0.1306 -0.1732
   15MOL    O69 3737   2.064   6.155   2.415  0.0655  0.5286  0.1756
   15MOL    C70 3738   2.167   6.211   2.340  0.0598 -0.1617 -0.4214
   15MOL    C71 3739   2.231   6.318   2.419  0.3308 -0.8917  0.0397
   15MOL    H72 3740   1.858   6.031   2.508  0.6287  1.5813 -0.5589
   15MOL    H73 3741   1.807   5.958   2.362 -0.6819  1.3550 -0.5001
   15MOL    H74 3742   1.972   6.059   2.241 -1.5396  0.9307 -0.8093
   15MOL    H75 3743   2.141   6.255   2.244  0.2343  0.0169 -0.3875
   15MOL    H76 3744   2.236   6.126   2.336 -1.1303 -1.1256 -0.6746
   15MOL    H77 3745   2.269   6.272   2.510 -1.4742 -1.1697  0.6639
   15MOL    H78 3746   2.311   6.358   2.355 -0.2271 -0.4623 -0.3895
   15MOL    H79 3747   2.153   6.388   2.447  2.5261  1.0957  1.4500
   15MOL    C80 3748   1.851   6.227   2.314  0.0408  0.2686 -0.0382
   15MOL    C81 3749   1.730   6.182   2.240  0.0249  0.0543  0.5195
   15MOL    O82 3750   1.774   6.136   2.109  0.8144  0.4207 -0.0365
   15MOL    C83 3751   1.684   6.059   2.029 -0.8770 -0.5960  0.3505
   15MOL    C84 3752   1.725   5.912   2.046 -0.4745 -0.1395 -0.0909
   15MOL    H85 3753   1.896   6.316   2.271 -0.0193  1.2035  1.7910
   15MOL    H86 3754   1.827   6.269   2.412 -2.1235  1.9880 -1.2529
   15MOL    H87 3755   1.681   6.096   2.285 -0.9974  0.2565 -0.1874
   15MOL    H88 3756   1.697   6.086   1.924 -1.1032  0.0785  0.4946
   15MOL    H89 3757   1.584   6.074   2.070 -0.4772  3.7388 -0.0127
   15MOL    H90 3758   1.723   5.868   2.145  0.0929 -0.6408 -0.2977
   15MOL    H91 3759   1.660   5.851   1.984 -2.2105  0.7021  0.8732
   15MOL    H92 3760   1.826   5.887   2.014 -0.1194 -2.0220  2.3427
   15MOL    C93 3761   1.625   6.295   2.225  0.0625 -0.0718 -0.0389
   15MOL    C94 3762   1.539   6.315   2.351  0.3968 -0.2362  0.0930
   15MOL    O95 3763   1.429   6.220   2.327  0.2816  0.0418  0.1160
   15MOL    C96 3764   1.344   6.191   2.439  0.1017  0.5551  0.6359
   15MOL    C97 3765   1.207   6.135   2.386  0.1677 -0.3290  0.3220
   15MOL    H98 3766   1.562   6.273   2.139  1.5324 -0.0594 -1.1440
   15MOL    H99 3767   1.676   6.386   2.194 -2.4265  0.7243 -1.9150
   15MOL   H100 3768   1.601   6.305   2.440  0.0083  2.6767  0.7460
   15MOL   H101 3769   1.312   6.281   2.492 -0.0268 -0.2078  1.8537
   15MOL   H102 3770   1.382   6.115   2.507  0.2563 -0.7416 -0.8598
   15MOL   H103 3771   1.134   6.137   2.467  2.2156 -0.1237  2.2010
   15MOL   H104 3772   1.164   6.190   2.303  1.6066  0.8909  0.3638
   15MOL   H105 3773   1.229   6.032   2.356  0.1283 -0.2549  0.0316
   15MOL   C106 3774   1.487   6.462   2.350  0.2914  0.5389  0.1632
   15MOL   C107 3775   1.563   6.560   2.441  0.1166  0.4290  0.2050
   15MOL   O108 3776   1.493   6.680   2.426 -0.6500  0.3915 -0.0731
   15MOL   C109 3777   1.394   6.705   2.516 -0.5162  0.1112  0.5000
   15MOL   C110 3778   1.332   6.838   2.496 -0.8716 -0.2521 -1.2124
   15MOL   H111 3779   1.383   6.460   2.381 -0.2416 -0.1745 -1.5851
   15MOL   H112 3780   1.487   6.493   2.245 -0.6297  0.9749  0.2882
   15MOL   H113 3781   1.562   6.529   2.546  1.1694  0.4650  0.2296
   15MOL   H114 3782   1.441   6.709   2.614  0.7324  0.7487 -0.1242
   15MOL   H115 3783   1.321   6.624   2.518  0.9983 -1.3549 -1.1188
   15MOL   H116 3784   1.248   6.833   2.427 -0.2267 -1.1013 -1.9395
   15MOL   H117 3785   1.287   6.871   2.590  1.8819 -0.8741  0.3903
   15MOL   H118 3786   1.405   6.912   2.463 -0.0807 -0.0521  0.9165
   15MOL   C119 3787   1.707   6.581   2.404  0.3408  0.4406 -1.1372
   15MOL   C120 3788   1.785   6.685   2.498  0.3456  0.5456 -0.8195
   15MOL   O121 3789   1.923   6.664   2.478 -0.1888 -0.0405 -0.2260
   15MOL   C122 3790   1.977   6.702   2.346  0.2202 -0.5263 -0.6596
   15MOL   C123 3791   2.133   6.697   2.347 -0.6041  0.1730 -0.5307
   15MOL   H124 3792   1.705   6.621   2.303 -1.0862  0.1654 -1.2365
   15MOL   H125 3793   1.771   6.495   2.385  0.1719 -0.3853  1.8228
   15MOL   H126 3794   1.756   6.783   2.461 -1.5480  0.0893 -0.5759
   15MOL   H127 3795   1.943   6.802   2.316 -1.1863 -0.8353 -0.1164
   15MOL   H128 3796   1.938   6.635   2.269  0.4925 -0.5833 -0.7459
   15MOL   H129 3797   2.175   6.750   2.432 -0.5717  1.0240 -1.0769
   15MOL   H130 3798   2.160   6.593   2.362 -1.7024  0.0490  0.7811
   15MOL   H131 3799   2.184   6.718   2.254  0.2125 -0.7897 -0.2989
   15MOL   C132 3800   1.755   6.679   2.650 -0.0716 -0.8952  0.5290
   15MOL   C133 3801   1.839   6.781   2.735  0.0494 -0.3903  0.2081
   15MOL   O134 3802   1.816   6.767   2.874 -0.4067  0.4494  0.4163
   15MOL   C135 3803   1.862   6.638   2.922  0.1055  0.0032  0.5516
   15MOL   C136 3804   1.850   6.634   3.079 -0.2124 -0.6150  0.0802
   15MOL   H137 3805   1.781   6.578   2.680  0.3197 -0.6014  1.1722
   15MOL   H138 3806   1.650   6.698   2.672  0.1991  0.2794  0.8559
   15MOL   H139 3807   1.945   6.769   2.715 -0.4008  0.6743 -3.1187
   15MOL   H140 3808   1.968   6.631   2.896 -0.1684 -0.7328 -0.4131
   15MOL   H141 3809   1.816   6.551   2.874 -1.8514 -0.0870  2.5438
   15MOL   H142 3810   1.751   6.607   3.117 -0.1814  0.2401  0.7822
   15MOL   H143 3811   1.920   6.553   3.098 -0.2893 -0.5107  0.8057
   15MOL   H144 3812   1.886   6.722   3.132  0.8146 -0.5505 -0.7000
   15MOL   C145 3813   1.808   6.925   2.702  0.2342  0.4675  0.0145
   15MOL   C146 3814   1.916   6.992   2.616  0.4446  0.4060 -0.0832
   15MOL   O147 3815   2.025   7.020   2.705 -0.4085  0.4936  1.0745
   15MOL   C148 3816   2.148   6.967   2.673 -0.4854 -0.4487  0.7909
   15MOL   C149 3817   2.237   6.953   2.794  0.0050  0.1101  0.5339
   15MOL   H150 3818   1.804   6.975   2.798 -2.0947 -0.5375  0.4694
   15MOL   H151 3819   1.707   6.946   2.668  0.0305 -0.7475 -0.1369
   15MOL   H152 3820   1.938   6.922   2.535 -1.9654  0.5447 -0.9204
   15MOL   H153 3821   2.202   7.027   2.599 -0.5398 -0.9654  0.3226
   15MOL   H154 3822   2.130   6.869   2.627 -0.7759 -0.0687  0.0830
   15MOL   H155 3823   2.182   6.899   2.871  2.1376 -1.7534  0.7933
   15MOL   H156 3824   2.329   6.897   2.778 -0.6446 -0.6331 -0.6174
   15MOL   H157 3825   2.267   7.053   2.828  0.5243 -0.0980  0.6897
   15MOL   C158 3826   1.871   7.116   2.552  0.4546  0.4464  0.2086
   15MOL   C159 3827   1.970   7.189   2.464 -0.4622  0.5776  0.4703
   15MOL   O160 3828   1.889   7.285   2.397  0.4361 -0.3424  0.2489
   15MOL   C161 3829   1.913   7.419   2.437 -0.6479 -0.1383 -0.3206
   15MOL   C162 3830   1.811   7.517   2.386 -0.2083 -0.1210 -0.0183
   15MOL   H163 3831   1.845   7.182   2.635 -0.5936 -0.7599  0.8471
   15MOL   H164 3832   1.783   7.089   2.495 -1.2542  1.8924  2.0633
   15MOL   H165 3833   2.056   7.232   2.516  0.5861 -1.7968  0.8116
   15MOL   H166 3834   2.009   7.466   2.414 -1.7325  2.0381 -0.5249
   15MOL   H167 3835   1.909   7.415   2.546  0.8474  2.1589 -0.1508
   15MOL   H168 3836   1.831   7.529   2.279  1.6276 -2.1203  0.0715
   15MOL   H169 3837   1.709   7.483   2.406 -0.4969  0.5481 -0.3149
   15MOL   H170 3838   1.835   7.614   2.429  1.8787 -0.1516 -1.0287
   15MOL   C171 3839   2.041   7.106   2.359  1.3530  0.4873  0.7443
   15MOL   C172 3840   2.124   7.187   2.262  0.2426 -0.1074 -0.0737
   15MOL   O173 3841   2.162   7.103   2.152  0.0975  0.7957  0.7546
   15MOL   C174 3842   2.086   7.098   2.035  0.1166 -0.4675  0.3637
   15MOL   C175 3843   2.145   6.994   1.946 -0.2533 -0.1310  0.6323
   15MOL   H176 3844   1.967   7.048   2.303  1.2206  1.5316 -0.1809
   15MOL   H177 3845   2.100   7.032   2.414  1.0598 -1.1895 -1.1562
   15MOL   H178 3846   2.062   7.266   2.218 -0.1777  1.0644  2.5041
   15MOL   H179 3847   2.091   7.193   1.981  1.6502 -1.5784 -1.5053
   15MOL   H180 3848   1.984   7.079   2.068 -0.2330  3.2968  1.7707
   15MOL   H181 3849   2.190   6.917   2.008 -1.4527 -0.6433  0.8626
   15MOL   H182 3850   2.071   6.949   1.879 -0.2031  1.3712 -0.4643
   15MOL   H183 3851   2.213   7.044   1.877 -1.2536 -0.6114 -0.7288
   15MOL   C184 3852   2.256   7.250   2.314 -0.4084  0.1849 -0.1592
   15MOL   C185 3853   2.353   7.310   2.216 -0.0480 -0.4743  0.8167
   15MOL   O186 3854   2.466   7.345   2.286 -0.2322  0.5876  0.6818
   15MOL   C187 3855   2.595   7.335   2.222  0.4229 -0.5107  0.5537
   15MOL   C188 3856   2.689   7.443   2.277  0.7661 -0.5281 -0.1237
   15MOL   H189 3857   2.306   7.173   2.372  0.3240 -0.5714 -1.7742
   15MOL   H190 3858   2.236   7.325   2.391 -0.3747  0.2408 -0.2049
   15MOL   H191 3859   2.370   7.234   2.140 -1.2577 -0.5801  0.6419
   15MOL   H192 3860   2.581   7.347   2.115 -0.6779 -1.0207  0.6313
   15MOL   H193 3861   2.620   7.230   2.238 -1.1756 -1.0411 -0.3822
   15MOL   H194 3862   2.708   7.427   2.383  0.7979  2.2890  0.3469
   15MOL   H195 3863   2.782   7.436   2.221 -0.5832  2.4112 -2.8803
   15MOL   H196 3864   2.655   7.546   2.268  2.2938 -0.0333 -0.4236
   15MOL   C197 3865   2.288   7.436   2.150  0.5546  0.3832  0.5138
   15MOL   C198 3866   2.321   7.471   2.010  0.2590  0.2426  0.2410
   15MOL   O199 3867   2.254   7.594   1.980  0.2276  0.5278 -0.3884
   15MOL   C200 3868   2.332   7.712   1.991  0.0735 -0.4470  0.3100
   15MOL   C201 3869   2.216   7.813   1.999  0.6420  0.0675 -0.5041
   15MOL   H202 3870   2.317   7.520   2.213  1.4140  0.0332  0.5850
   15MOL   H203 3871   2.179   7.429   2.152  0.5073  1.2484  2.3476
   15MOL   H204 3872   2.426   7.488   1.986  0.4694  0.4587  1.2884
   15MOL   H205 3873   2.394   7.716   1.902  2.5955 -1.2856  1.9583
   15MOL   H206 3874   2.393   7.730   2.080  1.2055 -0.3836 -0.4799
   15MOL   H207 3875   2.137   7.802   1.925 -1.7704 -1.2767  2.1841
   15MOL   H208 3876   2.160   7.821   2.092  2.3090  1.0631  0.4502
   15MOL   H209 3877   2.257   0.070   1.983 -0.3255  0.4389 -0.6520
   15MOL   C210 3878   2.260   7.364   1.914 -0.4776  0.1571  0.3103
   15MOL   C211 3879   2.293   7.397   1.763  0.0081 -0.2713 -0.5367
   15MOL   O212 3880   2.222   7.308   1.681  0.4355  0.0364 -0.3142
   15MOL   C213 3881   2.076   7.324   1.681 -0.5746 -0.4477  0.4451
   15MOL   C214 3882   2.028   7.263   1.554 -0.2857 -0.1264 -0.2727
   15MOL   H215 3883   2.152   7.367   1.926 -0.6250  0.4011 -1.0053
   15MOL   H216 3884   2.310   7.271   1.942 -0.2241  0.2794  0.2696
   15MOL   H217 3885   2.262   7.500   1.748 -1.7150 -0.3347  2.1989
   15MOL   H218 3886   2.050   7.429   1.689 -2.4699 -0.8651 -0.0065
   15MOL   H219 3887   2.032   7.265   1.762  0.9597 -0.1921  1.5063
   15MOL   H220 3888   2.077   7.312   1.471  0.3257 -0.0335  0.1425
   15MOL   H221 3889   2.042   7.155   1.542 -1.6141 -0.1102 -2.1674
   15MOL   H222 3890   1.921   7.276   1.538 -0.5633 -0.6854  0.9965
   15MOL   C223 3891   2.444   7.368   1.737  0.8522  0.7467 -0.0008
   15MOL   C224 3892   2.488   7.218   1.725 -0.3611 -0.0371  0.0973
   15MOL   O225 3893   2.540   7.180   1.858 -0.2489 -0.3282  0.1262
   15MOL   C226 3894   2.530   7.040   1.883 -0.1895 -0.1843  0.2321
   15MOL   C227 3895   2.588   7.013   2.024 -0.5340  0.4316 -0.7734
   15MOL   H228 3896   2.517   7.432   1.786  0.7776 -0.9407  2.4025
   15MOL   H229 3897   2.462   7.405   1.636  1.6827 -0.5256 -0.3320
   15MOL   H230 3898   2.395   7.168   1.697 -1.4103  2.9168 -2.0350
   15MOL   H231 3899   2.586   6.984   1.808  1.5195 -0.9620  2.0537
   15MOL   H232 3900   2.426   7.006   1.881  0.5631 -2.6615  1.3081
   15MOL   H233 3901   2.585   6.912   2.065 -1.3893  0.3845 -0.9453
   15MOL   H234 3902   2.686   7.061   2.025 -0.8291  1.0778 -1.7034
   15MOL   H235 3903   2.531   7.070   2.097 -0.2858 -1.1381  0.6821
   15MOL   C236 3904   2.580   7.204   1.611  0.5106  0.3731  0.3930
   15MOL   C237 3905   2.732   7.239   1.645  0.4597  0.8789  0.9723
   15MOL   O238 3906   2.733   7.372   1.687  0.3338 -0.0490  0.0509
   15MOL   C239 3907   2.825   7.402   1.787  0.2781  0.3338 -0.1815
   15MOL   C240 3908   2.798   7.544   1.837  0.4593  0.4390 -0.4516
   15MOL   H241 3909   2.550   7.257   1.520  1.8032 -1.0311 -0.8592
   15MOL   H242 3910   2.581   7.099   1.582  1.3731  0.9003 -1.5823
   15MOL   H243 3911   2.761   7.172   1.726  0.9926  2.3648  2.0472
   15MOL   H244 3912   2.923   7.394   1.741  0.7657  0.9707  0.7192
   15MOL   H245 3913   2.825   7.327   1.867  1.3929  2.1833  1.6138
   15MOL   H246 3914   2.693   7.550   1.864  0.5775 -1.9566  0.6245
   15MOL   H247 3915   2.870   7.565   1.916  1.5519 -0.6000 -1.1652
   15MOL   H248 3916   2.824   7.620   1.763 -2.0682  1.4554 -0.3467
   15MOL   C249 3917   2.821   7.250   1.513  0.4553 -0.1408  0.0162
   15MOL   C250 3918   2.868   7.111   1.470  0.1425 -0.3931 -0.2945
   15MOL   O251 3919   2.962   7.127   1.358 -0.0423 -0.3136  0.4155
   15MOL   C252 3920   3.023   7.004   1.335  0.2995 -0.5186 -0.0175
   15MOL   C253 3921   3.084   7.005   1.197 -0.0451  0.0325 -0.3883
   15MOL   H254 3922   2.908   7.312   1.534  0.0786  0.4382 -0.0994
   15MOL   H255 3923   2.765   7.299   1.433 -0.2570  0.5783  0.9313
   15MOL   H256 3924   2.915   7.059   1.554  0.1123  1.0712  0.6442
   15MOL   H257 3925   2.956   6.918   1.335  1.1595 -1.1937 -0.5104
   15MOL   H258 3926   3.098   6.993   1.412  1.8359  1.7692 -1.1349
   15MOL   H259 3927   3.007   7.024   1.122 -0.9436 -0.2205  0.4628
   15MOL   H260 3928   3.149   7.093   1.196 -0.5960  0.6190  4.2870
   15MOL   H261 3929   3.123   6.905   1.177  0.9340  0.3855 -0.3090
   15MOL   H262 3930   2.794   7.048   1.421  1.1813 -1.8258 -0.0693
   16MOL     C1 3931   0.452   1.971   0.100  0.6883 -0.4011  0.1486
   16MOL     C2 3932   0.498   1.828   0.056 -0.0691 -0.3865 -0.1597
   16MOL     O3 3933   0.633   1.840   0.003 -0.3870  0.3858 -0.0889
   16MOL     C4 3934   0.732   1.832   0.097  0.0372  0.2044 -0.1997
   16MOL     C5 3935   0.746   1.688   0.159 -0.0519 -0.0199  0.3862
   16MOL     H6 3936   0.345   1.964   0.119  0.2629 -1.6464 -2.4635
   16MOL     H7 3937   0.487   2.005   0.197  1.0317  3.0052 -1.1094
   16MOL     H8 3938   0.492   1.763   0.143 -0.2191 -0.7620 -0.4456
   16MOL     H9 3939   0.736   1.910   0.173 -0.2429 -0.7407  0.8062
   16MOL    H10 3940   0.821   1.861   0.041  0.6793  0.7667  1.0959
   16MOL    H11 3941   0.829   1.690   0.231  0.2439 -1.1431  0.0961
   16MOL    H12 3942   0.660   1.664   0.221 -0.1386 -0.8160 -0.0293
   16MOL    H13 3943   0.740   1.609   0.084  0.1417 -0.7580  1.1306
   16MOL    H14 3944   0.481   2.049   0.030 -0.3340 -0.5253 -0.4326
   16MOL    C15 3945   0.402   1.771   7.797  0.0772 -0.7129  0.1241
   16MOL    C16 3946   0.460   1.650   7.713 -0.8893 -0.8791 -0.4745
   16MOL    O17 3947   0.439   1.682   7.582  0.0889 -0.4885  0.3904
   16MOL    C18 3948   0.561   1.708   7.512 -1.2065 -0.1060 -0.3990
   16MOL    C19 3949   0.536   1.786   7.385  0.0415  0.1601 -0.4361
   16MOL    H20 3950   0.387   1.854   7.727  1.3968 -1.6162 -1.2611
   16MOL    H21 3951   0.308   1.745   0.001 -0.9340  0.6051 -1.0916
   16MOL    H22 3952   0.565   1.635   7.739 -0.6328  2.3488  0.5618
   16MOL    H23 3953   0.620   1.618   7.499 -0.5053  0.1186  1.0368
   16MOL    H24 3954   0.621   1.778   7.571 -0.2008 -1.7393  0.5314
   16MOL    H25 3955   0.455   1.858   7.393  1.1802  1.4330 -0.2986
   16MOL    H26 3956   0.497   1.711   7.316 -1.2407 -0.6176  1.0860
   16MOL    H27 3957   0.628   1.829   7.347 -0.7283  2.4441  0.2254
   16MOL    C28 3958   0.380   1.524   7.751  0.2058 -0.1858 -0.0030
   16MOL    C29 3959   0.417   1.400   7.664  0.2710 -0.5176 -0.9782
   16MOL    O30 3960   0.323   1.300   7.693  0.1958  0.0895  0.1687
   16MOL    C31 3961   0.283   1.223   7.581 -0.0162 -0.0147 -0.0379
   16MOL    C32 3962   0.164   1.143   7.634  0.7456 -0.1584 -0.6443
   16MOL    H33 3963   0.273   1.547   7.750  0.2533  0.0779  0.7589
   16MOL    H34 3964   0.399   1.503   0.013 -1.7802 -0.0015  0.4117
   16MOL    H35 3965   0.396   1.434   7.563 -1.4646  2.1604  0.2328
   16MOL    H36 3966   0.366   1.159   7.551 -0.0715 -0.4421  0.6917
   16MOL    H37 3967   0.245   1.290   7.504 -2.1222 -0.0553  0.9072
   16MOL    H38 3968   0.163   1.131   7.742 -1.3893 -1.6324 -0.8086
   16MOL    H39 3969   0.066   1.176   7.598  0.5798  0.0726  0.0235
   16MOL    H40 3970   0.170   1.037   7.613 -5.3161 -0.3072 -2.3906
   16MOL    C41 3971   0.562   1.350   7.673  0.3991 -0.0452  0.1160
   16MOL    C42 3972   0.584   1.267   7.800  0.1145  0.0218 -0.2552
   16MOL    O43 3973   0.564   1.363   0.067 -0.4214  0.1430  0.0924
   16MOL    C44 3974   0.530   1.302   0.186 -1.1819 -0.2205 -0.1897
   16MOL    C45 3975   0.540   1.390   0.314  0.2816 -0.1349  0.0832
   16MOL    H46 3976   0.641   1.424   7.662  1.3643 -1.1060 -0.2021
   16MOL    H47 3977   0.587   1.292   7.584  0.6337  0.2166  0.0105
   16MOL    H48 3978   0.513   1.185   7.804  1.2846 -1.1765 -2.6833
   16MOL    H49 3979   0.594   1.213   0.188 -2.0679 -0.9960 -3.0734
   16MOL    H50 3980   0.432   1.255   0.176 -0.7310 -1.3813  0.7040
   16MOL    H51 3981   0.530   1.324   0.400 -1.4169  0.1314  0.0997
   16MOL    H52 3982   0.635   1.441   0.330 -0.4054  0.6463  1.8140
   16MOL    H53 3983   0.463   1.467   0.318 -1.2624 -1.6073 -0.7327
   16MOL    C54 3984   0.729   1.212   7.802 -0.6680 -0.0532 -0.3138
   16MOL    C55 3985   0.745   1.061   7.821  0.2568 -0.3580 -0.2040
   16MOL    O56 3986   0.876   1.013   0.009  0.3264  0.3659 -0.6052
   16MOL    C57 3987   0.897   1.001   0.150 -0.6212 -0.3308 -0.1960
   16MOL    C58 3988   1.044   0.979   0.185 -0.2014 -0.6317 -0.5570
   16MOL    H59 3989   0.775   1.272   0.037  0.7735 -0.1072 -1.0927
   16MOL    H60 3990   0.787   1.241   7.714  2.1254 -0.3187  1.3772
   16MOL    H61 3991   0.671   1.037   0.054 -1.0323 -0.9087 -1.5984
   16MOL    H62 3992   0.832   0.927   0.197 -1.1270  0.9259  1.1029
   16MOL    H63 3993   0.869   1.094   0.198 -2.2748 -1.0352  0.2530
   16MOL    H64 3994   1.042   0.965   0.293 -0.9339 -0.7375 -0.5831
   16MOL    H65 3995   1.075   0.885   0.137  2.5194  0.3033 -0.7389
   16MOL    H66 3996   1.105   1.061   0.148  1.6148 -1.5096  0.3727
   16MOL    C67 3997   0.702   0.980   7.698 -0.3783 -0.4031  0.8522
   16MOL    C68 3998   0.682   0.822   7.724  0.5362 -0.3761 -0.2861
   16MOL    O69 3999   0.658   0.762   7.595 -0.5447 -0.4832  0.1811
   16MOL    C70 4000   0.770   0.687   7.534 -0.3365 -0.2255 -0.5174
   16MOL    C71 4001   0.725   0.619   7.398 -0.1574  0.5831 -0.1949
   16MOL    H72 4002   0.783   1.005   7.629  0.1235  0.5435  1.7640
   16MOL    H73 4003   0.611   1.016   7.650 -0.1483  0.3162  0.9553
   16MOL    H74 4004   0.772   0.778   7.766 -0.7292 -0.1199  2.7515
   16MOL    H75 4005   0.801   0.607   7.600  1.4733  0.0302 -1.0286
   16MOL    H76 4006   0.856   0.754   7.529  0.7810 -1.3257  2.5457
   16MOL    H77 4007   0.643   0.550   7.418  0.1962  0.6350  1.5844
   16MOL    H78 4008   0.694   0.690   7.321  0.3007  2.3919  1.2446
   16MOL    H79 4009   0.801   0.556   7.353 -0.0732 -1.2332  2.3587
   16MOL    C80 4010   0.559   0.787   7.809 -0.2211  0.3035  0.6091
   16MOL    C81 4011   0.568   0.645   0.019  0.7164 -0.0202 -0.3880
   16MOL    O82 4012   0.444   0.599   0.076 -0.4861 -0.3589  0.0048
   16MOL    C83 4013   0.353   0.540   7.828  0.8796  0.3076 -0.2491
   16MOL    C84 4014   0.230   0.476   0.057 -0.5524  0.0182  0.3512
   16MOL    H85 4015   0.463   0.795   7.759  0.4695  1.1530 -0.5879
   16MOL    H86 4016   0.569   0.848   0.056 -0.6648 -0.5032  1.2128
   16MOL    H87 4017   0.607   0.579   7.785 -0.2291 -2.0568  0.8204
   16MOL    H88 4018   0.410   0.465   7.772  4.7994  2.8900  0.1407
   16MOL    H89 4019   0.324   0.615   7.755 -0.6027  1.9804  2.0330
   16MOL    H90 4020   0.256   0.426   0.151 -1.7317  1.1418  1.2780
   16MOL    H91 4021   0.172   0.562   0.091  0.8609 -0.1897  3.5500
   16MOL    H92 4022   0.170   0.409   7.840 -0.3863  1.8473 -1.8797
   16MOL    C93 4023   0.667   0.631   0.140  0.4486 -0.3412  0.5566
   16MOL    C94 4024   0.688   0.486   0.199  0.1301 -1.5082  0.5536
   16MOL    O95 4025   0.746   0.401   0.101 -0.2464 -0.4587 -0.1491
   16MOL    C96 4026   0.887   0.408   0.091  0.1288  0.5559  0.8118
   16MOL    C97 4027   0.946   0.320   7.818  0.7026 -0.0533 -0.6095
   16MOL    H98 4028   0.644   0.701   0.220  0.9298  1.4780 -0.8718
   16MOL    H99 4029   0.765   0.671   0.114 -0.0761 -0.1058 -1.0676
   16MOL   H100 4030   0.764   0.496   0.276 -1.2119  3.5007  1.3913
   16MOL   H101 4031   0.933   0.363   0.180  2.2467  1.9455  0.4677
   16MOL   H102 4032   0.926   0.510   0.082 -0.2332  0.4846 -1.8787
   16MOL   H103 4033   1.053   0.312   7.837  0.2456 -1.8392  1.4210
   16MOL   H104 4034   0.891   0.226   7.820  0.1524  0.2718 -0.0731
   16MOL   H105 4035   0.919   0.351   7.717  1.2937 -1.2658 -1.1470
   16MOL   C106 4036   0.566   0.420   0.267  0.0403 -0.4101 -0.4979
   16MOL   C107 4037   0.602   0.282   0.326  0.3214  0.1172 -0.0578
   16MOL   O108 4038   0.487   0.209   0.346  0.7407  0.2839 -0.0944
   16MOL   C109 4039   0.424   0.147   0.232  0.1238  0.4077  0.3301
   16MOL   C110 4040   0.277   0.139   0.268 -1.0873  0.1590 -0.2074
   16MOL   H111 4041   0.490   0.407   0.190 -0.5898 -1.4158  0.2766
   16MOL   H112 4042   0.522   0.488   0.340 -1.1933 -0.9019 -0.7624
   16MOL   H113 4043   0.661   0.222   0.256  1.4476 -1.3614  2.0902
   16MOL   H114 4044   0.480   0.054   0.228  0.5746  0.5847  1.9629
   16MOL   H115 4045   0.450   0.196   0.138  1.6641 -1.4921 -0.2744
   16MOL   H116 4046   0.220   0.085   0.192 -0.6553 -1.1453  0.3767
   16MOL   H117 4047   0.256   0.083   0.360 -2.0561  0.3782 -0.2847
   16MOL   H118 4048   0.215   0.227   0.280 -1.0282  0.2341 -0.4491
   16MOL   C119 4049   0.665   0.312   0.467 -0.2360  0.1365 -0.1478
   16MOL   C120 4050   0.694   0.187   0.553  0.4220  0.3044 -1.1801
   16MOL   O121 4051   0.743   0.230   0.684 -0.0600  0.1703 -0.2531
   16MOL   C122 4052   0.649   0.200   0.785  0.0610  0.1673  0.0349
   16MOL   C123 4053   0.713   0.231   0.923 -0.1216 -0.3157 -0.7311
   16MOL   H124 4054   0.608   0.376   0.535  0.4604  0.0646  0.5085
   16MOL   H125 4055   0.758   0.363   0.444  0.9305 -2.8485 -2.4179
   16MOL   H126 4056   0.603   0.127   0.564  0.8477  0.0577  1.2802
   16MOL   H127 4057   0.631   0.093   0.784  1.2978 -0.0766 -2.3721
   16MOL   H128 4058   0.563   0.262   0.761 -0.4898 -0.9372 -0.9228
   16MOL   H129 4059   0.747   0.334   0.923  0.3202 -0.3440  4.0721
   16MOL   H130 4060   0.673   0.186   1.014 -0.0641  0.9413 -0.0688
   16MOL   H131 4061   0.809   0.180   0.930  0.2209  0.2107 -1.5445
   16MOL   C132 4062   0.799   0.093   0.491 -0.1317  0.1837  0.0170
   16MOL   C133 4063   0.737   7.814   0.423 -0.2891 -0.1533 -0.3738
   16MOL   O134 4064   0.676   7.717   0.511  0.1777 -0.1735  0.2192
   16MOL   C135 4065   0.531   7.701   0.492 -0.0338 -0.0025 -0.4670
   16MOL   C136 4066   0.483   7.608   0.617  0.5614 -0.3362  0.1384
   16MOL   H137 4067   0.876   0.065   0.563  1.8624  2.5201 -1.1380
   16MOL   H138 4068   0.865   0.148   0.425  1.0453 -1.2557 -0.0208
   16MOL   H139 4069   0.657   0.003   0.357  1.4770  2.0653 -1.4614
   16MOL   H140 4070   0.512   7.652   0.397  3.0000 -0.3827 -0.9296
   16MOL   H141 4071   0.480   7.797   0.496 -0.3283 -0.1240 -1.2930
   16MOL   H142 4072   0.549   7.521   0.609  2.5720  1.2438 -1.0184
   16MOL   H143 4073   0.481   7.653   0.716 -2.9184  2.1647 -0.9653
   16MOL   H144 4074   0.380   7.576   0.597 -0.3617  2.3480  0.4140
   16MOL   C145 4075   0.843   7.743   0.327 -0.6245  0.1446 -0.1659
   16MOL   C146 4076   0.900   7.838   0.218 -0.3238 -0.8417  0.3130
   16MOL   O147 4077   0.857   7.784   0.092 -0.0383  0.0920  0.2614
   16MOL   C148 4078   0.721   7.817   0.061 -0.4537  0.3155  0.1859
   16MOL   C149 4079   0.705   7.763   7.760 -0.1662  0.4154  0.7491
   16MOL   H150 4080   0.787   7.666   0.274  0.9301 -1.3594  0.3307
   16MOL   H151 4081   0.914   7.687   0.388 -0.0361  0.9917 -0.0687
   16MOL   H152 4082   0.866   0.098   0.226  1.6847 -0.2902  1.9463
   16MOL   H153 4083   0.722   0.083   0.067  0.7685  0.2195  2.0550
   16MOL   H154 4084   0.649   7.772   0.129  2.2520 -2.8676  1.0693
   16MOL   H155 4085   0.598   7.755   7.743  0.1850  1.8808 -2.4406
   16MOL   H156 4086   0.746   0.001   7.702  0.2702  0.2692  0.8477
   16MOL   H157 4087   0.757   7.670   7.734 -1.4073 -0.6221  1.8727
   16MOL   C158 4088   1.056   7.838   0.223 -0.5265  0.1086 -0.3379
   16MOL   C159 4089   1.133   0.058   0.344  0.3201  0.4932 -0.4756
   16MOL   O160 4090   1.105   0.193   0.353  0.5746 -0.6863  0.4206
   16MOL   C161 4091   1.168   0.261   0.470  0.2501 -0.2481 -0.2516
   16MOL   C162 4092   1.114   0.406   0.479 -0.2626  0.0284 -0.4859
   16MOL   H163 4093   1.077   0.049   0.131 -1.6096 -0.4286 -0.9116
   16MOL   H164 4094   1.084   7.734   0.207 -2.2897 -0.4763  0.2792
   16MOL   H165 4095   1.099   0.007   0.434  2.1264  0.3207  0.1246
   16MOL   H166 4096   1.276   0.266   0.461  0.2631  1.0721  0.5194
   16MOL   H167 4097   1.151   0.215   0.567  1.8999  0.0178  0.1801
   16MOL   H168 4098   1.106   0.450   0.379 -1.9637 -1.0140 -0.8327
   16MOL   H169 4099   1.018   0.420   0.529 -1.1061  0.3641 -2.1481
   16MOL   H170 4100   1.173   0.481   0.531 -0.6154  0.1649 -0.2873
   16MOL   C171 4101   1.278   0.029   0.337 -0.3076  0.2488  0.7637
   16MOL   C172 4102   1.355   0.047   0.204  0.3623  0.0869  0.1456
   16MOL   O173 4103   1.476   7.814   0.210  0.8584 -0.4668 -0.0240
   16MOL   C174 4104   1.475   7.694   0.136  0.3272 -0.3096  0.2777
   16MOL   C175 4105   1.606   7.627   0.130  0.3836  0.5000 -0.3129
   16MOL   H176 4106   1.290   7.765   0.352  1.3222  0.0983 -1.3109
   16MOL   H177 4107   1.340   0.072   0.415  2.2319 -0.1951 -0.9276
   16MOL   H178 4108   1.294   0.016   0.119  0.5367  1.8455 -0.6325
   16MOL   H179 4109   1.433   7.706   0.036 -0.5338 -1.3938  0.4940
   16MOL   H180 4110   1.405   7.628   0.188 -0.1068 -1.3832 -1.6247
   16MOL   H181 4111   1.591   7.528   0.089  0.0379  0.9400 -1.2519
   16MOL   H182 4112   1.680   7.673   0.064  0.3734  1.6369  0.4486
   16MOL   H183 4113   1.650   7.607   0.228  2.3943  2.3426 -0.7934
   16MOL   C184 4114   1.403   0.190   0.184  0.5321 -0.4134  0.0149
   16MOL   C185 4115   1.468   0.219   0.048 -0.4454 -0.3091 -0.6390
   16MOL   O186 4116   1.508   0.356   0.058  0.3670 -0.0271  0.1833
   16MOL   C187 4117   1.634   0.383   0.124 -0.5474 -0.0335  0.9820
   16MOL   C188 4118   1.715   0.466   0.021 -0.7664 -0.1991  0.3163
   16MOL   H189 4119   1.480   0.218   0.256  3.0169 -0.4646 -2.5164
   16MOL   H190 4120   1.311   0.247   0.198  0.2638 -0.6916 -0.5818
   16MOL   H191 4121   1.546   0.143   0.044 -0.3616 -0.3302  0.8447
   16MOL   H192 4122   1.691   0.294   0.150  0.0614  0.1995  0.4654
   16MOL   H193 4123   1.618   0.440   0.215 -0.7202 -1.0978  1.6261
   16MOL   H194 4124   1.644   0.543   7.835 -0.8741 -1.1675 -2.1391
   16MOL   H195 4125   1.801   0.516   0.064 -1.6026  1.4553  0.0874
   16MOL   H196 4126   1.749   0.401   7.783  0.8730  0.4251  0.4903
   16MOL   C197 4127   1.369   0.203   7.774 -0.1617 -0.7283 -1.2221
   16MOL   C198 4128   1.442   0.195   7.642 -0.7361  0.0802 -0.4470
   16MOL   O199 4129   1.348   0.202   7.542 -0.1765  0.4278  0.2190
   16MOL   C200 4130   1.307   0.336   7.506  0.0342 -0.2374  0.4002
   16MOL   C201 4131   1.204   0.334   7.395  0.0148  0.6629 -0.9231
   16MOL   H202 4132   1.288   0.275   7.782  0.4054 -0.2265  0.1229
   16MOL   H203 4133   1.311   0.112   7.788 -2.6730  0.5404 -3.0820
   16MOL   H204 4134   1.494   0.291   7.636 -0.0297 -0.3010 -0.5099
   16MOL   H205 4135   1.388   0.400   7.469  0.2389 -0.8700 -0.2446
   16MOL   H206 4136   1.258   0.382   7.592 -0.7814 -1.9236  0.8558
   16MOL   H207 4137   1.178   0.436   7.368 -0.1084  1.3357  1.5971
   16MOL   H208 4138   1.252   0.295   7.305  0.2450  2.8311 -1.7817
   16MOL   H209 4139   1.113   0.279   7.418  2.5288 -3.4300 -0.2046
   16MOL   C210 4140   1.537   0.067   7.624  0.5227 -0.3566 -0.0371
   16MOL   C211 4141   1.625   0.056   7.503 -0.3620  0.1608  0.1505
   16MOL   O212 4142   1.742   7.826   7.538  0.6305  0.4042 -0.3665
   16MOL   C213 4143   1.729   7.689   7.535  0.1865 -0.1254  0.4169
   16MOL   C214 4144   1.851   7.627   7.597 -0.2723  0.1320  0.4885
   16MOL   H215 4145   1.477   7.821   7.641  1.5730 -0.8481  1.1426
   16MOL   H216 4146   1.607   0.069   7.707 -0.7277 -2.1565  1.1122
   16MOL   H217 4147   1.569   0.016   7.419  1.8816  3.0012 -2.8004
   16MOL   H218 4148   1.714   7.657   7.432 -1.7678  1.7752  0.0755
   16MOL   H219 4149   1.637   7.648   7.577 -1.5278  0.5122 -2.5617
   16MOL   H220 4150   1.847   7.518   7.594  3.7919 -0.0755 -0.9602
   16MOL   H221 4151   1.944   7.670   7.559 -1.0061  1.1729 -0.1360
   16MOL   H222 4152   1.855   7.658   7.701 -0.0999  1.2601  0.1517
   16MOL   C223 4153   1.678   0.201   7.465  0.5050 -1.0184  0.2720
   16MOL   C224 4154   1.808   0.202   7.381  0.1372  0.1227 -1.0000
   16MOL   O225 4155   1.843   0.341   7.363 -0.2199  0.5090  0.3790
   16MOL   C226 4156   1.969   0.380   7.427  0.7248  0.3356 -0.2602
   16MOL   C227 4157   1.978   0.532   7.427 -0.5403 -0.1447  0.4199
   16MOL   H228 4158   1.698   0.254   7.558 -0.6288 -2.2658  1.2420
   16MOL   H229 4159   1.602   0.258   7.413  2.1905  0.4471 -0.6360
   16MOL   H230 4160   1.892   0.150   7.426 -0.8003 -1.9661 -1.6440
   16MOL   H231 4161   2.054   0.340   7.373  0.5712 -1.4259  0.7882
   16MOL   H232 4162   1.968   0.359   7.534 -2.1029 -0.3426 -0.3745
   16MOL   H233 4163   1.970   0.575   7.326 -1.8757 -1.9098 -0.2512
   16MOL   H234 4164   1.890   0.557   7.487  0.0009 -0.9168  1.5445
   16MOL   H235 4165   2.078   0.559   7.460 -2.0838  1.6037  3.9758
   16MOL   C236 4166   1.796   0.150   7.238  0.3609  0.1752 -0.0222
   16MOL   C237 4167   1.923   0.148   7.158 -0.8406  0.0213 -1.2183
   16MOL   O238 4168   1.893   0.095   7.032  0.5509  0.2291 -0.7876
   16MOL   C239 4169   1.886   0.193   6.929  0.3095  0.2362 -1.0419
   16MOL   C240 4170   1.826   0.135   6.802 -0.0512 -0.2873 -0.6574
   16MOL   H241 4171   1.726   0.210   7.179 -0.3721 -1.6385 -1.0252
   16MOL   H242 4172   1.752   0.050   7.245 -0.3083  0.4693  0.0670
   16MOL   H243 4173   1.955   0.253   7.159 -3.1061  0.7231 -0.8496
   16MOL   H244 4174   1.986   0.234   6.913  1.3603 -0.6721  2.6717
   16MOL   H245 4175   1.825   0.277   6.961 -0.0092 -0.8069  1.2122
   16MOL   H246 4176   1.727   0.093   6.818 -0.7677  1.1296 -1.2539
   16MOL   H247 4177   1.821   0.221   6.734  0.4779  0.9036  0.7941
   16MOL   H248 4178   1.903   0.064   6.772  0.4606 -0.9795  2.1686
   16MOL   C249 4179   2.036   0.062   7.216 -0.3486  0.0188  0.5618
   16MOL   C250 4180   2.009   7.755   7.245 -0.0859 -0.1577  0.3958
   16MOL   O251 4181   2.132   7.682   7.263 -0.3571 -0.2710 -0.2853
   16MOL   C252 4182   2.117   7.550   7.322 -0.7250  0.4295 -0.4142
   16MOL   C253 4183   2.253   7.480   7.310  0.5821 -0.8937  0.2176
   16MOL   H254 4184   2.079   0.103   7.307  0.2574 -1.1636  0.8205
   16MOL   H255 4185   2.120   0.075   7.147 -1.2605 -2.0649 -1.0065
   16MOL   H256 4186   1.953   7.752   7.338  0.6254  1.0538  0.8657
   16MOL   H257 4187   2.041   7.491   7.270 -0.6370 -1.0829  1.1450
   16MOL   H258 4188   2.085   7.549   7.426 -0.3536  0.1176 -0.3025
   16MOL   H259 4189   2.324   7.544   7.364  1.5355 -1.1759 -0.6806
   16MOL   H260 4190   2.250   7.378   7.349  2.2715 -0.2717  2.0704
   16MOL   H261 4191   2.266   7.467   7.203  1.2492 -2.7547  0.5007
   16MOL   H262 4192   1.956   7.702   7.165  0.7163 -0.5788  0.1394
   17MOL     C1 4193   6.489   6.426   1.208  0.8264 -0.4144  0.3565
   17MOL     C2 4194   6.619   6.434   1.286 -0.3418 -0.0777  0.1291
   17MOL     O3 4195   6.624   6.540   1.374  0.2575  0.0341  0.0236
   17MOL     C4 4196   6.704   6.503   1.490  0.1199  0.4883  0.2956
   17MOL     C5 4197   6.756   6.623   1.561 -0.0347 -0.1987  0.7824
   17MOL     H6 4198   6.407   6.422   1.279  0.2665 -0.3482 -0.2806
   17MOL     H7 4199   6.478   6.519   1.152  1.7538  0.4995  1.6567
   17MOL     H8 4200   6.620   6.346   1.350  0.9235  0.4756  0.8823
   17MOL     H9 4201   6.785   6.437   1.464 -0.0335  0.8244 -1.0466
   17MOL    H10 4202   6.644   6.461   1.571 -3.9361  0.4106 -2.5723
   17MOL    H11 4203   6.824   6.689   1.506  0.3480 -1.8858 -0.8250
   17MOL    H12 4204   6.675   6.688   1.595  0.3122  0.1051  1.0363
   17MOL    H13 4205   6.820   6.577   1.636  1.6031 -0.4578 -0.7455
   17MOL    H14 4206   6.476   6.337   1.146  0.7607 -1.4846  1.8904
   17MOL    C15 4207   6.730   6.447   1.179  0.4704  0.1950  0.2672
   17MOL    C16 4208   6.768   6.312   1.118 -0.7503 -0.3399  0.5666
   17MOL    O17 4209   6.840   6.235   1.214  0.4222 -0.0117  0.0582
   17MOL    C18 4210   6.822   6.097   1.200  0.9143  0.4011  0.1436
   17MOL    C19 4211   6.931   6.031   1.273 -0.3487 -0.1609 -0.0899
   17MOL    H20 4212   6.811   6.498   1.231 -0.2777  2.2660 -0.5225
   17MOL    H21 4213   6.702   6.514   1.098  1.6954  0.1017 -0.2461
   17MOL    H22 4214   6.674   6.264   1.091 -1.8528  2.0389  0.0690
   17MOL    H23 4215   6.817   6.065   1.096 -1.0075  2.1413 -0.3366
   17MOL    H24 4216   6.726   6.088   1.250 -2.0883  2.9255 -4.7966
   17MOL    H25 4217   6.936   6.050   1.380 -1.3413 -2.1569  0.3383
   17MOL    H26 4218   7.027   6.077   1.253 -0.9265  0.1179 -2.3346
   17MOL    H27 4219   6.935   5.922   1.273  1.6255 -0.1107  0.1014
   17MOL    C28 4220   6.850   6.314   0.991 -0.5296 -0.6948 -0.2454
   17MOL    C29 4221   6.807   6.383   0.863  0.8227 -0.2483  0.4655
   17MOL    O30 4222   6.683   6.333   0.834  0.3944  0.2278  0.5985
   17MOL    C31 4223   6.559   6.408   0.830  0.2923  0.4181 -0.2747
   17MOL    C32 4224   6.453   6.336   0.743  0.4564  0.8169 -0.6601
   17MOL    H33 4225   6.868   6.207   0.975 -3.1446 -1.0215 -1.2888
   17MOL    H34 4226   6.956   6.337   1.005 -0.8092 -0.3666  1.4061
   17MOL    H35 4227   6.791   6.490   0.867  0.9532 -0.1618 -1.0816
   17MOL    H36 4228   6.590   6.504   0.788  0.2293  0.1549 -0.9270
   17MOL    H37 4229   6.536   6.434   0.934  0.4051 -1.7701  0.3131
   17MOL    H38 4230   6.419   6.243   0.787 -1.9399  2.3127  0.7923
   17MOL    H39 4231   6.358   6.388   0.733  0.6204  1.5229  1.3681
   17MOL    H40 4232   6.496   6.313   0.645 -2.1388 -1.7005 -1.2462
   17MOL    C41 4233   6.914   6.361   0.740 -1.0059  0.2567 -0.1853
   17MOL    C42 4234   6.882   6.434   0.611  0.1846  0.4614  0.6577
   17MOL    O43 4235   6.905   6.353   0.499  0.2067  0.4570 -0.1332
   17MOL    C44 4236   6.787   6.279   0.460 -0.0340  0.8171 -0.1791
   17MOL    C45 4237   6.830   6.197   0.334  0.5191 -0.4513 -0.3551
   17MOL    H46 4238   6.913   6.254   0.718 -1.0098 -0.1592  1.7469
   17MOL    H47 4239   7.015   6.388   0.771 -0.9094  0.3135 -0.5512
   17MOL    H48 4240   6.784   6.482   0.613 -0.2724 -0.1670 -3.0968
   17MOL    H49 4241   6.712   6.350   0.424 -0.4288 -0.2424 -1.5115
   17MOL    H50 4242   6.741   6.220   0.539  0.1786  0.0716 -0.6018
   17MOL    H51 4243   6.744   6.170   0.272  0.5116  0.8866 -0.9546
   17MOL    H52 4244   6.894   6.255   0.266 -0.5815 -0.8022 -1.7280
   17MOL    H53 4245   6.888   6.108   0.356  0.1589 -0.1268  1.9788
   17MOL    C54 4246   6.966   6.553   0.587  0.3537  0.2534 -0.3118
   17MOL    C55 4247   6.933   6.676   0.675  0.0652  0.2442  0.3121
   17MOL    O56 4248   6.799   6.711   0.639  0.2875 -0.4511  0.2482
   17MOL    C57 4249   6.732   6.820   0.701  0.0904  0.1961  0.0754
   17MOL    C58 4250   6.583   6.803   0.658 -0.0248  0.4244  0.4944
   17MOL    H59 4251   6.941   6.586   0.486  1.5770 -1.4639 -1.1984
   17MOL    H60 4252   7.073   6.534   0.579  0.4716  0.4893  0.6671
   17MOL    H61 4253   6.926   6.648   0.780  3.0695 -2.0381 -0.0079
   17MOL    H62 4254   6.778   6.916   0.677  2.6521 -1.2225 -0.8438
   17MOL    H63 4255   6.732   6.811   0.809 -3.1409  2.1012  0.2966
   17MOL    H64 4256   6.541   6.706   0.687  0.1184 -0.1895 -1.2568
   17MOL    H65 4257   6.513   6.880   0.687  1.3128  1.4376  1.0751
   17MOL    H66 4258   6.589   6.807   0.549 -1.5346 -1.6023  0.2985
   17MOL    C67 4259   7.024   6.803   0.674  0.6008  0.0818  0.3488
   17MOL    C68 4260   7.165   6.768   0.733  0.6705 -0.2490  0.1374
   17MOL    O69 4261   7.134   6.705   0.856 -0.2201 -0.1538  0.4249
   17MOL    C70 4262   7.252   6.641   0.916  0.3146 -0.1579 -0.0917
   17MOL    C71 4263   7.203   6.589   1.055  0.1914 -0.7759  0.3026
   17MOL    H72 4264   6.976   6.879   0.736 -0.1181  0.6093 -0.8387
   17MOL    H73 4265   7.031   6.840   0.572 -1.2615 -1.5850 -0.4205
   17MOL    H74 4266   7.216   6.698   0.666 -1.9846 -2.2831  0.1776
   17MOL    H75 4267   7.339   6.701   0.942  0.6381 -1.0762  0.9833
   17MOL    H76 4268   7.272   6.556   0.850 -1.7618 -0.1425 -0.7994
   17MOL    H77 4269   7.142   6.500   1.040 -0.7775 -0.0869  0.1493
   17MOL    H78 4270   7.290   6.558   1.113  0.6886  0.3224  0.1565
   17MOL    H79 4271   7.135   6.664   1.096 -1.0460 -1.7277  0.0021
   17MOL    C80 4272   7.244   6.901   0.747  0.3266 -0.0740 -0.6364
   17MOL    C81 4273   7.342   6.904   0.631 -0.1673  0.5496 -0.5216
   17MOL    O82 4274   7.446   6.806   0.674  0.4739  0.2843 -0.6358
   17MOL    C83 4275   7.530   6.752   0.564 -0.3023  0.5107 -0.1752
   17MOL    C84 4276   7.617   6.638   0.622  0.1309 -0.5028  0.5184
   17MOL    H85 4277   7.295   6.913   0.842  0.2647  0.3359 -0.6542
   17MOL    H86 4278   7.180   6.989   0.755  0.4373  0.1635 -2.1000
   17MOL    H87 4279   7.306   6.874   0.532  0.7964  0.6417 -0.9112
   17MOL    H88 4280   7.596   6.826   0.518  0.2705  1.3139  1.8758
   17MOL    H89 4281   7.472   6.709   0.483 -2.0334  1.5757  0.4796
   17MOL    H90 4282   7.556   6.555   0.658 -1.8148  0.7159  0.0796
   17MOL    H91 4283   7.690   6.598   0.551  0.1265  0.4799 -0.0483
   17MOL    H92 4284   7.671   6.680   0.707  1.9244 -1.8294  0.0763
   17MOL    C93 4285   7.414   7.037   0.604  0.0542  0.1113  0.1381
   17MOL    C94 4286   7.322   7.155   0.571  0.2603  0.3440 -0.1465
   17MOL    O95 4287   7.246   7.112   0.455 -0.3636  0.0414 -0.1041
   17MOL    C96 4288   7.115   7.173   0.452  0.1972 -0.2630  0.0963
   17MOL    C97 4289   7.100   7.208   0.306  0.3808 -0.2729 -0.7644
   17MOL    H98 4290   7.483   7.013   0.522 -0.2230  1.0514 -0.3786
   17MOL    H99 4291   7.469   7.067   0.692  1.3711  3.7436 -1.8244
   17MOL   H100 4292   7.253   7.170   0.654  0.6181  0.7251  0.0850
   17MOL   H101 4293   7.117   7.261   0.515 -0.8400  1.2447 -1.9476
   17MOL   H102 4294   7.036   7.100   0.467 -0.7176  1.0868  2.0509
   17MOL   H103 4295   7.004   7.260   0.300 -1.0336 -2.2422  3.3484
   17MOL   H104 4296   7.180   7.277   0.280  0.7956  0.3650  2.0965
   17MOL   H105 4297   7.112   7.127   0.235 -0.5367 -0.8751 -0.2505
   17MOL   C106 4298   7.390   7.289   0.533 -1.1772 -0.3119 -0.5362
   17MOL   C107 4299   7.467   7.371   0.641 -0.8761  0.0465  0.0257
   17MOL   O108 4300   7.375   7.461   0.708  0.0985  1.0370  0.2064
   17MOL   C109 4301   7.266   7.403   0.779  0.5741  0.2125 -0.1202
   17MOL   C110 4302   7.212   7.526   0.857  0.0620 -0.2363  1.1091
   17MOL   H111 4303   7.323   7.359   0.483 -1.4182  0.3240  0.6506
   17MOL   H112 4304   7.455   7.263   0.450  0.8005  2.0599  0.2211
   17MOL   H113 4305   7.518   7.307   0.713  0.4333  0.0828 -0.8497
   17MOL   H114 4306   7.299   7.321   0.844  2.1314 -2.1098 -3.6874
   17MOL   H115 4307   7.191   7.362   0.712  0.6890 -1.7069  0.8866
   17MOL   H116 4308   7.286   7.568   0.926 -0.3485  0.0937  1.3483
   17MOL   H117 4309   7.184   7.607   0.789  0.5237  0.5783  1.8690
   17MOL   H118 4310   7.122   7.503   0.913 -0.6196  2.3573  1.1389
   17MOL   C119 4311   7.565   7.466   0.568 -0.0773 -0.2993  0.2891
   17MOL   C120 4312   7.662   7.542   0.658 -0.1393  0.1936  0.0252
   17MOL   O121 4313   7.644   7.682   0.634 -0.2206 -0.0651  0.2930
   17MOL   C122 4314   7.528   7.739   0.675  0.2521  0.0109 -0.1130
   17MOL   C123 4315   7.529   0.052   0.668  0.2460  0.0034 -0.2740
   17MOL   H124 4316   7.511   7.529   0.497 -1.6724 -2.0157 -0.0577
   17MOL   H125 4317   7.622   7.408   0.495 -0.1168 -0.4070  0.3432
   17MOL   H126 4318   7.638   7.529   0.763 -1.4004  2.2378  0.0353
   17MOL   H127 4319   7.513   7.711   0.779 -0.0574  0.5259 -0.0170
   17MOL   H128 4320   7.442   7.710   0.614 -0.6946  0.6257  0.9104
   17MOL   H129 4321   7.518   0.089   0.566 -2.6816  0.2373  0.0796
   17MOL   H130 4322   7.452   0.097   0.731  0.5249  1.0089 -0.6385
   17MOL   H131 4323   7.622   0.088   0.712  0.1670  1.1974 -1.0645
   17MOL   C132 4324   7.814   7.520   0.643 -0.2513  0.1526  0.1476
   17MOL   C133 4325   0.055   7.596   0.751 -0.1686  1.0046 -0.2638
   17MOL   O134 4326   0.155   7.648   0.673 -0.5400  0.5556  0.0470
   17MOL   C135 4327   0.133   7.783   0.647  0.4002  0.6089  0.3287
   17MOL   C136 4328   0.138   0.038   0.769  0.1880 -0.4095  0.0807
   17MOL   H137 4329   7.837   7.540   0.538 -3.7600 -1.7825 -1.0871
   17MOL   H138 4330   7.833   7.415   0.665  0.4634 -0.0380 -1.3177
   17MOL   H139 4331   7.836   7.666   0.805  1.3381  1.2624  1.2036
   17MOL   H140 4332   0.029   7.793   0.616  0.2048 -1.6236  0.2168
   17MOL   H141 4333   0.200   7.808   0.565 -0.3816 -0.2926 -0.5971
   17MOL   H142 4334   0.134   0.133   0.716  0.6810  0.6472  1.8671
   17MOL   H143 4335   0.064   0.023   0.848  1.1865  1.5871  1.4400
   17MOL   H144 4336   0.230   0.018   0.825  0.3720  0.1559 -0.0160
   17MOL   C145 4337   0.131   7.497   0.850 -0.1152 -0.2026 -0.3066
   17MOL   C146 4338   0.031   7.411   0.939  0.5538  0.1258 -0.4450
   17MOL   O147 4339   7.822   7.510   1.027  0.4132  0.3855  0.1423
   17MOL   C148 4340   7.691   7.478   1.084  0.2735 -0.3744  0.3504
   17MOL   C149 4341   7.652   7.598   1.175 -0.7677  0.7893  0.6812
   17MOL   H150 4342   0.202   7.554   0.910  1.0580  0.4105 -2.2257
   17MOL   H151 4343   0.199   7.429   0.799  1.7843 -0.6571  2.7215
   17MOL   H152 4344   7.792   7.370   0.880  0.2274  1.4116 -0.9011
   17MOL   H153 4345   7.708   7.387   1.141  0.5005  0.2313  1.2564
   17MOL   H154 4346   7.620   7.459   1.003  0.7345 -0.5991 -0.0069
   17MOL   H155 4347   7.729   7.613   1.251  0.2655 -0.8696 -0.0062
   17MOL   H156 4348   7.638   7.678   1.102  2.2584  0.2304 -0.5942
   17MOL   H157 4349   7.565   7.598   1.241 -1.1193 -0.0938  0.2189
   17MOL   C158 4350   0.096   7.289   1.010  0.4611 -0.1100 -0.4016
   17MOL   C159 4351   0.150   7.166   0.928 -0.5117  0.3287 -0.3187
   17MOL   O160 4352   0.039   7.112   0.853 -0.0424 -0.4314  0.1688
   17MOL   C161 4353   0.075   7.073   0.721 -0.6415  0.0532  0.5707
   17MOL   C162 4354   7.799   7.009   0.659 -0.3171  0.1065  0.1896
   17MOL   H163 4355   0.016   7.245   1.070  0.0440  3.3229  1.7003
   17MOL   H164 4356   0.181   7.322   1.069  0.2815 -2.9994  1.5723
   17MOL   H165 4357   0.219   7.202   0.851 -0.2607  1.8445  0.6046
   17MOL   H166 4358   0.163   7.008   0.718  0.2616  1.2642 -4.3092
   17MOL   H167 4359   0.095   7.160   0.658  0.4105 -1.2275 -0.9212
   17MOL   H168 4360   7.701   7.056   0.672 -0.9969 -1.3610  0.4887
   17MOL   H169 4361   7.815   7.009   0.551  2.1057  3.2462  0.4978
   17MOL   H170 4362   7.791   6.909   0.701 -0.3332  1.4740  3.5940
   17MOL   C171 4363   0.210   7.052   1.015  0.2652  0.1176  0.3858
   17MOL   C172 4364   0.360   7.080   1.056  0.0367 -0.4210  1.1262
   17MOL   O173 4365   0.432   7.098   0.926 -0.2997  0.1426 -0.5476
   17MOL   C174 4366   0.549   7.179   0.937  0.0278  0.0501 -0.4011
   17MOL   C175 4367   0.514   7.329   0.931  0.1226 -0.0411  0.3483
   17MOL   H176 4368   0.211   6.966   0.947 -1.6218  2.0656 -2.2505
   17MOL   H177 4369   0.156   7.029   1.107 -1.7762  1.7788 -0.3509
   17MOL   H178 4370   0.347   7.171   1.114  1.3211 -0.3002  1.2316
   17MOL   H179 4371   0.605   7.169   0.844  1.0936 -0.0030  0.2367
   17MOL   H180 4372   0.603   7.157   1.029 -0.1647  0.5536 -0.1605
   17MOL   H181 4373   0.442   7.351   1.010  0.4069  1.0423  0.3092
   17MOL   H182 4374   0.606   7.386   0.941  0.1766 -0.4573  2.3118
   17MOL   H183 4375   0.466   7.360   0.838  0.1953  0.3933  0.4562
   17MOL   C184 4376   0.429   6.968   1.132  0.0975  0.6766 -0.0153
   17MOL   C185 4377   0.377   6.935   1.271  0.0944  0.1279  0.4960
   17MOL   O186 4378   0.488   6.942   1.365  1.1193  0.3569 -0.0723
   17MOL   C187 4379   0.455   6.951   1.502 -0.0419  0.2048  0.7836
   17MOL   C188 4380   0.571   6.938   1.604 -0.5309  0.6742  0.5082
   17MOL   H189 4381   0.526   7.013   1.154 -0.2444  2.3138 -1.6893
   17MOL   H190 4382   0.444   6.880   1.069 -0.3877  0.8628 -0.3967
   17MOL   H191 4383   0.306   7.009   1.309 -1.0598 -0.5928 -0.2196
   17MOL   H192 4384   0.386   6.871   1.529 -1.0747  0.2321 -1.6782
   17MOL   H193 4385   0.419   7.053   1.511  3.7240  1.9065 -1.7852
   17MOL   H194 4386   0.614   6.838   1.603 -0.0174  0.8932  0.5822
   17MOL   H195 4387   0.654   7.007   1.590  1.4396 -2.1255 -2.0891
   17MOL   H196 4388   0.545   6.948   1.709 -0.9139  1.2673  0.3579
   17MOL   C197 4389   0.294   6.798   1.279 -0.4775 -0.1934 -0.0161
   17MOL   C198 4390   0.157   6.793   1.350  0.0650  0.1498 -0.3843
   17MOL   O199 4391   0.127   6.658   1.345 -0.2992  0.0584  0.5466
   17MOL   C200 4392   0.193   6.582   1.453  0.0437 -0.0134  0.8826
   17MOL   C201 4393   0.149   6.438   1.439  0.4811  0.8202  0.1737
   17MOL   H202 4394   0.367   6.727   1.319 -0.2138 -0.8555 -1.6302
   17MOL   H203 4395   0.278   6.767   1.176 -1.4300  1.1573 -0.2863
   17MOL   H204 4396   0.163   6.822   1.454  1.0630 -2.7514  0.4262
   17MOL   H205 4397   0.177   6.626   1.552  1.1344 -0.6942  1.3753
   17MOL   H206 4398   0.300   6.584   1.430  0.1198 -0.1730  1.2222
   17MOL   H207 4399   0.187   6.384   1.525 -0.2007 -2.3001 -1.4206
   17MOL   H208 4400   0.043   6.418   1.427  0.6562 -1.5525  2.2685
   17MOL   H209 4401   0.195   6.393   1.351 -0.9466 -1.2936  0.4698
   17MOL   C210 4402   0.049   6.886   1.291 -0.2496 -0.1228  0.3812
   17MOL   C211 4403   7.753   6.848   1.335  0.0428  0.4295 -0.5837
   17MOL   O212 4404   7.652   6.893   1.239  0.4768 -0.0368 -0.6497
   17MOL   C213 4405   7.619   6.810   1.126  0.8240  0.4393  0.0548
   17MOL   C214 4406   7.576   6.894   1.004  0.0453 -0.4503 -0.3374
   17MOL   H215 4407   0.049   6.869   1.183 -1.0117  2.2334 -0.0206
   17MOL   H216 4408   0.069   6.993   1.301  1.0711 -0.3262  0.0009
   17MOL   H217 4409   7.759   6.740   1.326  2.0523  0.7168 -3.4024
   17MOL   H218 4410   7.541   6.738   1.148 -0.9775  3.2029  3.1882
   17MOL   H219 4411   7.713   6.763   1.096  0.5883  0.3624 -0.5612
   17MOL   H220 4412   7.603   6.836   0.916  0.8335  0.7577 -0.9078
   17MOL   H221 4413   7.468   6.912   1.006  0.0837  0.2797 -2.9681
   17MOL   H222 4414   7.636   6.985   0.996 -1.6557  0.7146  0.0083
   17MOL   C223 4415   7.711   6.885   1.479  0.1137  0.2888  0.0983
   17MOL   C224 4416   7.575   6.811   1.518 -0.1571 -0.5044 -0.5142
   17MOL   O225 4417   7.586   6.676   1.471  0.1424 -0.2708  0.1737
   17MOL   C226 4418   7.555   6.575   1.569  0.6089  0.0108 -0.2803
   17MOL   C227 4419   7.548   6.442   1.486 -0.1147  0.0528  0.2232
   17MOL   H228 4420   7.697   6.992   1.493  0.8100  0.3533  0.3141
   17MOL   H229 4421   7.786   6.851   1.551  0.9411 -0.1231 -0.9366
   17MOL   H230 4422   7.576   6.808   1.627  2.4040  0.6864 -0.4647
   17MOL   H231 4423   7.452   6.592   1.601  0.4665 -0.6891 -0.3445
   17MOL   H232 4424   7.624   6.567   1.653 -0.3313  0.5768  0.5432
   17MOL   H233 4425   7.647   6.400   1.469  1.0399  3.0027 -0.6105
   17MOL   H234 4426   7.498   6.362   1.540  0.5334 -0.0412  0.6931
   17MOL   H235 4427   7.487   6.471   1.401  0.5955  0.9881  0.0235
   17MOL   C236 4428   7.457   6.892   1.463  0.5026 -0.1032  0.2619
   17MOL   C237 4429   7.320   6.836   1.504 -0.1236 -0.9002 -0.7080
   17MOL   O238 4430   7.214   6.892   1.419 -0.2341  0.5564 -0.0585
   17MOL   C239 4431   7.221   6.853   1.286 -0.0762 -0.6343  0.3423
   17MOL   C240 4432   7.217   6.979   1.199  0.0492  0.3347 -0.5753
   17MOL   H241 4433   7.461   6.912   1.356 -2.7290  0.2897  0.1549
   17MOL   H242 4434   7.464   6.988   1.515 -1.1964  0.4230 -0.4193
   17MOL   H243 4435   7.322   6.727   1.491  0.4833 -0.8204 -1.2815
   17MOL   H244 4436   7.130   6.795   1.267  0.2258 -0.0204 -3.4971
   17MOL   H245 4437   7.302   6.789   1.253 -0.7764 -1.8670  0.9809
   17MOL   H246 4438   7.227   6.954   1.093 -2.0577  1.0700 -0.9744
   17MOL   H247 4439   7.121   7.027   1.219 -0.7884 -1.5335 -0.0464
   17MOL   H248 4440   7.305   7.039   1.220  2.2015 -2.5661 -0.9926
   17MOL   C249 4441   7.281   6.860   1.655  0.3076 -0.2429 -0.5361
   17MOL   C250 4442   7.167   6.772   1.697 -0.8280 -0.2063  0.0304
   17MOL   O251 4443   7.144   6.812   1.829  0.2332 -0.3340  0.1348
   17MOL   C252 4444   7.043   6.736   1.902 -0.6734 -0.8262  0.2613
   17MOL   C253 4445   6.897   6.754   1.849 -0.1337 -1.0453 -0.1996
   17MOL   H254 4446   7.251   6.963   1.674  1.5534  0.3282 -1.6232
   17MOL   H255 4447   7.367   6.843   1.720  0.1258  1.4009  0.1468
   17MOL   H256 4448   7.085   6.796   1.630 -0.6669 -1.5039 -0.6519
   17MOL   H257 4449   7.060   6.787   1.997 -1.5055 -0.7456  0.3721
   17MOL   H258 4450   7.074   6.631   1.910 -0.0074 -0.6039  0.6735
   17MOL   H259 4451   6.870   6.857   1.869  1.4026 -0.9160  1.3310
   17MOL   H260 4452   6.903   6.735   1.742  0.4336 -2.0529  0.0016
   17MOL   H261 4453   6.830   6.681   1.894  1.9042 -0.4488  4.1075
   17MOL   H262 4454   7.188   6.665   1.688 -0.8150 -0.1616 -0.5015
   18MOL     C1 4455   5.131   2.965   5.473  0.4613 -0.7607 -0.3021
   18MOL     C2 4456   5.163   2.979   5.626 -0.2663 -0.2134  0.3149
   18MOL     O3 4457   5.295   3.041   5.638 -0.3957  0.3875 -0.2464
   18MOL     C4 4458   5.290   3.179   5.646 -0.3819  0.4049  0.9953
   18MOL     C5 4459   5.428   3.237   5.684 -0.2155 -0.1294  0.7378
   18MOL     H6 4460   5.023   2.957   5.458  0.1309  3.1644 -0.5446
   18MOL     H7 4461   5.159   3.056   5.420  2.0194 -0.6073  0.7647
   18MOL     H8 4462   5.090   3.042   5.675  0.4184  2.6632 -2.2158
   18MOL     H9 4463   5.217   3.203   5.723  0.3905  0.9908  1.5610
   18MOL    H10 4464   5.269   3.219   5.546  0.3674  0.6380  0.9268
   18MOL    H11 4465   5.506   3.230   5.608 -0.6538 -0.8721  0.3483
   18MOL    H12 4466   5.424   3.345   5.696  0.0739 -0.1297  0.8376
   18MOL    H13 4467   5.467   3.192   5.775  0.2384  0.3426  0.7814
   18MOL    H14 4468   5.190   2.887   5.425  1.6357  0.9845 -1.7768
   18MOL    C15 4469   5.172   2.835   5.694  0.3072  0.7222 -0.6531
   18MOL    C16 4470   5.109   2.830   5.837  0.2204  0.4166 -0.4386
   18MOL    O17 4471   4.984   2.894   5.842 -0.4414 -0.4779 -0.5194
   18MOL    C18 4472   4.892   2.832   5.753 -0.7314 -0.0943 -0.5436
   18MOL    C19 4473   4.749   2.881   5.771 -0.5911  0.1304 -0.7359
   18MOL    H20 4474   5.276   2.800   5.696  0.4281  1.0762 -0.6944
   18MOL    H21 4475   5.115   2.756   5.644 -2.6461  0.4813  2.9122
   18MOL    H22 4476   5.096   2.730   5.879  1.9020 -0.4872 -2.0217
   18MOL    H23 4477   4.909   2.725   5.770 -1.1546  0.1387  1.3574
   18MOL    H24 4478   4.912   2.847   5.647 -1.2123  0.0064 -0.6174
   18MOL    H25 4479   4.720   2.881   5.876  1.9775  3.6755  0.0430
   18MOL    H26 4480   4.679   2.829   5.706 -2.1222 -0.4759  1.3489
   18MOL    H27 4481   4.733   2.985   5.744  0.4723  0.3021 -0.7175
   18MOL    C28 4482   5.195   2.910   5.930  0.1026  0.2462 -0.0050
   18MOL    C29 4483   5.340   2.862   5.955  0.2832  0.4938  0.0396
   18MOL    O30 4484   5.334   2.718   5.979  0.9143  1.2766  0.1066
   18MOL    C31 4485   5.449   2.642   5.949 -0.1377  1.1315  0.5946
   18MOL    C32 4486   5.401   2.536   5.845  0.6275 -0.0681  0.0332
   18MOL    H33 4487   5.142   2.931   6.023  0.1824  1.4507 -0.2228
   18MOL    H34 4488   5.216   3.008   5.888  0.3725  0.1285 -0.1470
   18MOL    H35 4489   5.400   2.881   5.866  1.1370 -1.5925  0.1611
   18MOL    H36 4490   5.490   2.589   6.035  0.2435  0.8857  0.2607
   18MOL    H37 4491   5.531   2.692   5.897 -0.0729 -0.0988 -0.5259
   18MOL    H38 4492   5.335   2.460   5.889  1.4475 -2.0792 -2.1538
   18MOL    H39 4493   5.344   2.587   5.768  1.3130  1.1105  0.3029
   18MOL    H40 4494   5.486   2.479   5.807  0.3659  1.0180 -2.2554
   18MOL    C41 4495   5.397   2.918   6.088  0.0062 -0.9380 -0.1499
   18MOL    C42 4496   5.407   3.067   6.081 -0.1229  0.8307  0.2699
   18MOL    O43 4497   5.543   3.107   6.127  0.1206 -0.1836  0.4114
   18MOL    C44 4498   5.639   3.103   6.018  0.0650 -0.1593  0.5941
   18MOL    C45 4499   5.783   3.128   6.065  0.0653 -0.4066  0.0318
   18MOL    H46 4500   5.497   2.877   6.102 -0.6716 -2.8846 -0.8226
   18MOL    H47 4501   5.338   2.883   6.172  0.5818  0.9720  1.0731
   18MOL    H48 4502   5.385   3.113   5.985 -0.7039  0.2323  0.1215
   18MOL    H49 4503   5.607   3.180   5.948 -1.5051 -0.5638  0.8444
   18MOL    H50 4504   5.643   3.009   5.964  0.8048  0.3566 -0.2653
   18MOL    H51 4505   5.847   3.133   5.977 -0.8639  0.1410 -0.6186
   18MOL    H52 4506   5.786   3.224   6.116 -0.0140 -0.9436  1.0591
   18MOL    H53 4507   5.818   3.047   6.129  1.5453 -1.3540 -1.8985
   18MOL    C54 4508   5.310   3.127   6.180  0.1111 -0.1908  0.1295
   18MOL    C55 4509   5.314   3.284   6.171 -0.3508 -0.3284  0.0342
   18MOL    O56 4510   5.279   3.324   6.301  0.3853 -0.2769 -0.6660
   18MOL    C57 4511   5.387   3.340   6.397  0.1894  0.9036 -0.1053
   18MOL    C58 4512   5.340   3.432   6.513  0.1230 -0.1752 -0.9042
   18MOL    H59 4513   5.327   3.081   6.277  0.3092 -2.0112 -0.7349
   18MOL    H60 4514   5.212   3.090   6.152  0.0577 -0.9105  1.2308
   18MOL    H61 4515   5.416   3.318   6.151 -0.4610 -0.4685 -0.7767
   18MOL    H62 4516   5.481   3.377   6.357 -0.2735  1.2472 -0.8800
   18MOL    H63 4517   5.401   3.240   6.438 -1.3806 -0.0975 -1.9477
   18MOL    H64 4518   5.253   3.389   6.562  1.0458 -0.3145  0.6546
   18MOL    H65 4519   5.419   3.428   6.588  1.0793 -1.2481 -1.9678
   18MOL    H66 4520   5.331   3.537   6.485 -1.2111  0.2471  0.9544
   18MOL    C67 4521   5.216   3.335   6.065 -0.3211  0.4177 -0.3891
   18MOL    C68 4522   5.213   3.478   6.012  0.5111 -0.2513 -0.4933
   18MOL    O69 4523   5.124   3.460   5.904  0.2244  0.3276  0.6047
   18MOL    C70 4524   5.058   3.579   5.876 -0.6939 -0.8329 -0.3912
   18MOL    C71 4525   4.931   3.553   5.800  0.3307 -0.1476 -0.0049
   18MOL    H72 4526   5.118   3.304   6.101  1.0511 -0.2551  2.9202
   18MOL    H73 4527   5.255   3.278   5.981 -0.4926 -0.7289  0.3037
   18MOL    H74 4528   5.166   3.548   6.081 -0.6180 -0.6673 -0.8308
   18MOL    H75 4529   5.120   3.655   5.827  0.4474  0.4460  2.9261
   18MOL    H76 4530   5.025   3.626   5.968 -0.6630  0.8762 -1.2280
   18MOL    H77 4531   4.879   3.645   5.776  1.1866 -0.0307 -1.4581
   18MOL    H78 4532   4.939   3.495   5.708 -1.6664 -0.1673 -0.2033
   18MOL    H79 4533   4.860   3.489   5.854  0.5903 -1.6832 -1.4216
   18MOL    C80 4534   5.351   3.526   5.964 -0.6375  0.5292  0.5282
   18MOL    C81 4535   5.398   3.664   6.025  0.3454 -0.2724 -0.7812
   18MOL    O82 4536   5.521   3.714   5.967  0.2922  0.1954 -0.7280
   18MOL    C83 4537   5.496   3.769   5.840 -0.4237 -0.1048 -0.1589
   18MOL    C84 4538   5.575   3.700   5.725  0.8676  0.3879 -0.5084
   18MOL    H85 4539   5.359   3.512   5.856 -0.4677  1.2246  0.4477
   18MOL    H86 4540   5.418   3.451   6.005 -1.2826 -0.2728  0.1165
   18MOL    H87 4541   5.313   3.731   6.012 -0.6858 -1.5037 -0.4824
   18MOL    H88 4542   5.531   3.872   5.855 -0.9599 -0.3295  2.9950
   18MOL    H89 4543   5.392   3.771   5.805 -0.6300  0.3632  0.4594
   18MOL    H90 4544   5.555   3.756   5.634 -1.8754  0.1050 -0.1298
   18MOL    H91 4545   5.676   3.682   5.762  1.2562  0.3619 -1.5616
   18MOL    H92 4546   5.545   3.596   5.715 -1.9083  0.5386  4.6486
   18MOL    C93 4547   5.427   3.633   6.174 -0.2371 -0.2352  0.3318
   18MOL    C94 4548   5.479   3.764   6.244  0.4344  0.7525  0.1456
   18MOL    O95 4549   5.499   3.752   6.382  0.5222  0.1175  0.3768
   18MOL    C96 4550   5.610   3.674   6.429 -0.0170  0.0622  0.3736
   18MOL    C97 4551   5.622   3.692   6.576 -0.3716  0.1619  0.2807
   18MOL    H98 4552   5.497   3.553   6.196  0.7050  1.0414  2.0546
   18MOL    H99 4553   5.340   3.595   6.228 -0.1518  1.4046  1.6647
   18MOL   H100 4554   5.571   3.797   6.196 -0.1278  0.3130 -1.2397
   18MOL   H101 4555   5.703   3.700   6.377  0.6976 -1.5038  0.8359
   18MOL   H102 4556   5.594   3.570   6.399 -0.5490  0.5298 -1.0194
   18MOL   H103 4557   5.545   3.646   6.638 -1.1160 -0.3188 -0.9778
   18MOL   H104 4558   5.713   3.650   6.619 -0.4754 -0.3703 -0.0135
   18MOL   H105 4559   5.609   3.797   6.601 -2.2876 -0.1285  0.5705
   18MOL   C106 4560   5.398   3.895   6.228 -0.1843 -0.2000 -0.3094
   18MOL   C107 4561   5.452   4.018   6.301  0.8841 -0.5501 -0.6443
   18MOL   O108 4562   5.341   4.114   6.297 -0.1515  0.2470  0.1506
   18MOL   C109 4563   5.335   4.210   6.401  0.5785  0.2569  0.1393
   18MOL   C110 4564   5.230   4.310   6.354  0.0770 -0.0042 -0.2479
   18MOL   H111 4565   5.299   3.875   6.270 -0.0823  1.1960  0.6283
   18MOL   H112 4566   5.389   3.916   6.121  0.7540  0.8093 -0.1935
   18MOL   H113 4567   5.482   3.989   6.402  0.4002 -0.3352 -0.4366
   18MOL   H114 4568   5.431   4.260   6.412  0.6433  0.9023 -2.8577
   18MOL   H115 4569   5.312   4.165   6.498  0.2541 -0.1647 -0.1309
   18MOL   H116 4570   5.262   4.345   6.255  0.4503  2.4044  0.6847
   18MOL   H117 4571   5.138   4.259   6.328 -0.2725  0.0962  0.7852
   18MOL   H118 4572   5.217   4.398   6.418  1.3503 -1.2068  1.7077
   18MOL   C119 4573   5.573   4.092   6.238 -0.0960 -0.2863  0.2194
   18MOL   C120 4574   5.695   4.120   6.326  0.0470  0.2487 -0.3439
   18MOL   O121 4575   5.799   4.189   6.248  0.4548 -0.0149 -0.7005
   18MOL   C122 4576   5.777   4.326   6.223  0.8120  0.5719  0.0838
   18MOL   C123 4577   5.881   4.384   6.124  0.1002 -0.4809 -0.4682
   18MOL   H124 4578   5.539   4.179   6.181  0.6001  0.3633  0.7876
   18MOL   H125 4579   5.611   4.026   6.161  3.5432  0.8981  0.9132
   18MOL   H126 4580   5.671   4.173   6.418 -0.6038  0.3141 -0.5531
   18MOL   H127 4581   5.790   4.375   6.320 -0.4690 -1.0787  1.1295
   18MOL   H128 4582   5.676   4.338   6.183  0.4754  0.0699  0.7561
   18MOL   H129 4583   5.850   4.357   6.022  1.8577 -0.4355 -1.0203
   18MOL   H130 4584   5.874   4.493   6.126  0.0579 -0.5174  1.8232
   18MOL   H131 4585   5.985   4.358   6.137  0.3707  0.2475 -1.1042
   18MOL   C132 4586   5.760   3.995   6.376  0.1431 -0.3267 -0.0173
   18MOL   C133 4587   5.865   4.004   6.486  0.0792 -0.3125 -0.9968
   18MOL   O134 4588   5.892   3.869   6.511  1.0315  0.2358  0.5133
   18MOL   C135 4589   6.013   3.822   6.457 -0.0422 -0.8043  0.5012
   18MOL   C136 4590   6.032   3.676   6.494 -0.2024  0.5479  0.0173
   18MOL   H137 4591   5.808   3.959   6.285 -0.9572 -0.6400 -0.4917
   18MOL   H138 4592   5.688   3.923   6.415 -2.0425  1.8824  0.1867
   18MOL   H139 4593   5.961   4.047   6.458  0.1020  1.9200  2.2075
   18MOL   H140 4594   6.094   3.877   6.506 -0.6572  1.5075 -0.9996
   18MOL   H141 4595   6.016   3.835   6.349 -0.2452  1.1086  0.7016
   18MOL   H142 4596   6.028   3.659   6.602  1.5159 -3.2291 -0.4249
   18MOL   H143 4597   5.950   3.611   6.463 -2.3822  3.6606 -0.9400
   18MOL   H144 4598   6.131   3.643   6.463 -0.0821 -1.3941  2.3385
   18MOL   C145 4599   5.813   4.066   6.611 -0.4371  0.0249 -0.0447
   18MOL   C146 4600   5.902   4.038   6.734 -0.7515 -0.2938 -0.1121
   18MOL   O147 4601   5.839   4.069   6.858 -0.2453 -0.4533 -0.6566
   18MOL   C148 4602   5.757   3.963   6.909 -0.3269 -0.1229 -0.9363
   18MOL   C149 4603   5.856   3.851   6.973 -0.5938 -0.0529 -0.4915
   18MOL   H150 4604   5.707   4.038   6.617 -0.4858 -0.1681 -1.6367
   18MOL   H151 4605   5.808   4.172   6.586 -2.2950  0.2874  1.3273
   18MOL   H152 4606   5.933   3.934   6.744 -0.9066 -0.2253  1.2112
   18MOL   H153 4607   5.688   3.925   6.834  0.1755  0.0623 -1.4992
   18MOL   H154 4608   5.697   4.003   6.990 -1.6321 -2.0067 -0.9519
   18MOL   H155 4609   5.811   3.768   7.027  0.1367  0.6137  1.1580
   18MOL   H156 4610   5.927   3.801   6.907 -0.5609 -0.5535 -0.0775
   18MOL   H157 4611   5.926   3.888   7.047  0.9902 -2.3558 -0.7763
   18MOL   C158 4612   6.035   4.111   6.731  0.3135 -0.2065  0.4385
   18MOL   C159 4613   6.144   4.085   6.838  0.0249 -0.6539  0.1790
   18MOL   O160 4614   6.238   4.194   6.834 -0.0276 -0.5404 -0.3344
   18MOL   C161 4615   6.207   4.316   6.894  0.4005  0.6729  0.5300
   18MOL   C162 4616   6.284   4.317   7.029  0.3055  0.2986 -0.2081
   18MOL   H163 4617   6.008   4.217   6.737 -3.5881 -0.9912 -1.2498
   18MOL   H164 4618   6.080   4.099   6.632  0.5692  0.8636  0.4203
   18MOL   H165 4619   6.097   4.084   6.936 -1.3567  0.3198 -0.4550
   18MOL   H166 4620   6.099   4.329   6.902  0.2241  1.3998 -2.4580
   18MOL   H167 4621   6.243   4.387   6.820  1.8249  0.9247  1.4340
   18MOL   H168 4622   6.233   4.259   7.106  2.0981 -1.6822 -0.4657
   18MOL   H169 4623   6.386   4.281   7.016 -0.9591 -3.7321  0.1911
   18MOL   H170 4624   6.277   4.421   7.059  1.4333  0.4221 -0.3631
   18MOL   C171 4625   6.230   3.961   6.807 -0.6046  0.4655 -1.0988
   18MOL   C172 4626   6.348   3.958   6.915  1.0728  0.0728  0.0406
   18MOL   O173 4627   6.425   3.840   6.875 -0.0495 -0.2452  0.1403
   18MOL   C174 4628   6.546   3.873   6.799  0.5277  0.9938  0.9568
   18MOL   C175 4629   6.621   3.760   6.739  0.4680 -0.6413  0.3394
   18MOL   H176 4630   6.263   3.956   6.703 -0.3878 -0.3089 -0.9948
   18MOL   H177 4631   6.162   3.876   6.814  1.5938 -1.0772  2.7139
   18MOL   H178 4632   6.412   4.046   6.911  0.6491  0.5139  2.1462
   18MOL   H179 4633   6.612   3.920   6.871  1.5159  0.4509  0.4199
   18MOL   H180 4634   6.525   3.953   6.727  0.6926 -2.0286 -2.6109
   18MOL   H181 4635   6.555   3.724   6.660 -0.3632  0.4582  0.5270
   18MOL   H182 4636   6.716   3.792   6.697  0.6612  0.2084  1.4253
   18MOL   H183 4637   6.650   3.678   6.805  0.2162 -2.0801 -1.2787
   18MOL   C184 4638   6.294   3.932   7.063 -0.0348 -0.1378  0.1105
   18MOL   C185 4639   6.395   3.865   7.161 -0.3086 -0.4386 -0.3279
   18MOL   O186 4640   6.323   3.835   7.285  1.0274  0.2782  0.1389
   18MOL   C187 4641   6.243   3.716   7.290 -0.2008  0.0037  0.0029
   18MOL   C188 4642   6.200   3.706   7.435 -0.2887  0.3612 -0.8722
   18MOL   H189 4643   6.202   3.873   7.056  0.7219 -1.2225 -0.6544
   18MOL   H190 4644   6.260   4.027   7.107 -0.1391 -0.0565 -0.1467
   18MOL   H191 4645   6.438   3.775   7.116 -1.6860 -1.2239 -0.1042
   18MOL   H192 4646   6.308   3.634   7.258 -0.5624 -0.2290 -0.1465
   18MOL   H193 4647   6.162   3.739   7.221  1.2340  0.0439 -1.7159
   18MOL   H194 4648   6.286   3.694   7.501 -1.5227  1.1217  0.9002
   18MOL   H195 4649   6.151   3.796   7.469  0.3841  1.0524 -1.6753
   18MOL   H196 4650   6.133   3.622   7.454  0.4732  0.5224  2.7232
   18MOL   C197 4651   6.507   3.965   7.211  0.3698  0.4631 -1.2137
   18MOL   C198 4652   6.612   3.917   7.309 -0.1012  0.0688 -0.2169
   18MOL   O199 4653   6.688   4.029   7.341  0.4419  0.4420 -0.0926
   18MOL   C200 4654   6.721   4.039   7.482  0.0371  0.0787 -0.1279
   18MOL   C201 4655   6.800   4.169   7.501  0.1011  1.1724 -0.8672
   18MOL   H202 4656   6.452   4.051   7.251  2.1346  0.2844  1.7303
   18MOL   H203 4657   6.557   3.998   7.120 -0.1452 -0.4286 -1.8258
   18MOL   H204 4658   6.563   3.874   7.396 -0.4451 -2.9326 -1.8341
   18MOL   H205 4659   6.787   3.960   7.517  1.0304  1.0819  0.2940
   18MOL   H206 4660   6.630   4.038   7.543 -1.2193 -0.8486 -1.9699
   18MOL   H207 4661   6.731   4.254   7.497 -1.5232 -0.0597  0.0397
   18MOL   H208 4662   6.866   4.181   7.587 -1.9249  1.7204  0.6674
   18MOL   H209 4663   6.860   4.177   7.411  0.4619  1.2090 -0.6204
   18MOL   C210 4664   6.714   3.812   7.258  0.2058 -0.0994 -0.1474
   18MOL   C211 4665   6.661   3.669   7.282  0.0478 -0.8035  0.2749
   18MOL   O212 4666   6.704   3.634   7.414 -0.1154  0.4248 -0.1507
   18MOL   C213 4667   6.612   3.587   7.507  0.6923 -0.1524 -0.0560
   18MOL   C214 4668   6.684   3.572   7.643 -0.6778  0.2425  0.2892
   18MOL   H215 4669   6.806   3.823   7.315  0.9834 -2.7047 -0.8401
   18MOL   H216 4670   6.739   3.829   7.153  2.8556 -0.9289  0.2997
   18MOL   H217 4671   6.554   3.654   7.268 -0.2995  1.3433  0.5239
   18MOL   H218 4672   6.563   3.496   7.474  0.8191 -0.9105  1.7645
   18MOL   H219 4673   6.533   3.661   7.521 -0.8379 -1.7723 -0.1050
   18MOL   H220 4674   6.761   3.495   7.646 -2.4962 -1.7032 -1.1203
   18MOL   H221 4675   6.729   3.669   7.666 -0.7263  0.2220  0.4679
   18MOL   H222 4676   6.623   3.553   7.731 -0.0725  0.8531  0.8500
   18MOL   C223 4677   6.741   3.567   7.193 -0.5348 -0.7798  0.2831
   18MOL   C224 4678   6.688   3.421   7.195 -0.5729  0.4232 -0.6363
   18MOL   O225 4679   6.774   3.338   7.120 -0.1421  0.2137 -0.3184
   18MOL   C226 4680   6.851   3.252   7.203 -0.0996  0.6909  0.1460
   18MOL   C227 4681   6.927   3.165   7.101  0.2421  0.1731 -0.2639
   18MOL   H228 4682   6.839   3.577   7.240  0.9715 -1.5326 -2.6364
   18MOL   H229 4683   6.751   3.592   7.088  1.6693 -1.5271  0.2943
   18MOL   H230 4684   6.686   3.391   7.300 -0.0915 -1.9303 -1.2539
   18MOL   H231 4685   6.788   3.198   7.273 -0.0055  1.4728  0.8351
   18MOL   H232 4686   6.924   3.313   7.256  1.2552 -0.8860  0.1237
   18MOL   H233 4687   6.971   3.229   7.025 -0.3647 -0.1699 -0.9102
   18MOL   H234 4688   7.001   3.094   7.138  0.3506 -0.4791 -1.7166
   18MOL   H235 4689   6.856   3.095   7.056 -1.1158  0.5551  1.2148
   18MOL   C236 4690   6.545   3.412   7.132  0.3827  0.2164 -0.1112
   18MOL   C237 4691   6.460   3.281   7.153  0.1454  0.2962  0.0423
   18MOL   O238 4692   6.333   3.294   7.094  0.6023  0.2500 -0.1901
   18MOL   C239 4693   6.318   3.245   6.961 -0.0746 -0.3267 -0.4012
   18MOL   C240 4694   6.338   3.088   6.960  0.1755  0.6216 -0.6701
   18MOL   H241 4695   6.554   3.448   7.030  1.1282  0.3202 -0.0126
   18MOL   H242 4696   6.485   3.486   7.185 -2.1042  0.8195 -3.5796
   18MOL   H243 4697   6.519   3.202   7.104 -0.9721  1.3160 -3.0960
   18MOL   H244 4698   6.388   3.288   6.889 -2.8410  2.1617 -1.6780
   18MOL   H245 4699   6.213   3.267   6.942 -0.2688 -0.8121  0.0887
   18MOL   H246 4700   6.441   3.055   6.971 -0.3971 -0.8007  0.6493
   18MOL   H247 4701   6.275   3.045   7.038  0.0031  0.3176 -0.9769
   18MOL   H248 4702   6.318   3.057   6.857 -0.2094 -1.3762 -0.0189
   18MOL   C249 4703   6.442   3.234   7.299  0.1578 -0.4164 -0.0597
   18MOL   C250 4704   6.372   3.099   7.308  0.6411 -0.5614 -0.2092
   18MOL   O251 4705   6.383   3.064   7.446 -0.1450  0.6657 -0.7419
   18MOL   C252 4706   6.351   2.932   7.478  0.3008 -1.1244 -0.5357
   18MOL   C253 4707   6.468   2.840   7.450 -0.2071 -0.6128 -0.4552
   18MOL   H254 4708   6.390   3.309   7.359  1.3866  0.4063 -0.0232
   18MOL   H255 4709   6.544   3.230   7.336  0.9106 -2.1388 -2.2238
   18MOL   H256 4710   6.266   3.099   7.284 -0.4050  1.6998  4.0000
   18MOL   H257 4711   6.261   2.900   7.425 -0.3290  1.5304 -1.1055
   18MOL   H258 4712   6.323   2.915   7.582  1.0319  0.9103  0.0053
   18MOL   H259 4713   6.535   2.845   7.536 -0.7121  0.8631 -0.1311
   18MOL   H260 4714   6.437   2.735   7.452  0.2303 -0.8539 -3.7976
   18MOL   H261 4715   6.526   2.865   7.361  0.0918 -2.5308 -0.8356
   18MOL   H262 4716   6.429   3.037   7.239  2.3195  0.6610  0.0376
   19MOL     C1 4717   5.751   0.472   0.197  0.5334 -0.8295 -0.3050
   19MOL     C2 4718   5.815   0.429   0.325 -0.1454 -0.0661  0.4770
   19MOL     O3 4719   5.789   0.290   0.339 -0.3153  0.2583 -0.0560
   19MOL     C4 4720   5.895   0.208   0.285  0.6575  0.7377  0.3531
   19MOL     C5 4721   5.870   0.063   0.340  0.1537  0.3174  0.6747
   19MOL     H6 4722   5.788   0.412   0.114 -0.2696  0.0831 -1.3484
   19MOL     H7 4723   5.645   0.447   0.189  0.5062 -0.2990 -1.8629
   19MOL     H8 4724   5.923   0.447   0.323  0.2604 -2.3612 -0.3086
   19MOL     H9 4725   5.994   0.235   0.321  0.2410  0.0166  2.0863
   19MOL    H10 4726   5.896   0.202   0.176 -2.2707  0.2411  0.3143
   19MOL    H11 4727   5.837   0.056   0.444  1.5203 -1.1950  1.0272
   19MOL    H12 4728   5.782   0.027   0.287 -2.2154  4.6633  1.4123
   19MOL    H13 4729   5.961   0.005   0.328 -1.2928 -2.0680  0.7003
   19MOL    H14 4730   5.767   0.576   0.166 -0.5002 -0.5622  0.0304
   19MOL    C15 4731   5.754   0.497   0.451 -0.3563  0.5651 -0.5756
   19MOL    C16 4732   5.823   0.470   0.583 -0.0534 -0.1415  0.4635
   19MOL    O17 4733   5.736   0.513   0.691  0.2794  0.2270  0.3889
   19MOL    C18 4734   5.623   0.436   0.719 -0.1357  0.0692  0.3757
   19MOL    C19 4735   5.578   0.486   0.852 -0.1296 -0.0468 -0.6132
   19MOL    H20 4736   5.652   0.459   0.457 -0.4949  1.3312  2.2290
   19MOL    H21 4737   5.746   0.605   0.440  0.5764  0.3886 -3.3971
   19MOL    H22 4738   5.829   0.362   0.592 -2.2308 -0.3030  0.0949
   19MOL    H23 4739   5.645   0.329   0.725  1.8178  0.3188 -1.9403
   19MOL    H24 4740   5.542   0.456   0.649 -0.3104 -2.2750 -0.1362
   19MOL    H25 4741   5.573   0.595   0.841 -0.3717 -0.0452 -0.5099
   19MOL    H26 4742   5.656   0.475   0.927 -1.4898 -1.7110  0.5829
   19MOL    H27 4743   5.488   0.429   0.875 -0.6657  1.1954  0.4797
   19MOL    C28 4744   5.965   0.536   0.600 -0.1150  0.0835 -0.5471
   19MOL    C29 4745   6.035   0.495   0.736  0.1967  0.2199  1.1672
   19MOL    O30 4746   6.155   0.574   0.732 -0.8323 -0.2379  0.4632
   19MOL    C31 4747   6.226   0.575   0.851  0.0369  0.0660  0.1227
   19MOL    C32 4748   6.356   0.651   0.828  0.2754 -1.2189  0.0243
   19MOL    H33 4749   5.957   0.645   0.598  0.9114  0.1287 -2.4730
   19MOL    H34 4750   6.021   0.507   0.512  0.2368 -1.9432  0.3258
   19MOL    H35 4751   5.968   0.530   0.815 -2.2387  0.5412 -0.9863
   19MOL    H36 4752   6.263   0.476   0.875 -1.0967  0.1200  2.2025
   19MOL    H37 4753   6.168   0.618   0.932  0.6988 -0.6133  0.9664
   19MOL    H38 4754   6.327   0.752   0.798  1.1182 -0.9950 -0.0588
   19MOL    H39 4755   6.416   0.661   0.919  2.5590  2.8765 -1.7998
   19MOL    H40 4756   6.411   0.612   0.743 -0.6934  2.5768 -2.4610
   19MOL    C41 4757   6.066   0.347   0.738 -0.1357  0.7992 -0.4334
   19MOL    C42 4758   6.044   0.273   0.874 -0.0349 -0.8450 -0.1040
   19MOL    O43 4759   6.095   0.146   0.860  0.4634  0.2423 -0.3385
   19MOL    C44 4760   6.205   0.111   0.945  0.0868  0.7426 -0.4908
   19MOL    C45 4761   6.242   7.811   0.906 -0.5634 -0.3305 -0.2567
   19MOL    H46 4762   6.167   0.321   0.707 -0.3587 -1.4757  0.6897
   19MOL    H47 4763   6.003   0.294   0.666 -0.6296 -2.4242  2.2678
   19MOL    H48 4764   6.100   0.320   0.954 -2.1489  1.2391  0.1941
   19MOL    H49 4765   6.179   0.116   1.051  0.2474 -1.1547 -0.3569
   19MOL    H50 4766   6.282   0.178   0.907 -1.4806  2.2712 -1.0821
   19MOL    H51 4767   6.340   7.801   0.952 -0.5024 -0.3089 -0.3831
   19MOL    H52 4768   6.161   7.741   0.927 -0.6673 -0.0888  0.1598
   19MOL    H53 4769   6.257   7.798   0.799  1.1750 -2.9429  0.2641
   19MOL    C54 4770   5.889   0.265   0.910 -0.1500 -0.4339 -0.6499
   19MOL    C55 4771   5.853   0.222   1.058 -0.7635 -0.1453 -0.2149
   19MOL    O56 4772   5.714   0.217   1.059  0.4047  0.2895  0.2993
   19MOL    C57 4773   5.657   0.091   1.027  0.4867  0.4737  0.5470
   19MOL    C58 4774   5.501   0.104   1.030 -0.8984  0.0140 -0.4926
   19MOL    H59 4775   5.836   0.206   0.837 -2.1012  1.3591 -0.7331
   19MOL    H60 4776   5.848   0.364   0.890 -2.4714 -1.7173 -2.4438
   19MOL    H61 4777   5.898   0.125   1.078 -0.8451  0.2301  1.9085
   19MOL    H62 4778   5.692   0.014   1.096  3.3448 -0.3633 -1.6975
   19MOL    H63 4779   5.682   0.064   0.924 -3.0838 -2.0155  0.2519
   19MOL    H64 4780   5.465   0.140   1.126  2.0673  1.5121  0.1206
   19MOL    H65 4781   5.471   0.184   0.963  0.8084 -1.7051 -3.4145
   19MOL    H66 4782   5.463   0.004   1.009  2.0057 -0.9891 -1.2263
   19MOL    C67 4783   5.904   0.327   1.166  0.1432  0.1826  0.3300
   19MOL    C68 4784   5.821   0.334   1.298  0.1280  0.2355  0.2930
   19MOL    O69 4785   5.864   0.455   1.365  0.0506 -0.4209 -0.4287
   19MOL    C70 4786   5.773   0.519   1.460 -0.1270  0.3908 -0.0163
   19MOL    C71 4787   5.837   0.551   1.589 -0.2863 -0.7955 -0.3814
   19MOL    H72 4788   5.883   0.419   1.110  2.3513  2.1259  2.5553
   19MOL    H73 4789   6.012   0.340   1.174  0.4618 -1.4773 -0.9091
   19MOL    H74 4790   5.718   0.352   1.267  0.2783  0.0096 -0.3440
   19MOL    H75 4791   5.688   0.453   1.480  0.3970 -0.7791 -1.6097
   19MOL    H76 4792   5.739   0.612   1.414  1.2114  0.2643 -1.2855
   19MOL    H77 4793   5.760   0.597   1.651 -1.0976 -0.1569 -1.8605
   19MOL    H78 4794   5.878   0.462   1.638 -1.1069 -1.4469 -0.8722
   19MOL    H79 4795   5.921   0.618   1.570 -0.2149 -0.2356  1.7262
   19MOL    C80 4796   5.843   0.201   1.379  0.3417 -0.2975 -0.0525
   19MOL    C81 4797   5.720   0.158   1.463  0.4372  0.7384  0.1677
   19MOL    O82 4798   5.759   0.048   1.546 -0.1279 -0.6038 -0.4897
   19MOL    C83 4799   5.816   0.090   1.667 -0.2296  0.8879  0.5154
   19MOL    C84 4800   5.893   7.804   1.705  0.1969  0.1935 -0.1093
   19MOL    H85 4801   5.936   0.199   1.436  0.8158  0.5415 -0.7899
   19MOL    H86 4802   5.857   0.122   1.304  1.0647 -2.2656  2.0759
   19MOL    H87 4803   5.699   0.235   1.538 -0.7578  0.3752  0.2316
   19MOL    H88 4804   5.736   0.112   1.737 -0.5527  1.4897 -0.0332
   19MOL    H89 4805   5.889   0.171   1.672  1.2088 -0.2461 -1.5410
   19MOL    H90 4806   5.982   7.790   1.644  1.2684 -0.9834  1.6845
   19MOL    H91 4807   5.923   7.804   1.810 -1.9247 -0.9305  0.5449
   19MOL    H92 4808   5.829   7.715   1.703  0.9699 -0.3618 -0.3444
   19MOL    C93 4809   5.587   0.117   1.387 -0.6404  0.5302 -0.1873
   19MOL    C94 4810   5.467   0.100   1.477  0.4421 -0.6341 -0.7228
   19MOL    O95 4811   5.378   0.013   1.409  0.5189 -0.8726 -0.3048
   19MOL    C96 4812   5.392   7.718   1.433 -0.6295 -0.9138 -0.1948
   19MOL    C97 4813   5.309   7.651   1.323 -0.3350  0.8179  0.1570
   19MOL    H98 4814   5.610   0.022   1.339  2.0629  1.1279 -0.1111
   19MOL    H99 4815   5.561   0.187   1.307 -0.8538 -0.0844 -0.6562
   19MOL   H100 4816   5.483   0.055   1.575  0.5466  0.2797 -0.3113
   19MOL   H101 4817   5.352   7.703   1.533  2.0475  0.3717  1.1129
   19MOL   H102 4818   5.499   7.698   1.429 -0.7315 -1.2928 -1.2628
   19MOL   H103 4819   5.275   7.550   1.349 -1.5737  1.7179  2.1758
   19MOL   H104 4820   5.215   7.707   1.316 -1.0098 -0.2436  0.5660
   19MOL   H105 4821   5.351   7.643   1.223  2.2597  0.2694  1.2521
   19MOL   C106 4822   5.390   0.238   1.506 -0.1528  0.9624 -0.0902
   19MOL   C107 4823   5.334   0.306   1.380  0.2075  0.5081 -0.7861
   19MOL   O108 4824   5.427   0.411   1.341 -0.0039  0.9518  0.4904
   19MOL   C109 4825   5.383   0.476   1.227  0.0727 -0.1969 -0.2015
   19MOL   C110 4826   5.481   0.592   1.203  0.4529  0.3398  0.1238
   19MOL   H111 4827   5.453   0.310   1.558  0.1459 -0.0516  0.9831
   19MOL   H112 4828   5.323   0.214   1.589 -0.4353 -2.0366 -1.1342
   19MOL   H113 4829   5.321   0.232   1.301 -2.3592  1.0684 -0.9556
   19MOL   H114 4830   5.286   0.524   1.241 -1.1373 -2.0443 -2.1519
   19MOL   H115 4831   5.378   0.409   1.141 -0.5998 -0.6353  0.1732
   19MOL   H116 4832   5.581   0.559   1.174  0.6807  0.0579  1.2080
   19MOL   H117 4833   5.453   0.650   1.115  1.7877  1.6962  0.5759
   19MOL   H118 4834   5.501   0.662   1.284 -3.0238  0.0256  1.3127
   19MOL   C119 4835   5.193   0.370   1.433 -0.5195 -0.0873 -0.3667
   19MOL   C120 4836   5.071   0.371   1.339  0.1161  0.4230 -0.6541
   19MOL   O121 4837   4.997   0.481   1.381  0.1714 -0.1616  0.0361
   19MOL   C122 4838   4.956   0.557   1.272 -0.5525  0.2066  0.5777
   19MOL   C123 4839   4.857   0.651   1.325  0.9602 -0.2559 -0.2498
   19MOL   H124 4840   5.214   0.466   1.481 -0.9964  0.8257 -1.9624
   19MOL   H125 4841   5.165   0.324   1.528  2.4188 -1.2636 -0.0020
   19MOL   H126 4842   5.113   0.370   1.239  1.8091 -0.8907  0.0477
   19MOL   H127 4843   4.896   0.498   1.203 -0.9602  0.8630  0.3697
   19MOL   H128 4844   5.038   0.613   1.227  0.7479 -0.1770  2.4065
   19MOL   H129 4845   4.892   0.691   1.420  0.1325  0.7634 -0.3705
   19MOL   H130 4846   4.832   0.736   1.261  1.9762 -0.4509 -0.9097
   19MOL   H131 4847   4.774   0.593   1.366  0.2646  2.7629  2.8221
   19MOL   C132 4848   4.968   0.260   1.359 -0.1352 -0.2281  1.1910
   19MOL   C133 4849   5.017   0.136   1.291  0.2119  1.1766  0.7153
   19MOL   O134 4850   5.036   0.171   1.157 -0.1022  0.3407  0.4904
   19MOL   C135 4851   5.128   0.103   1.077  0.9819  0.3638  0.1752
   19MOL   C136 4852   5.141   0.173   0.945 -0.5375  0.7261  0.1675
   19MOL   H137 4853   4.880   0.279   1.298  0.6696  0.4171  0.2169
   19MOL   H138 4854   4.933   0.250   1.461 -0.8833 -0.1860  0.9381
   19MOL   H139 4855   5.107   0.097   1.339 -0.6242 -0.4643  0.9678
   19MOL   H140 4856   5.099   0.001   1.054 -0.9000  1.5640 -3.1521
   19MOL   H141 4857   5.225   0.105   1.127  1.3249 -1.2184 -0.4104
   19MOL   H142 4858   5.046   0.159   0.894  0.1066  2.7011 -1.6140
   19MOL   H143 4859   5.151   0.279   0.967  0.8699  0.2834  1.8718
   19MOL   H144 4860   5.215   0.129   0.878 -1.6909  0.1132 -0.7193
   19MOL   C145 4861   4.915   0.011   1.296 -1.0436 -0.5228 -0.2033
   19MOL   C146 4862   4.865   7.824   1.434 -0.1319 -0.9654 -0.0435
   19MOL   O147 4863   4.981   7.798   1.509 -0.1543 -0.5400  0.1137
   19MOL   C148 4864   4.971   7.835   1.638  0.1059  0.4730  0.4968
   19MOL   C149 4865   5.107   7.811   1.696 -0.3283  0.4281  0.2992
   19MOL   H150 4866   4.959   7.761   1.261 -0.2303 -0.3469  0.3255
   19MOL   H151 4867   4.829   0.031   1.232 -1.9799 -0.9388  0.9193
   19MOL   H152 4868   4.815   0.067   1.478  0.0744 -0.6529 -0.4201
   19MOL   H153 4869   4.898   7.763   1.674  0.4953  0.6607  1.6598
   19MOL   H154 4870   4.929   0.090   1.658 -0.6763  0.3057 -0.3032
   19MOL   H155 4871   5.120   0.016   1.793 -0.0416  1.8677 -0.4430
   19MOL   H156 4872   5.138   7.707   1.690  2.1810  0.9325  3.4071
   19MOL   H157 4873   5.176   0.026   1.636 -0.0033  1.5724  1.7570
   19MOL   C158 4874   4.773   7.697   1.438 -0.2491  0.6375  0.0563
   19MOL   C159 4875   4.625   7.730   1.455  0.1776  0.0637  0.3967
   19MOL   O160 4876   4.580   7.830   1.364  0.3226 -0.2721  0.0087
   19MOL   C161 4877   4.566   7.788   1.233 -1.0390  0.1186 -0.4540
   19MOL   C162 4878   4.423   7.730   1.200 -0.5109  0.2461  0.3593
   19MOL   H163 4879   4.808   7.644   1.526 -1.4356  0.5680  0.4977
   19MOL   H164 4880   4.778   7.630   1.352 -0.5168  0.7807 -0.0711
   19MOL   H165 4881   4.576   7.638   1.423  0.0230 -0.3537  1.7925
   19MOL   H166 4882   4.651   7.728   1.201 -2.6002 -1.4948 -1.6887
   19MOL   H167 4883   4.577   0.038   1.178  0.1061  0.8248  0.9518
   19MOL   H168 4884   4.401   7.640   1.259  2.1982  0.4944  1.8237
   19MOL   H169 4885   4.347   7.804   1.225 -0.8037 -0.1405  0.6321
   19MOL   H170 4886   4.416   7.701   1.095  1.3038 -0.0179  0.3056
   19MOL   C171 4887   4.586   7.774   1.597 -0.2491 -0.1038 -0.2357
   19MOL   C172 4888   4.427   7.797   1.613  0.5338  0.0763  0.4085
   19MOL   O173 4889   4.409   0.036   1.731  0.3810 -0.0880 -0.9843
   19MOL   C174 4890   4.333   0.152   1.713 -0.2433  0.2667  0.5525
   19MOL   C175 4891   4.281   0.205   1.844  0.2619 -0.0543 -0.2641
   19MOL   H176 4892   4.640   0.021   1.624  1.4110 -1.0728 -0.2375
   19MOL   H177 4893   4.616   7.704   1.675  0.0157 -0.8178 -0.9724
   19MOL   H178 4894   4.400   0.010   1.524  2.6646  1.0243  0.3221
   19MOL   H179 4895   4.252   0.143   1.640  0.3129 -0.6963  0.0521
   19MOL   H180 4896   4.398   0.226   1.664  0.9279 -1.7683 -1.0519
   19MOL   H181 4897   4.235   0.302   1.824 -0.5740 -0.4520 -0.3156
   19MOL   H182 4898   4.203   0.134   1.874 -0.5090  1.5442  1.5802
   19MOL   H183 4899   4.356   0.215   1.922  0.7123  2.8930 -1.0400
   19MOL   C184 4900   4.341   7.670   1.625  0.4133  0.1983  0.2456
   19MOL   C185 4901   4.195   7.672   1.599 -0.2177 -0.4267  0.3291
   19MOL   O186 4902   4.128   7.553   1.628 -0.1883 -0.1197  0.1106
   19MOL   C187 4903   4.082   7.540   1.755  0.9815 -0.7727  0.1421
   19MOL   C188 4904   4.078   7.390   1.798  0.0645 -0.0059  0.0419
   19MOL   H189 4905   4.354   7.620   1.721 -2.2740 -0.6441  0.2285
   19MOL   H190 4906   4.378   7.602   1.549 -3.1469 -2.2301  0.5275
   19MOL   H191 4907   4.150   7.755   1.653 -0.7718 -0.6116  0.1589
   19MOL   H192 4908   3.981   7.577   1.774  1.1530 -0.0534 -0.3421
   19MOL   H193 4909   4.137   7.603   1.825 -1.3115  1.0548  0.3818
   19MOL   H194 4910   4.063   7.380   1.906  1.0771  2.6401  0.4652
   19MOL   H195 4911   3.997   7.343   1.742  0.6196 -1.7077  0.6174
   19MOL   H196 4912   4.172   7.338   1.777 -0.5280 -1.0407 -0.0901
   19MOL   C197 4913   4.158   7.695   1.449 -0.6441 -0.8471 -0.5962
   19MOL   C198 4914   4.011   7.745   1.419  0.1830  0.7231  0.5738
   19MOL   O199 4915   3.975   7.721   1.283  0.0142 -0.2202  0.3322
   19MOL   C200 4916   3.958   7.580   1.244  0.2774  0.0707  0.0142
   19MOL   C201 4917   4.000   7.560   1.106  0.3880 -0.2226  0.1379
   19MOL   H202 4918   4.199   7.609   1.396  1.6006 -0.8282  1.0320
   19MOL   H203 4919   4.226   7.775   1.422 -1.8341  0.4225  0.0818
   19MOL   H204 4920   3.934   7.696   1.478 -1.3079  0.9832 -1.0897
   19MOL   H205 4921   3.851   7.562   1.254  0.3643 -0.1834  0.5023
   19MOL   H206 4922   4.002   7.514   1.318 -0.6016 -1.7537 -1.0636
   19MOL   H207 4923   3.979   7.644   1.040 -0.7540 -0.1939  0.5256
   19MOL   H208 4924   4.103   7.534   1.084 -0.8379 -5.3868 -0.1627
   19MOL   H209 4925   3.933   7.486   1.063  1.5757 -1.0301 -0.3409
   19MOL   C210 4926   3.992   0.052   1.432 -0.7719 -0.4525  0.0694
   19MOL   C211 4927   3.865   0.116   1.392  0.2077  0.1874 -0.8543
   19MOL   O212 4928   3.877   0.260   1.393 -0.6264 -0.3428 -0.1409
   19MOL   C213 4929   3.786   0.315   1.301 -0.1105  0.2882 -0.0139
   19MOL   C214 4930   3.797   0.459   1.291  0.0073  0.4778 -0.5771
   19MOL   H215 4931   4.074   0.105   1.384 -1.1480  0.2571  0.1981
   19MOL   H216 4932   4.012   0.069   1.538  1.7106 -0.9876 -0.2778
   19MOL   H217 4933   3.843   0.076   1.293  2.3661 -0.9896 -0.8714
   19MOL   H218 4934   3.686   0.286   1.334  0.3690  0.2340  1.3836
   19MOL   H219 4935   3.792   0.265   1.204 -2.7214 -1.0893  0.4833
   19MOL   H220 4936   3.902   0.479   1.268 -0.1131 -0.0961 -1.6157
   19MOL   H221 4937   3.731   0.497   1.213 -0.6679 -0.9599 -0.7095
   19MOL   H222 4938   3.786   0.503   1.391 -1.2176  0.4056 -0.6724
   19MOL   C223 4939   3.749   0.073   1.488  0.4830 -0.5014  0.4881
   19MOL   C224 4940   3.663   7.800   1.420 -0.0965 -0.8178 -0.8504
   19MOL   O225 4941   3.568   0.027   1.335  0.0859  0.3701 -0.4847
   19MOL   C226 4942   3.569   7.833   1.198 -0.0933 -0.4563 -0.7124
   19MOL   C227 4943   3.452   0.044   1.126 -0.5407  0.2684  0.0579
   19MOL   H228 4944   3.686   0.159   1.508  0.1663 -0.0654 -2.1270
   19MOL   H229 4945   3.798   0.050   1.582  1.4303 -0.4030  0.0236
   19MOL   H230 4946   3.722   7.735   1.356 -1.8786 -0.5478 -2.8292
   19MOL   H231 4947   3.576   7.725   1.188  0.1034 -0.5542  0.4988
   19MOL   H232 4948   3.663   0.025   1.155 -0.4984  1.0764 -0.3515
   19MOL   H233 4949   3.453   0.055   1.018  0.7603 -0.0636  0.0292
   19MOL   H234 4950   3.366   7.823   1.144 -1.0931  0.8472 -0.4978
   19MOL   H235 4951   3.439   0.148   1.157 -0.7923  0.7432 -1.5737
   19MOL   C236 4952   3.578   7.726   1.523  0.1780 -0.5505  0.4276
   19MOL   C237 4953   3.512   7.597   1.467 -0.4868 -0.3167  0.1066
   19MOL   O238 4954   3.414   7.563   1.566  0.0380  0.3634 -0.0449
   19MOL   C239 4955   3.290   7.630   1.543  0.4142 -0.4143  0.5214
   19MOL   C240 4956   3.181   7.533   1.487 -0.3106  0.0272 -0.4165
   19MOL   H241 4957   3.510   7.803   1.560 -0.6198 -1.1425  0.2215
   19MOL   H242 4958   3.640   7.696   1.608 -0.1550 -0.8443  0.5686
   19MOL   H243 4959   3.469   7.605   1.367 -0.3782 -2.4929 -0.1295
   19MOL   H244 4960   3.309   7.708   1.470  2.1311 -1.5030 -0.2033
   19MOL   H245 4961   3.244   7.669   1.634 -2.4485 -1.6911 -0.2957
   19MOL   H246 4962   3.149   7.461   1.562  0.6876 -0.4286 -0.4168
   19MOL   H247 4963   3.092   7.593   1.469  0.2696  1.5771  1.5833
   19MOL   H248 4964   3.224   7.489   1.397  0.2091 -0.2697 -0.0242
   19MOL   C249 4965   3.617   7.485   1.475 -0.0929  0.3285  0.2214
   19MOL   C250 4966   3.575   7.351   1.404  0.1815 -0.3529 -0.2276
   19MOL   O251 4967   3.557   7.374   1.265  0.4766 -0.1921 -0.4050
   19MOL   C252 4968   3.455   7.298   1.214  0.0964 -0.0545  0.6984
   19MOL   C253 4969   3.456   7.285   1.063  0.8120  0.4409  0.1499
   19MOL   H254 4970   3.631   7.454   1.578 -0.7437 -0.7297 -0.0024
   19MOL   H255 4971   3.717   7.517   1.447  0.7539 -2.6963 -0.4301
   19MOL   H256 4972   3.649   7.272   1.410  0.9478  0.3224 -0.6579
   19MOL   H257 4973   3.365   7.342   1.256  0.7658  1.6056  0.4070
   19MOL   H258 4974   3.440   7.197   1.252 -1.1436 -0.4365 -0.7172
   19MOL   H259 4975   3.365   7.243   1.020  0.0420  0.8512  1.3700
   19MOL   H260 4976   3.458   7.385   1.020 -1.7853  0.7380  0.6263
   19MOL   H261 4977   3.542   7.224   1.034  0.8536  1.2797 -1.6024
   19MOL   H262 4978   3.487   7.314   1.456  1.3851 -1.8075  0.7995
   20MOL     C1 4979   0.895   2.362   3.246  0.2069  0.1560 -0.1918
   20MOL     C2 4980   0.797   2.267   3.301  0.3919  0.1565 -0.6288
   20MOL     O3 4981   0.712   2.340   3.390 -0.1094 -0.1832  0.2738
   20MOL     C4 4982   0.598   2.418   3.342 -0.8955 -0.2784  0.5470
   20MOL     C5 4983   0.503   2.443   3.454  0.4944  0.1948  0.3553
   20MOL     H6 4984   0.847   2.452   3.208  0.7512  1.0859  1.2619
   20MOL     H7 4985   0.966   2.397   3.322 -1.4294  2.3313  0.3842
   20MOL     H8 4986   0.730   2.237   3.221 -0.7206 -0.6101  0.5750
   20MOL     H9 4987   0.546   2.361   3.264 -0.7089 -0.8630  0.8434
   20MOL    H10 4988   0.646   2.508   3.304  1.3010 -1.0251  1.4996
   20MOL    H11 4989   0.465   2.351   3.499 -0.4362  0.6970  0.6299
   20MOL    H12 4990   0.553   2.504   3.528 -1.6748  2.0187  0.3977
   20MOL    H13 4991   0.415   2.502   3.429  0.7182  0.3875  0.0156
   20MOL    H14 4992   0.959   2.316   3.171  2.5177  0.6897  1.3762
   20MOL    C15 4993   0.854   2.141   3.370 -0.3068 -0.2821 -0.2613
   20MOL    C16 4994   0.743   2.057   3.439  0.1529  0.1909  0.3908
   20MOL    O17 4995   0.816   1.958   3.511  0.0370  0.4954 -0.5713
   20MOL    C18 4996   0.779   1.955   3.651 -0.0300 -0.3491  0.6390
   20MOL    C19 4997   0.858   1.848   3.725  0.2028  0.3189 -0.6068
   20MOL    H20 4998   0.925   2.178   3.444  1.8886  0.9164 -2.8592
   20MOL    H21 4999   0.909   2.082   3.297  1.0399 -1.9566  2.0213
   20MOL    H22 5000   0.688   2.116   3.513 -0.2311  2.7331 -1.8263
   20MOL    H23 5001   0.676   1.919   3.651  0.5432 -2.0508  1.8034
   20MOL    H24 5002   0.790   2.054   3.693  0.8218 -0.5344  0.8523
   20MOL    H25 5003   0.960   1.847   3.687  0.2047  3.0668 -0.8133
   20MOL    H26 5004   0.803   1.755   3.713 -0.7694  0.9975 -1.5394
   20MOL    H27 5005   0.846   1.871   3.831 -0.1742 -0.4271 -0.4895
   20MOL    C28 5006   0.648   1.993   3.336  0.6911 -0.1820 -0.7286
   20MOL    C29 5007   0.518   1.943   3.399  0.1627  0.0591  0.2174
   20MOL    O30 5008   0.445   1.897   3.284 -0.2593  0.1075  0.0335
   20MOL    C31 5009   0.464   1.760   3.244 -0.1421 -0.7687 -0.0981
   20MOL    C32 5010   0.514   1.750   3.096  0.5496 -0.7101 -0.0633
   20MOL    H33 5011   0.697   1.912   3.282  2.5142  0.0138  0.5928
   20MOL    H34 5012   0.627   2.060   3.253  1.1565 -0.1271 -0.7994
   20MOL    H35 5013   0.539   1.864   3.471  0.1610  0.4625  0.6617
   20MOL    H36 5014   0.372   1.702   3.253 -1.9845  2.0917  0.1518
   20MOL    H37 5015   0.544   1.713   3.302  1.3486  0.3340 -1.2131
   20MOL    H38 5016   0.599   1.819   3.091  0.2539 -0.3578 -0.2821
   20MOL    H39 5017   0.538   1.645   3.083 -2.6325 -1.5173  0.3865
   20MOL    H40 5018   0.421   1.782   3.049  1.1954  0.4937 -0.5641
   20MOL    C41 5019   0.439   2.061   3.462 -0.1925 -0.1325  0.2928
   20MOL    C42 5020   0.330   2.013   3.558 -0.7825  0.3197 -0.3313
   20MOL    O43 5021   0.413   1.966   3.667 -0.4277  0.4120  0.0074
   20MOL    C44 5022   0.381   2.002   3.803 -0.2758 -0.1052 -0.3240
   20MOL    C45 5023   0.458   2.125   3.849 -0.0381  0.0827 -0.6308
   20MOL    H46 5024   0.387   2.106   3.377 -1.0310 -0.5280  0.5908
   20MOL    H47 5025   0.488   2.148   3.506  0.3154  0.8121 -2.0205
   20MOL    H48 5026   0.274   2.095   3.603  0.0360  1.1266 -0.7717
   20MOL    H49 5027   0.405   1.924   3.875  0.2942  1.6356  1.4117
   20MOL    H50 5028   0.276   2.029   3.805 -0.5005 -0.8470 -1.3262
   20MOL    H51 5029   0.448   2.213   3.785  3.1857  1.6465  0.8492
   20MOL    H52 5030   0.440   2.148   3.954  0.2248 -0.0494 -0.5552
   20MOL    H53 5031   0.565   2.107   3.834 -0.1890  0.4015 -2.1840
   20MOL    C54 5032   0.221   1.909   3.519  0.1939 -0.1271  1.1725
   20MOL    C55 5033   0.140   1.928   3.393  0.3396  0.0258  0.0652
   20MOL    O56 5034   0.055   2.039   3.411  0.2911 -0.1346 -0.0119
   20MOL    C57 5035   0.084   2.158   3.339 -0.6051  0.5612  1.1338
   20MOL    C58 5036   0.004   2.274   3.392  1.4191 -0.0330  0.5087
   20MOL    H59 5037   0.152   1.891   3.601 -0.3937 -0.4284  0.6121
   20MOL    H60 5038   0.282   1.818   3.510 -0.2372 -0.3005 -0.1286
   20MOL    H61 5039   0.202   1.938   3.304 -0.2185  0.9365 -0.2321
   20MOL    H62 5040   0.082   2.153   3.230  1.3030  1.5382  1.0400
   20MOL    H63 5041   0.185   2.186   3.368  1.0238 -2.3293 -1.4473
   20MOL    H64 5042   0.016   2.367   3.337  3.5804  0.2539  1.4357
   20MOL    H65 5043   7.740   2.257   3.384  1.8121 -3.0217  1.1247
   20MOL    H66 5044   0.027   2.298   3.496 -1.3672 -1.0540  1.3960
   20MOL    C67 5045   0.044   1.811   3.373 -1.0473  0.3260 -0.4625
   20MOL    C68 5046   7.811   1.820   3.233  0.7688 -0.0496  0.1434
   20MOL    O69 5047   7.692   1.741   3.231 -0.5305  0.4133 -0.2781
   20MOL    C70 5048   7.582   1.783   3.315  0.3557  0.7205  0.5964
   20MOL    C71 5049   7.546   1.937   3.323 -0.8365 -0.3601 -0.3104
   20MOL    H72 5050   7.816   1.815   3.455 -0.1126  1.1429  0.3266
   20MOL    H73 5051   0.096   1.716   3.381  1.7216  1.8375  0.2364
   20MOL    H74 5052   7.796   1.924   3.205 -3.1496 -0.5755 -0.0244
   20MOL    H75 5053   7.610   1.743   3.412 -0.5622 -0.0004  0.5702
   20MOL    H76 5054   7.493   1.725   3.289  0.0469  1.7595 -0.7285
   20MOL    H77 5055   7.622   1.999   3.370  1.8252 -1.0158 -3.5477
   20MOL    H78 5056   7.537   1.972   3.220  0.7494 -2.7856 -1.3176
   20MOL    H79 5057   7.450   1.948   3.374 -0.7662  2.9762 -0.8302
   20MOL    C80 5058   0.060   1.765   3.116  0.0515  0.5340  0.1035
   20MOL    C81 5059   0.018   1.771   2.974  0.9568 -0.1757 -0.6996
   20MOL    O82 5060   0.099   1.695   2.885  1.2810 -0.2201 -0.1804
   20MOL    C83 5061   0.097   1.555   2.905 -0.4716 -0.1898 -0.0271
   20MOL    C84 5062   0.186   1.495   2.801  0.0342 -0.4909  0.2087
   20MOL    H85 5063   0.070   1.659   3.137  1.1416  0.8074  1.0080
   20MOL    H86 5064   0.157   1.813   3.117  0.6911 -0.7013 -1.3998
   20MOL    H87 5065   7.758   1.738   2.971  0.6292  0.8060 -0.1996
   20MOL    H88 5066   7.841   1.511   2.908 -0.9722  0.9871  0.8775
   20MOL    H89 5067   0.154   1.528   2.994  0.3628 -0.3662 -0.6189
   20MOL    H90 5068   0.189   1.387   2.812  2.2047 -0.3457  1.3987
   20MOL    H91 5069   0.153   1.521   2.701 -0.7185  0.0576  0.5959
   20MOL    H92 5070   0.286   1.536   2.819  0.1460 -1.4411  1.8174
   20MOL    C93 5071   0.036   1.915   2.926 -0.3164 -0.4544 -0.3670
   20MOL    C94 5072   7.810   1.949   2.797  0.2643 -0.3707  0.1612
   20MOL    O95 5073   0.006   2.074   2.748 -0.2460 -0.6257 -0.0625
   20MOL    C96 5074   0.127   2.085   2.674 -0.1861  0.3224 -0.1007
   20MOL    C97 5075   0.097   2.031   2.538  0.2118 -0.0492  0.1884
   20MOL    H98 5076   0.142   1.932   2.909  0.4444 -2.3167  2.1299
   20MOL    H99 5077   7.830   1.985   2.994  0.3846 -2.5617  2.4407
   20MOL   H100 5078   7.836   1.861   2.738 -0.5359 -1.8334  1.9386
   20MOL   H101 5079   0.216   2.035   2.714  0.3351  1.2020 -0.1205
   20MOL   H102 5080   0.156   2.189   2.656 -0.5102  0.4031 -0.1484
   20MOL   H103 5081   0.055   1.931   2.551 -0.6729  0.5419  2.0346
   20MOL   H104 5082   0.025   2.093   2.485 -0.6974  0.8370  2.3974
   20MOL   H105 5083   0.190   2.014   2.484  0.6198  1.0500  0.5296
   20MOL   C106 5084   7.659   1.953   2.816 -0.3341 -0.2269  0.0950
   20MOL   C107 5085   7.574   1.897   2.705 -0.2333  0.1649  0.9821
   20MOL   O108 5086   7.441   1.908   2.751 -0.5362  0.2498  0.3231
   20MOL   C109 5087   7.363   2.014   2.693 -0.1570 -0.0644  0.1983
   20MOL   C110 5088   7.217   2.009   2.756 -1.0775 -0.1361 -0.5641
   20MOL   H111 5089   7.630   2.053   2.849  1.7876  1.3078 -2.4851
   20MOL   H112 5090   7.630   1.888   2.898  0.8950  0.3282  0.9855
   20MOL   H113 5091   7.586   1.942   2.607 -0.0816 -1.4592  0.2427
   20MOL   H114 5092   7.361   1.994   2.586 -1.7417  0.5092  0.0950
   20MOL   H115 5093   7.410   2.106   2.727  0.9359 -1.0343  1.3567
   20MOL   H116 5094   7.170   2.092   2.703 -0.4134  0.8265  0.3398
   20MOL   H117 5095   7.161   1.915   2.751 -0.2790 -0.9023  3.1832
   20MOL   H118 5096   7.218   2.041   2.860 -0.0501 -1.1617 -0.2433
   20MOL   C119 5097   7.609   1.747   2.685 -1.0414  0.2437  0.4176
   20MOL   C120 5098   7.500   1.657   2.619 -0.2136  0.1814 -0.4373
   20MOL   O121 5099   7.547   1.530   2.643  0.3635 -0.0483 -0.3146
   20MOL   C122 5100   7.461   1.441   2.713  0.2027  0.3668  0.0513
   20MOL   C123 5101   7.534   1.307   2.735 -0.2317  0.3854 -0.4604
   20MOL   H124 5102   7.637   1.708   2.782 -1.4221 -1.1719 -0.0362
   20MOL   H125 5103   7.702   1.734   2.629 -0.9951  0.9391  0.3215
   20MOL   H126 5104   7.404   1.675   2.669  0.4047 -0.5954  1.0489
   20MOL   H127 5105   7.372   1.422   2.652 -1.3394 -0.5953  2.5251
   20MOL   H128 5106   7.424   1.489   2.803 -1.4084  0.5488 -0.6973
   20MOL   H129 5107   7.586   1.277   2.644  0.6925  2.5675 -0.6672
   20MOL   H130 5108   7.605   1.319   2.816 -1.7194 -1.0807  1.1133
   20MOL   H131 5109   7.463   1.228   2.758 -1.0129  0.7502 -1.5528
   20MOL   C132 5110   7.484   1.689   2.468 -0.4178  0.1999 -0.7613
   20MOL   C133 5111   7.340   1.670   2.414 -0.7406 -0.5220 -0.2284
   20MOL   O134 5112   7.351   1.699   2.273  0.1299 -0.3330 -0.5389
   20MOL   C135 5113   7.367   1.579   2.185  0.3129  0.0880 -0.3985
   20MOL   C136 5114   7.315   1.609   2.047 -0.8697  0.5012 -1.2827
   20MOL   H137 5115   7.556   1.628   2.414 -0.8688  0.2448 -1.4229
   20MOL   H138 5116   7.512   1.793   2.457  1.4984 -0.3419 -1.2126
   20MOL   H139 5117   7.316   1.567   2.438  1.0649 -0.2872  2.7576
   20MOL   H140 5118   7.304   1.501   2.227 -0.3518 -0.0901 -1.7025
   20MOL   H141 5119   7.469   1.544   2.177 -0.1763 -1.7738  1.2715
   20MOL   H142 5120   7.311   1.521   1.983  0.2039 -0.0824 -0.5521
   20MOL   H143 5121   7.218   1.659   2.051 -1.5543 -0.8213 -0.9270
   20MOL   H144 5122   7.394   1.676   2.014  1.5804 -1.1114  1.1092
   20MOL   C145 5123   7.222   1.748   2.480  0.0292  0.0341  0.0374
   20MOL   C146 5124   7.079   1.708   2.441 -0.0475 -0.0330 -0.6698
   20MOL   O147 5125   7.046   1.578   2.488  0.6332 -0.0436 -0.1633
   20MOL   C148 5126   6.933   1.572   2.577 -0.0160 -0.0409 -0.0980
   20MOL   C149 5127   6.971   1.610   2.721 -0.4207 -0.2695  0.1528
   20MOL   H150 5128   7.237   1.852   2.452 -1.1625 -0.2136 -1.6125
   20MOL   H151 5129   7.216   1.749   2.589  0.5674 -1.5137  0.0908
   20MOL   H152 5130   7.017   1.787   2.482 -0.0609  0.2396 -1.2113
   20MOL   H153 5131   6.905   1.466   2.574 -0.5885  0.0292  2.1866
   20MOL   H154 5132   6.846   1.624   2.535  0.3804  1.0479  0.4305
   20MOL   H155 5133   6.897   1.618   2.801  0.7258 -1.2645  1.3455
   20MOL   H156 5134   7.045   1.541   2.760  0.7880  0.5269 -0.6910
   20MOL   H157 5135   7.020   1.707   2.727  0.5343 -0.5838 -2.0391
   20MOL   C158 5136   7.048   1.702   2.291  0.3553  0.3539  0.1817
   20MOL   C159 5137   6.901   1.695   2.251  0.0195  0.2571  0.3041
   20MOL   O160 5138   6.884   1.701   2.114 -0.1612 -0.5697  0.5720
   20MOL   C161 5139   6.914   1.587   2.031 -0.1373 -0.5236 -0.1774
   20MOL   C162 5140   6.906   1.634   1.887 -0.1540 -0.1304  0.0550
   20MOL   H163 5141   7.087   1.608   2.252 -0.9557 -0.4291  0.6964
   20MOL   H164 5142   7.083   1.785   2.230 -1.6453  1.6686  0.7580
   20MOL   H165 5143   6.871   1.597   2.287 -1.1842  0.7851  0.7735
   20MOL   H166 5144   6.843   1.506   2.049 -0.9257  0.7830  2.9600
   20MOL   H167 5145   7.017   1.551   2.039 -0.8038 -2.3730  0.4189
   20MOL   H168 5146   6.962   1.727   1.883 -2.4841  1.3790  0.9347
   20MOL   H169 5147   6.945   1.558   1.819 -0.1301  1.5570 -1.8646
   20MOL   H170 5148   6.803   1.652   1.854 -1.9741 -2.9891  3.7479
   20MOL   C171 5149   6.814   1.811   2.304 -0.1029  0.6273  0.7027
   20MOL   C172 5150   6.670   1.813   2.253  0.9422  0.0480 -0.2382
   20MOL   O173 5151   6.604   1.929   2.301  0.5193  0.1098 -0.5139
   20MOL   C174 5152   6.538   2.006   2.200  0.0503  0.1990 -0.9110
   20MOL   C175 5153   6.428   2.102   2.254 -0.0656  0.1859 -0.0608
   20MOL   H176 5154   6.863   1.899   2.264 -1.3312  0.7317 -0.6265
   20MOL   H177 5155   6.812   1.816   2.413  1.7691 -0.9271  0.8551
   20MOL   H178 5156   6.680   1.809   2.144 -3.3580 -0.2940 -0.6927
   20MOL   H179 5157   6.497   1.939   2.124 -0.2296  0.8041 -1.3005
   20MOL   H180 5158   6.611   2.069   2.150 -0.4842 -1.9916 -4.5881
   20MOL   H181 5159   6.471   2.190   2.301  1.7010 -0.8935  0.3679
   20MOL   H182 5160   6.359   2.128   2.173 -0.1971 -0.4855 -0.1662
   20MOL   H183 5161   6.359   2.047   2.318 -2.3838  0.8643 -1.9043
   20MOL   C184 5162   6.584   1.688   2.311 -0.7521  0.0818  0.1500
   20MOL   C185 5163   6.439   1.673   2.259  0.4044 -0.6943  0.2196
   20MOL   O186 5164   6.358   1.600   2.356 -0.1592 -0.2187  0.3695
   20MOL   C187 5165   6.270   1.680   2.442 -0.2346  0.3089 -0.1276
   20MOL   C188 5166   6.187   1.587   2.535  0.0080  0.6498 -0.2008
   20MOL   H189 5167   6.575   1.699   2.419 -2.8167 -0.8659  0.1008
   20MOL   H190 5168   6.642   1.596   2.299  1.5813  1.7165 -1.4304
   20MOL   H191 5169   6.389   1.770   2.246  0.1169 -0.4504  2.8201
   20MOL   H192 5170   6.203   1.750   2.390 -1.0410  1.0086  1.8062
   20MOL   H193 5171   6.342   1.747   2.489 -1.6524  2.5239 -1.0066
   20MOL   H194 5172   6.116   1.644   2.595 -0.2955 -0.4764  0.5226
   20MOL   H195 5173   6.126   1.521   2.472 -0.9563 -1.2114  2.6167
   20MOL   H196 5174   6.238   1.527   2.610 -0.9017  2.2258  1.7247
   20MOL   C197 5175   6.439   1.601   2.122  0.5435 -0.0912  0.0050
   20MOL   C198 5176   6.300   1.592   2.057  0.1814 -0.6449 -0.1323
   20MOL   O199 5177   6.307   1.497   1.958 -0.0132  0.6920  0.2645
   20MOL   C200 5178   6.219   1.386   1.981 -0.0848 -0.7085 -0.2627
   20MOL   C201 5179   6.218   1.295   1.859 -0.4049  0.6035 -0.3384
   20MOL   H202 5180   6.477   1.503   2.152  1.9322  0.1864 -0.8460
   20MOL   H203 5181   6.518   1.640   2.058  1.1260  0.6309  1.1453
   20MOL   H204 5182   6.221   1.578   2.130  0.1106  0.2017 -0.0430
   20MOL   H205 5183   6.115   1.416   1.992 -0.5097 -1.8100 -1.2305
   20MOL   H206 5184   6.246   1.335   2.073 -0.1663  0.0922  0.2109
   20MOL   H207 5185   6.148   1.215   1.882 -0.0879  0.7467  1.2221
   20MOL   H208 5186   6.183   1.349   1.771  3.5734  3.6164 -0.2179
   20MOL   H209 5187   6.315   1.255   1.832 -1.2124 -0.9939 -0.9430
   20MOL   C210 5188   6.270   1.724   1.988  0.3053 -0.0265 -0.2028
   20MOL   C211 5189   6.123   1.738   1.934 -0.8743 -0.2916 -0.3451
   20MOL   O212 5190   6.128   1.765   1.799 -0.0011 -0.2488 -0.5255
   20MOL   C213 5191   6.152   1.656   1.715  0.0895 -0.3603  0.4163
   20MOL   C214 5192   6.185   1.702   1.573 -0.0211  0.3215  0.2162
   20MOL   H215 5193   6.342   1.736   1.907  0.7970  1.4247  0.4382
   20MOL   H216 5194   6.285   1.814   2.046 -2.6829  0.0437  0.5212
   20MOL   H217 5195   6.062   1.650   1.952  0.2678 -0.5595  2.4533
   20MOL   H218 5196   6.068   1.587   1.710 -1.3155  1.4378 -1.5492
   20MOL   H219 5197   6.232   1.594   1.755  0.6840 -0.1911 -0.4840
   20MOL   H220 5198   6.278   1.759   1.576 -0.2223  0.6078  1.0424
   20MOL   H221 5199   6.203   1.617   1.507  0.9885  1.3820 -0.9118
   20MOL   H222 5200   6.107   1.768   1.536 -0.8332 -0.2711  0.8518
   20MOL   C223 5201   6.042   1.850   2.003  0.9636  0.0303 -0.5683
   20MOL   C224 5202   5.992   1.827   2.149 -0.4337 -0.7143  0.1897
   20MOL   O225 5203   5.899   1.718   2.172  0.2311 -0.1511 -0.4423
   20MOL   C226 5204   5.939   1.617   2.261 -0.1360 -0.1692  0.8454
   20MOL   C227 5205   5.817   1.518   2.262 -0.5244 -0.3033  0.4253
   20MOL   H228 5206   5.955   1.875   1.943  0.4739 -1.1510 -0.3651
   20MOL   H229 5207   6.110   1.935   2.010 -0.0519  0.8642 -0.7554
   20MOL   H230 5208   6.084   1.805   2.203 -0.7011 -1.0223  0.5182
   20MOL   H231 5209   5.973   1.649   2.359  0.6265 -0.1568  0.5812
   20MOL   H232 5210   6.037   1.580   2.229 -1.1124 -2.4550  0.4059
   20MOL   H233 5211   5.722   1.555   2.299  0.3143 -0.9020  3.3198
   20MOL   H234 5212   5.803   1.485   2.159  0.7455  0.7305 -0.1011
   20MOL   H235 5213   5.839   1.430   2.322  1.1875 -1.1347 -1.3493
   20MOL   C236 5214   5.920   1.948   2.214  0.1881  0.3641 -0.5864
   20MOL   C237 5215   5.938   1.964   2.366 -0.3068  0.0919  0.3045
   20MOL   O238 5216   5.856   2.075   2.403  0.3656  0.1423  0.0271
   20MOL   C239 5217   5.754   2.039   2.502 -0.2635 -0.1645 -0.6868
   20MOL   C240 5218   5.693   2.163   2.559 -0.0328  0.1648 -0.0724
   20MOL   H241 5219   5.812   1.941   2.197 -0.0672 -1.0788  1.5458
   20MOL   H242 5220   5.944   2.041   2.162  1.5206  0.4173  0.1042
   20MOL   H243 5221   5.892   1.875   2.410 -1.3325  0.2710 -0.3895
   20MOL   H244 5222   5.808   1.994   2.585 -0.0175  2.9308  0.9199
   20MOL   H245 5223   5.680   1.971   2.461  0.4250 -1.2340 -0.1763
   20MOL   H246 5224   5.616   2.202   2.492 -1.5106 -0.5557  1.1573
   20MOL   H247 5225   5.645   2.125   2.650  2.1444  1.3664  1.6341
   20MOL   H248 5226   5.768   2.238   2.584 -1.4130  1.2156  1.0286
   20MOL   C249 5227   6.080   2.004   2.407  0.6525  0.0351 -0.1971
   20MOL   C250 5228   6.106   2.001   2.558 -0.5677 -0.4015  0.5965
   20MOL   O251 5229   6.244   2.015   2.571  0.5282  0.1854 -0.1292
   20MOL   C252 5230   6.282   2.000   2.707 -0.1650 -0.3617 -0.2405
   20MOL   C253 5231   6.432   1.989   2.706 -0.0508  0.2159  0.2483
   20MOL   H254 5232   6.103   2.102   2.365  0.9129 -0.0265 -0.1968
   20MOL   H255 5233   6.141   1.932   2.354  0.4408 -0.8767  0.7779
   20MOL   H256 5234   6.048   2.070   2.619  0.7066 -0.3344  1.7729
   20MOL   H257 5235   6.234   1.914   2.753 -4.9658  2.2062 -0.1548
   20MOL   H258 5236   6.251   2.084   2.770 -0.5701 -0.5271 -0.2222
   20MOL   H259 5237   6.470   1.975   2.808 -0.6345 -0.4577  0.3815
   20MOL   H260 5238   6.467   1.901   2.652 -0.1955  0.8433 -0.8719
   20MOL   H261 5239   6.490   2.065   2.655  0.6366 -0.6683 -0.3129
   20MOL   H262 5240   6.076   1.907   2.604 -1.2720 -0.6698 -0.4174
   21MOL     C1 5241   3.562   1.565   5.691 -0.2734 -0.1971  0.0583
   21MOL     C2 5242   3.571   1.611   5.545 -0.1778 -0.3360  0.0493
   21MOL     O3 5243   3.553   1.490   5.472  0.1010 -0.3338 -0.1689
   21MOL     C4 5244   3.521   1.516   5.334 -0.2849  0.4041  0.4500
   21MOL     C5 5245   3.510   1.376   5.265 -0.0060 -0.5566 -0.1608
   21MOL     H6 5246   3.607   1.645   5.751 -0.9177 -0.4617  0.8884
   21MOL     H7 5247   3.459   1.545   5.718 -0.9105 -1.8923 -3.3684
   21MOL     H8 5248   3.486   1.677   5.528  2.1204  2.7603 -0.0146
   21MOL     H9 5249   3.599   1.580   5.292  1.9425 -2.6171 -0.1117
   21MOL    H10 5250   3.426   1.570   5.327 -0.1714  0.7685  1.5421
   21MOL    H11 5251   3.432   1.318   5.314  1.9241 -1.1842  2.2944
   21MOL    H12 5252   3.493   1.364   5.158  1.3016 -1.2163 -0.2989
   21MOL    H13 5253   3.601   1.323   5.291  1.0330  0.8941 -0.7898
   21MOL    H14 5254   3.623   1.475   5.697  1.3873  0.8808 -0.0056
   21MOL    C15 5255   3.714   1.668   5.514  0.5236  0.2904 -0.1324
   21MOL    C16 5256   3.712   1.820   5.555 -0.6072  0.4876  0.0989
   21MOL    O17 5257   3.646   1.875   5.445  0.7113 -0.7664 -0.2428
   21MOL    C18 5258   3.567   1.989   5.458  0.7019 -0.8862  0.5144
   21MOL    C19 5259   3.535   2.052   5.319  0.0378 -0.1132  0.0215
   21MOL    H20 5260   3.753   1.651   5.413  0.8783 -0.0143  0.0527
   21MOL    H21 5261   3.788   1.619   5.578  0.4925  0.3264 -0.0683
   21MOL    H22 5262   3.653   1.837   5.645  1.6859 -0.7854  1.9048
   21MOL    H23 5263   3.624   2.067   5.510 -0.5779  0.7505 -0.4722
   21MOL    H24 5264   3.473   1.973   5.511  0.9828 -1.0045  0.9776
   21MOL    H25 5265   3.449   2.001   5.276  0.8615 -1.6698  0.1870
   21MOL    H26 5266   3.612   2.056   5.242  1.1710  2.6237  1.2187
   21MOL    H27 5267   3.506   2.155   5.341  0.1930 -0.0806  0.0714
   21MOL    C28 5268   3.850   1.877   5.576 -0.2147  0.4689 -0.0427
   21MOL    C29 5269   3.935   1.827   5.696  0.1289 -0.2570 -0.1082
   21MOL    O30 5270   3.866   1.837   5.822  0.6829 -0.8773 -0.3687
   21MOL    C31 5271   3.876   1.723   5.910 -0.1784 -0.2054  0.1915
   21MOL    C32 5272   3.811   1.753   6.044  0.1866  0.7160  0.1250
   21MOL    H33 5273   3.827   1.981   5.600  2.6258  0.7656  1.6207
   21MOL    H34 5274   3.915   1.885   5.489 -1.2388  3.5139 -0.6067
   21MOL    H35 5275   3.960   1.728   5.659 -1.6901 -0.2619 -1.3872
   21MOL    H36 5276   3.979   1.689   5.917  0.8445  2.0519 -2.7253
   21MOL    H37 5277   3.820   1.642   5.862 -0.6020 -0.5441  1.2451
   21MOL    H38 5278   3.867   1.822   6.107  0.8530  2.4167 -2.2591
   21MOL    H39 5279   3.714   1.800   6.032 -0.2828 -0.6160 -1.4774
   21MOL    H40 5280   3.806   1.657   6.097  0.0560  0.8428  0.3471
   21MOL    C41 5281   4.067   1.905   5.718  0.3226  0.0136  0.0678
   21MOL    C42 5282   4.168   1.882   5.613  0.1074 -0.3262  0.0085
   21MOL    O43 5283   4.217   1.757   5.650 -0.6093  0.0660  0.2088
   21MOL    C44 5284   4.290   1.678   5.554  0.3846  0.0862  0.2871
   21MOL    C45 5285   4.378   1.570   5.620  0.0527  0.8923  0.1505
   21MOL    H46 5286   4.111   1.868   5.811  3.4235  2.0312 -0.5306
   21MOL    H47 5287   4.046   2.010   5.737  0.9895  0.3970 -1.2457
   21MOL    H48 5288   4.138   1.878   5.509 -1.4909  0.6028  0.4151
   21MOL    H49 5289   4.355   1.741   5.492 -1.3909  1.9074  0.2192
   21MOL    H50 5290   4.224   1.628   5.485  0.2545  0.4452  0.1477
   21MOL    H51 5291   4.327   1.490   5.673 -1.2064  1.9693  0.6118
   21MOL    H52 5292   4.433   1.518   5.542 -0.7960 -0.4318  0.4226
   21MOL    H53 5293   4.455   1.620   5.679  1.7180 -1.3768 -0.0308
   21MOL    C54 5294   4.297   1.979   5.626  0.3245 -0.2324  0.0369
   21MOL    C55 5295   4.267   2.115   5.573  0.1840 -0.1267  0.7363
   21MOL    O56 5296   4.220   2.103   5.439  0.0338  0.4610 -0.1385
   21MOL    C57 5297   4.133   2.205   5.397  0.1821 -0.2156  0.2450
   21MOL    C58 5298   3.988   2.167   5.434  0.2620  0.1514 -0.7909
   21MOL    H59 5299   4.392   1.946   5.582 -0.2636 -1.0010 -0.6722
   21MOL    H60 5300   4.314   1.989   5.733 -1.0303 -0.4646  0.2725
   21MOL    H61 5301   4.189   2.159   5.635 -0.0752 -0.9868  1.0193
   21MOL    H62 5302   4.124   2.220   5.289  0.6974 -0.7914  0.1154
   21MOL    H63 5303   4.159   2.295   5.452 -0.3689 -1.1908  2.1371
   21MOL    H64 5304   3.919   2.250   5.417  0.8636  1.0458  0.9345
   21MOL    H65 5305   3.961   2.079   5.376  0.3789 -0.9760  0.8336
   21MOL    H66 5306   3.972   2.150   5.541  3.3088  2.7895  0.1675
   21MOL    C67 5307   4.394   2.201   5.570 -0.6611 -0.5228  0.9018
   21MOL    C68 5308   4.487   2.216   5.694 -0.1667 -0.3713  0.5216
   21MOL    O69 5309   4.431   2.323   5.768 -0.6840  0.0901  0.5079
   21MOL    C70 5310   4.337   2.299   5.860 -0.0117 -0.1244 -0.4644
   21MOL    C71 5311   4.271   2.430   5.893  0.4380 -0.2025  0.5306
   21MOL    H72 5312   4.377   2.304   5.537  0.7093 -0.7301 -0.4853
   21MOL    H73 5313   4.454   2.154   5.493  0.0199  2.9310 -0.7783
   21MOL    H74 5314   4.487   2.127   5.757  1.4491 -0.2602  0.7046
   21MOL    H75 5315   4.385   2.265   5.952 -0.2787 -1.3142 -0.7444
   21MOL    H76 5316   4.259   2.225   5.841 -0.9644  1.0421 -1.1646
   21MOL    H77 5317   4.191   2.423   5.967  0.2104 -2.3786  0.1278
   21MOL    H78 5318   4.351   2.493   5.932  0.4208 -0.4021  0.8956
   21MOL    H79 5319   4.225   2.479   5.808  1.0490 -1.0473 -0.2948
   21MOL    C80 5320   4.637   2.243   5.667 -0.0039  0.0992 -0.5284
   21MOL    C81 5321   4.721   2.224   5.795  0.3140  0.6013  0.7863
   21MOL    O82 5322   4.852   2.274   5.750 -0.6412  0.2525 -0.8317
   21MOL    C83 5323   4.904   2.382   5.819 -0.8834  0.3291 -0.5084
   21MOL    C84 5324   5.053   2.416   5.801  0.5628  0.2526 -0.4511
   21MOL    H85 5325   4.657   2.347   5.641 -1.7355  1.0293  1.7489
   21MOL    H86 5326   4.675   2.174   5.591  2.2415 -0.2103  0.8302
   21MOL    H87 5327   4.681   2.290   5.872  0.0517  1.2657  0.0872
   21MOL    H88 5328   4.894   2.371   5.927 -0.4947 -0.5438 -0.5565
   21MOL    H89 5329   4.840   2.465   5.792 -1.5957 -0.4742 -1.3282
   21MOL    H90 5330   5.081   2.514   5.840 -0.0393 -1.0062  3.3864
   21MOL    H91 5331   5.112   2.352   5.867 -0.4573  0.4793  0.7059
   21MOL    H92 5332   5.085   2.398   5.698 -2.6521 -1.7374 -1.1683
   21MOL    C93 5333   4.732   2.082   5.850 -0.1854  0.6589 -0.0119
   21MOL    C94 5334   4.821   2.048   5.972  0.0695 -0.0575  0.6791
   21MOL    O95 5335   4.806   2.132   6.087  0.1088 -0.0082  0.1545
   21MOL    C96 5336   4.692   2.105   6.161  0.1189  0.0715  0.3502
   21MOL    C97 5337   4.668   2.210   6.272 -0.7536  0.2505  0.3659
   21MOL    H98 5338   4.767   2.015   5.771 -0.7988 -0.8237  0.9467
   21MOL    H99 5339   4.633   2.045   5.879 -0.4619  1.0385 -0.4688
   21MOL   H100 5340   4.791   1.948   6.003 -2.6739  0.6951  0.6131
   21MOL   H101 5341   4.702   2.003   6.198  1.4826 -0.1660 -0.6295
   21MOL   H102 5342   4.607   2.113   6.094  1.0967  1.1708 -0.7990
   21MOL   H103 5343   4.563   2.226   6.297 -1.0168 -0.6222 -0.1326
   21MOL   H104 5344   4.720   2.188   6.365  1.5234 -0.2922 -0.9770
   21MOL   H105 5345   4.703   2.308   6.240  2.1329 -1.0084 -0.5175
   21MOL   C106 5346   4.973   2.033   5.931 -0.2846  0.3475  0.1557
   21MOL   C107 5347   5.065   1.976   6.036 -0.1967 -0.0662  0.0767
   21MOL   O108 5348   5.197   1.987   5.985 -1.2491  0.4266 -0.0330
   21MOL   C109 5349   5.244   2.111   5.934 -0.1357  0.0722  0.6962
   21MOL   C110 5350   5.396   2.102   5.939 -0.5999 -0.8611  0.5957
   21MOL   H111 5351   5.012   2.134   5.920  1.1930  0.0354  2.1219
   21MOL   H112 5352   4.985   1.980   5.837  1.9835 -0.9586  1.1333
   21MOL   H113 5353   5.066   2.061   6.104  1.7806  0.6083 -0.7670
   21MOL   H114 5354   5.215   2.188   6.006  0.0404  0.9656 -0.1756
   21MOL   H115 5355   5.217   2.126   5.830 -2.9029  2.5096  1.7001
   21MOL   H116 5356   5.440   2.023   5.879  1.8532 -0.1701  1.4031
   21MOL   H117 5357   5.437   2.196   5.901 -0.5402 -0.7360  0.9663
   21MOL   H118 5358   5.432   2.098   6.042  0.5769  3.5078  0.4646
   21MOL   C119 5359   5.031   1.841   6.097  0.1204  0.5028  0.5235
   21MOL   C120 5360   5.025   1.731   5.987  0.4374  0.5159 -0.4640
   21MOL   O121 5361   4.951   1.617   6.048 -0.3277 -0.8565  0.4339
   21MOL   C122 5362   4.819   1.644   6.051  0.8364  0.7283  0.5972
   21MOL   C123 5363   4.746   1.513   6.078  0.1808  0.5228 -0.9076
   21MOL   H124 5364   4.939   1.868   6.150 -0.1506  2.4921 -0.8683
   21MOL   H125 5365   5.099   1.815   6.177  0.4396 -0.0218  0.0887
   21MOL   H126 5366   4.980   1.753   5.891 -1.5765 -0.8883  0.1198
   21MOL   H127 5367   4.786   1.699   5.963  3.3214  0.6631 -0.4030
   21MOL   H128 5368   4.794   1.711   6.133 -0.3353 -1.4188  2.0531
   21MOL   H129 5369   4.772   1.438   6.004 -0.6726  0.7685 -1.4561
   21MOL   H130 5370   4.768   1.477   6.179  0.0873 -1.5874 -1.6127
   21MOL   H131 5371   4.640   1.539   6.079 -0.3116 -1.3723  0.0970
   21MOL   C132 5372   5.172   1.672   5.971  0.1661 -0.9252 -0.0910
   21MOL   C133 5373   5.186   1.548   5.882 -0.3489 -0.4345  0.4038
   21MOL   O134 5374   5.317   1.500   5.887 -0.4269 -0.3085 -0.5307
   21MOL   C135 5375   5.343   1.390   5.977 -0.3189  0.4717  0.5354
   21MOL   C136 5376   5.486   1.358   5.965 -0.0693 -1.0136  0.0682
   21MOL   H137 5377   5.213   1.640   6.067 -0.5882 -0.8250  0.2674
   21MOL   H138 5378   5.229   1.759   5.937  1.8518 -1.5709  1.0310
   21MOL   H139 5379   5.110   1.479   5.919 -1.1495  0.6974  0.8860
   21MOL   H140 5380   5.286   1.300   5.953  2.2059 -1.2414  0.7527
   21MOL   H141 5381   5.321   1.418   6.081  0.5655  0.6622  0.6756
   21MOL   H142 5382   5.501   1.285   6.045 -1.3028  1.0587  2.2230
   21MOL   H143 5383   5.516   1.318   5.867  0.4970  1.0366 -0.6188
   21MOL   H144 5384   5.542   1.449   5.984  0.6834 -1.1604 -1.3405
   21MOL   C145 5385   5.151   1.599   5.736 -0.0733 -0.1422  0.0629
   21MOL   C146 5386   5.154   1.491   5.629  0.1246  0.1626  0.3469
   21MOL   O147 5387   5.122   1.546   5.505 -0.4171 -0.1927 -0.6059
   21MOL   C148 5388   5.232   1.574   5.418 -0.1620 -0.7927  0.1996
   21MOL   C149 5389   5.181   1.573   5.274  0.0954 -0.5827 -0.0741
   21MOL   H150 5390   5.225   1.675   5.712  0.7526 -1.3847 -1.4755
   21MOL   H151 5391   5.056   1.653   5.735 -0.8093 -1.3948 -1.7290
   21MOL   H152 5392   5.250   1.441   5.640 -0.1811 -0.0217  2.2648
   21MOL   H153 5393   5.314   1.505   5.440  0.4807 -0.2997 -0.6238
   21MOL   H154 5394   5.262   1.675   5.444  0.4523 -1.0759  0.5969
   21MOL   H155 5395   5.134   1.483   5.233 -1.2096  0.5696 -1.2043
   21MOL   H156 5396   5.101   1.647   5.263  0.8088  0.0815 -0.8667
   21MOL   H157 5397   5.262   1.604   5.208 -1.3665  0.6078 -1.3515
   21MOL   C158 5398   5.061   1.365   5.656 -0.3649  0.1903  0.1156
   21MOL   C159 5399   5.040   1.269   5.537  0.6569  0.0404 -0.2713
   21MOL   O160 5400   4.944   1.162   5.570 -0.3346  0.2102 -0.5718
   21MOL   C161 5401   4.808   1.205   5.577 -0.2162 -0.2829 -0.0805
   21MOL   C162 5402   4.712   1.093   5.547  0.2965  0.9699  0.0292
   21MOL   H163 5403   4.964   1.405   5.686  0.4181  0.7986  1.9210
   21MOL   H164 5404   5.103   1.317   5.745 -1.2241  1.0236  0.9903
   21MOL   H165 5405   5.008   1.333   5.456 -3.7267 -0.4051  0.9829
   21MOL   H166 5406   4.802   1.289   5.507  0.9212  0.8281  1.1078
   21MOL   H167 5407   4.781   1.242   5.676  3.1363  0.0217  0.7897
   21MOL   H168 5408   4.735   1.014   5.618 -0.8848  1.4153  0.9203
   21MOL   H169 5409   4.614   1.115   5.589 -0.4833 -0.9342 -0.7221
   21MOL   H170 5410   4.726   1.058   5.445  0.5359 -0.6093  0.5876
   21MOL   C171 5411   5.163   1.195   5.487 -0.4283 -0.3476  0.1983
   21MOL   C172 5412   5.138   1.097   5.374  0.6873  0.2555 -0.3789
   21MOL   O173 5413   5.264   1.027   5.350  0.0436 -0.4251  0.1452
   21MOL   C174 5414   5.268   0.887   5.348  0.1931  0.6689 -0.6955
   21MOL   C175 5415   5.414   0.836   5.349 -0.8234 -0.0740  0.3265
   21MOL   H176 5416   5.211   1.146   5.571 -2.3137  0.4576  1.7711
   21MOL   H177 5417   5.240   1.264   5.452 -0.1555  0.2912  2.0077
   21MOL   H178 5418   5.064   1.022   5.405  0.7119 -0.0737 -1.1109
   21MOL   H179 5419   5.197   0.858   5.270  0.0253 -0.1878 -0.2304
   21MOL   H180 5420   5.230   0.857   5.446  1.1642  2.4986  0.2705
   21MOL   H181 5421   5.411   0.728   5.335 -2.7247 -0.0339  0.3942
   21MOL   H182 5422   5.465   0.865   5.258  0.7925 -0.9130  0.9421
   21MOL   H183 5423   5.482   0.873   5.427 -1.0525  0.4002  0.3025
   21MOL   C184 5424   5.109   1.180   5.238  0.1646  0.0322 -0.0383
   21MOL   C185 5425   5.053   1.084   5.122 -0.7369 -0.3883 -0.8704
   21MOL   O186 5426   5.060   1.152   4.994 -0.0991  0.2667 -0.5888
   21MOL   C187 5427   5.186   1.170   4.931  0.3867 -0.0516  0.7200
   21MOL   C188 5428   5.140   1.232   4.794 -0.0325 -0.0067 -0.1644
   21MOL   H189 5429   5.199   1.234   5.211  0.5217  0.1876  1.4410
   21MOL   H190 5430   5.037   1.260   5.254  1.0075  0.4054  1.9702
   21MOL   H191 5431   5.111   0.992   5.130  0.0043  0.2300  1.5944
   21MOL   H192 5432   5.232   1.072   4.916 -0.4419 -0.6236  1.7889
   21MOL   H193 5433   5.256   1.235   4.984  0.3328  0.4826  0.1378
   21MOL   H194 5434   5.084   1.324   4.813 -1.3861 -0.5436 -1.4980
   21MOL   H195 5435   5.228   1.255   4.734  0.7413  0.3347  1.0889
   21MOL   H196 5436   5.084   1.162   4.732 -0.2002  0.9118 -1.0599
   21MOL   C197 5437   4.914   1.026   5.143 -0.1070 -0.3678 -0.0232
   21MOL   C198 5438   4.850   0.933   5.044  0.2170 -0.3142  0.2951
   21MOL   O199 5439   4.716   0.920   5.074  0.3115  0.0830 -0.8169
   21MOL   C200 5440   4.631   0.871   4.974 -1.1401  0.1430  0.3866
   21MOL   C201 5441   4.499   0.830   5.037 -0.2033 -0.0401  0.1640
   21MOL   H202 5442   4.849   1.114   5.146 -0.7675 -0.8108 -1.1879
   21MOL   H203 5443   4.912   0.979   5.242 -1.3648  0.4892  0.3738
   21MOL   H204 5444   4.863   0.977   4.945  0.7491 -1.6497 -0.2344
   21MOL   H205 5445   4.678   0.790   4.918 -0.8156  1.9289 -2.0259
   21MOL   H206 5446   4.631   0.949   4.898  1.3879 -0.6379 -0.4531
   21MOL   H207 5447   4.440   0.910   5.081  0.5134  0.7135 -0.2268
   21MOL   H208 5448   4.444   0.766   4.968  0.5120  0.0585 -0.5078
   21MOL   H209 5449   4.517   0.768   5.124 -2.3742 -0.1219  0.5670
   21MOL   C210 5450   4.910   0.782   5.051  0.8424  0.0371 -0.1404
   21MOL   C211 5451   5.031   0.765   4.956  0.7124  0.2373 -0.2600
   21MOL   O212 5452   4.975   0.750   4.825  0.0745 -0.0145 -0.8485
   21MOL   C213 5453   5.072   0.752   4.721  0.0858 -0.3062 -0.4315
   21MOL   C214 5454   4.995   0.745   4.594  0.4354 -0.0251  0.2160
   21MOL   H215 5455   4.840   0.699   5.042  0.2129  0.5222  0.2291
   21MOL   H216 5456   4.949   0.773   5.152 -1.7923  2.5245  1.1867
   21MOL   H217 5457   5.102   0.845   4.934  2.3916 -2.3004 -4.8789
   21MOL   H218 5458   5.137   0.664   4.714  1.0794  0.4208 -0.4566
   21MOL   H219 5459   5.135   0.840   4.715 -0.4290 -0.0235 -1.8251
   21MOL   H220 5460   4.972   0.643   4.564 -1.6661  1.4225 -3.5068
   21MOL   H221 5461   4.900   0.798   4.609  0.5617  0.7579 -1.5602
   21MOL   H222 5462   5.049   0.785   4.508  0.6696  0.3562  0.5410
   21MOL   C223 5463   5.117   0.641   5.003 -0.6155  1.1713  0.3117
   21MOL   C224 5464   5.054   0.502   5.015 -0.8807  0.5237 -0.6942
   21MOL   O225 5465   5.134   0.419   5.100  0.0525  0.5303 -0.2894
   21MOL   C226 5466   5.107   0.438   5.240  0.4363 -0.3941  0.3352
   21MOL   C227 5467   5.174   0.316   5.296  0.2150  0.2523 -0.6965
   21MOL   H228 5468   5.160   0.661   5.101 -0.5946 -1.0222  0.7725
   21MOL   H229 5469   5.206   0.633   4.941 -0.3122 -0.0191  0.8904
   21MOL   H230 5470   4.954   0.510   5.058 -0.3235 -1.1234  1.0075
   21MOL   H231 5471   5.000   0.435   5.260  0.0256 -0.9642 -1.8200
   21MOL   H232 5472   5.148   0.534   5.273 -0.5584  0.7755 -1.7142
   21MOL   H233 5473   5.143   0.214   5.271  3.0918 -0.7957 -0.1727
   21MOL   H234 5474   5.280   0.316   5.271  0.6081 -0.7666  0.9014
   21MOL   H235 5475   5.161   0.342   5.401  3.8522  0.7687 -0.3268
   21MOL   C236 5476   5.031   0.427   4.884  0.4106 -0.2244 -0.0614
   21MOL   C237 5477   4.943   0.299   4.899  0.8089 -0.2714 -0.4627
   21MOL   O238 5478   4.965   0.211   4.784 -0.3053 -0.0772 -0.1265
   21MOL   C239 5479   4.912   0.082   4.801 -0.0723 -0.6753 -0.3155
   21MOL   C240 5480   4.967   7.830   4.695 -0.9867  0.4826 -0.1043
   21MOL   H241 5481   5.126   0.391   4.844  0.6845  2.3087 -1.7735
   21MOL   H242 5482   4.983   0.496   4.815  1.7897 -1.6273 -2.4885
   21MOL   H243 5483   4.972   0.253   4.993  0.0175 -0.0056 -0.0801
   21MOL   H244 5484   4.804   0.083   4.807 -0.1173 -1.6068 -0.9347
   21MOL   H245 5485   4.948   0.049   4.899 -0.8780  0.7884  0.4898
   21MOL   H246 5486   4.961   7.726   4.728  0.6276  0.6553  0.7895
   21MOL   H247 5487   4.919   7.839   4.597 -0.9323 -1.0018 -0.2742
   21MOL   H248 5488   5.072   0.010   4.678 -0.3930 -1.7333  0.3860
   21MOL   C249 5489   4.792   0.338   4.907  0.7000 -0.3015 -0.3620
   21MOL   C250 5490   4.703   0.261   5.009  0.2557 -0.4379 -0.0355
   21MOL   O251 5491   4.730   0.304   5.144  0.4956 -0.2925 -0.0260
   21MOL   C252 5492   4.670   0.239   5.258 -0.2519  0.2138 -0.1947
   21MOL   C253 5493   4.535   0.313   5.266  0.1449 -0.5306  0.2600
   21MOL   H254 5494   4.754   0.342   4.805 -0.5110 -0.3868  0.0846
   21MOL   H255 5495   4.789   0.443   4.938  3.3977 -0.2991  0.0076
   21MOL   H256 5496   4.606   0.302   4.981  0.2927 -1.2809 -1.4404
   21MOL   H257 5497   4.721   0.255   5.353 -0.7250  3.4281 -0.4550
   21MOL   H258 5498   4.672   0.130   5.249 -0.0646  0.3111 -1.3990
   21MOL   H259 5499   4.466   0.244   5.314 -2.0286  1.0061 -0.6117
   21MOL   H260 5500   4.545   0.401   5.329  2.3089 -0.5340 -0.0245
   21MOL   H261 5501   4.500   0.343   5.167  0.5738  0.9602  0.5488
   21MOL   H262 5502   4.701   0.153   4.999  2.1756 -0.7058  2.1244
   22MOL     C1 5503   4.978   7.231   7.230  0.1072  0.2148  0.1411
   22MOL     C2 5504   4.965   7.262   7.083 -0.5398  0.3938 -0.2499
   22MOL     O3 5505   5.057   7.375   7.060  0.0888 -0.0445 -0.1723
   22MOL     C4 5506   5.096   7.398   6.918  0.4834  0.6865 -0.3686
   22MOL     C5 5507   5.191   7.526   6.914  0.1645  0.9620 -0.1568
   22MOL     H6 5508   4.934   7.135   7.258 -0.1309  0.4419  0.5569
   22MOL     H7 5509   5.077   7.240   7.276  0.2495 -2.9063  0.5305
   22MOL     H8 5510   4.998   7.174   7.027  1.7454 -0.8341  2.9063
   22MOL     H9 5511   5.005   7.416   6.862 -0.0610 -0.9038 -0.0302
   22MOL    H10 5512   5.138   7.300   6.896  1.8317  0.8149  1.4834
   22MOL    H11 5513   5.144   7.620   6.944 -1.2498 -0.2727  1.5364
   22MOL    H12 5514   5.277   7.507   6.978  0.4122  3.6771  0.3914
   22MOL    H13 5515   5.232   7.538   6.813  0.4629 -0.4165 -0.2067
   22MOL    H14 5516   4.912   7.304   7.276 -1.6627 -0.8385 -0.7120
   22MOL    C15 5517   4.824   7.284   7.030 -1.1153  0.0663 -0.2569
   22MOL    C16 5518   4.742   7.159   7.045 -0.4234  0.3402  0.5425
   22MOL    O17 5519   4.794   7.067   6.947 -0.1731 -0.3657 -0.2633
   22MOL    C18 5520   4.764   6.925   6.977  0.6689  0.0357  0.2135
   22MOL    C19 5521   4.889   6.872   7.050 -0.3501  0.3912 -0.1536
   22MOL    H20 5522   4.825   7.320   6.927 -1.7937  3.1264  0.7795
   22MOL    H21 5523   4.785   7.370   7.084  0.7216  1.2714 -0.8018
   22MOL    H22 5524   4.758   7.111   7.141  1.9905 -1.2179 -0.5777
   22MOL    H23 5525   4.752   6.870   6.884 -0.3416  1.1569 -0.3443
   22MOL    H24 5526   4.681   6.899   7.042 -0.7783 -2.7307 -2.6261
   22MOL    H25 5527   4.876   6.783   7.112  0.0660  1.6267  1.7347
   22MOL    H26 5528   4.929   6.960   7.100  0.3845 -0.3675  0.5957
   22MOL    H27 5529   4.960   6.866   6.967  0.2641  0.1680  0.3856
   22MOL    C28 5530   4.588   7.192   7.015 -0.7361  0.1752 -0.3832
   22MOL    C29 5531   4.521   7.255   7.139 -0.1433  0.3133 -0.0719
   22MOL    O30 5532   4.515   7.151   7.234 -0.5367 -0.7876 -0.2448
   22MOL    C31 5533   4.535   7.201   7.369  0.1174  0.3982 -0.0481
   22MOL    C32 5534   4.573   7.072   7.435  0.3327 -0.3686 -0.3048
   22MOL    H33 5535   4.530   7.104   6.987 -0.2975  0.0269 -0.8195
   22MOL    H34 5536   4.591   7.255   6.927 -0.4215  0.0615 -0.4508
   22MOL    H35 5537   4.575   7.338   7.184  2.2378 -1.3502  0.2377
   22MOL    H36 5538   4.446   7.235   7.422  0.4260 -0.0420  0.7649
   22MOL    H37 5539   4.610   7.279   7.381 -0.3654  1.2784 -2.4648
   22MOL    H38 5540   4.584   7.094   7.541 -2.0773 -1.1711  0.1537
   22MOL    H39 5541   4.498   6.996   7.411  1.1172 -1.0671 -0.5815
   22MOL    H40 5542   4.666   7.031   7.396 -0.0955 -2.2152  0.5346
   22MOL    C41 5543   4.374   7.287   7.117 -0.0244 -0.3370 -0.4498
   22MOL    C42 5544   4.342   7.408   7.033  0.6488  0.8988 -0.9234
   22MOL    O43 5545   4.382   7.523   7.104 -0.3401  0.3906  0.0439
   22MOL    C44 5546   4.444   7.626   7.032 -0.6771 -0.0375  0.2335
   22MOL    C45 5547   4.586   7.581   6.999 -0.6284  0.4053 -0.5943
   22MOL    H46 5548   4.333   7.305   7.217 -0.1221  2.1919 -0.9135
   22MOL    H47 5549   4.322   7.196   7.086 -1.3170  0.0805  0.4550
   22MOL    H48 5550   4.400   7.388   6.942 -2.6592 -1.0501 -2.7029
   22MOL    H49 5551   4.455   7.714   7.095  1.0171 -0.8973  1.1735
   22MOL    H50 5552   4.380   7.666   6.953 -2.0699 -1.1177  0.8132
   22MOL    H51 5553   4.634   7.653   6.934  0.7694 -0.0855 -0.1308
   22MOL    H52 5554   4.646   7.574   7.090 -2.1530  0.3703  0.4277
   22MOL    H53 5555   4.584   7.486   6.945  0.1640 -0.2426  0.4657
   22MOL    C54 5556   4.192   7.436   7.004 -0.0515  1.0040  0.3120
   22MOL    C55 5557   4.119   7.317   6.940 -0.2833  0.0703 -0.3442
   22MOL    O56 5558   4.165   7.317   6.804 -0.4120  0.0704  0.4914
   22MOL    C57 5559   4.163   7.188   6.738 -1.0849 -0.3398 -0.2954
   22MOL    C58 5560   4.281   7.099   6.783  0.2315  0.0971  0.0984
   22MOL    H59 5561   4.184   7.528   6.947 -2.9597  1.3711  1.2329
   22MOL    H60 5562   4.144   7.461   7.099 -0.2336  3.4275 -0.3930
   22MOL    H61 5563   4.131   7.217   6.982 -2.1216 -0.3369 -0.7521
   22MOL    H62 5564   4.169   7.202   6.630 -0.3394 -0.0860 -0.2213
   22MOL    H63 5565   4.077   7.127   6.767 -0.4876 -1.1840 -0.2943
   22MOL    H64 5566   4.263   7.067   6.886  1.5477  1.0274  0.6206
   22MOL    H65 5567   4.295   7.013   6.718 -0.1605 -0.0941  0.2600
   22MOL    H66 5568   4.377   7.149   6.782 -0.0575  0.7335 -4.2910
   22MOL    C67 5569   3.967   7.348   6.931  0.2779  0.0861 -0.0666
   22MOL    C68 5570   3.882   7.254   7.014 -0.4763 -0.0237 -0.7894
   22MOL    O69 5571   3.744   7.287   6.994 -0.0486 -0.1987  0.6063
   22MOL    C70 5572   3.682   7.237   6.876 -0.6765  0.6706  0.4587
   22MOL    C71 5573   3.551   7.171   6.891  0.0206  0.1350 -0.0039
   22MOL    H72 5574   3.921   7.330   6.833  0.7479  1.2851 -0.5192
   22MOL    H73 5575   3.947   7.452   6.957 -2.9764 -0.2118 -1.0961
   22MOL    H74 5576   3.890   7.152   6.979  0.9833 -0.1362 -0.1339
   22MOL    H75 5577   3.749   7.167   6.825 -0.8750  1.8127 -1.4103
   22MOL    H76 5578   3.658   7.311   6.800 -1.5446 -0.0188  0.0588
   22MOL    H77 5579   3.559   7.121   6.988 -0.6369  2.4221  1.2547
   22MOL    H78 5580   3.474   7.245   6.911  0.3280  0.6210 -0.6092
   22MOL    H79 5581   3.531   7.100   6.810 -0.1688  0.2516 -0.0590
   22MOL    C80 5582   3.909   7.260   7.169 -0.6181  0.2492  0.1134
   22MOL    C81 5583   3.850   7.136   7.249  0.1245  0.5258  0.7851
   22MOL    O82 5584   3.913   7.118   7.380  0.0732  0.2397 -0.5719
   22MOL    C83 5585   3.918   7.232   7.468  0.1747 -0.2088 -0.5246
   22MOL    C84 5586   3.971   7.197   7.603  0.4885  0.0550  0.3002
   22MOL    H85 5587   3.892   7.357   7.218 -1.0673 -0.6397  1.7668
   22MOL    H86 5588   4.016   7.248   7.179 -0.6382 -0.0363 -0.0364
   22MOL    H87 5589   3.746   7.162   7.271 -0.7106 -0.3393 -1.9706
   22MOL    H88 5590   3.817   7.271   7.474 -0.0031 -0.6197 -0.8540
   22MOL    H89 5591   3.982   7.312   7.432 -1.8720  1.4718 -0.5135
   22MOL    H90 5592   3.979   7.283   7.669  2.3953  2.5559 -3.0670
   22MOL    H91 5593   3.908   7.121   7.651  1.5456  0.2567  2.0686
   22MOL    H92 5594   4.063   7.139   7.594 -0.2612 -0.9354 -1.0670
   22MOL    C93 5595   3.842   6.997   7.182  0.1777  0.7460  0.4740
   22MOL    C94 5596   3.820   6.871   7.273  0.2573 -0.4429 -0.0095
   22MOL    O95 5597   3.803   6.752   7.201  0.0539 -0.1105 -0.0366
   22MOL    C96 5598   3.929   6.690   7.171 -0.0041  0.1660 -0.0969
   22MOL    C97 5599   3.922   6.556   7.087 -0.2118 -0.4565  0.0124
   22MOL    H98 5600   3.932   6.995   7.119 -1.9881 -0.5138 -2.6798
   22MOL    H99 5601   3.760   6.986   7.111  0.1377 -1.6124  0.8670
   22MOL   H100 5602   3.903   6.860   7.342 -0.0747 -0.7411  0.3429
   22MOL   H101 5603   3.985   6.675   7.263 -0.3944 -1.6443 -0.1339
   22MOL   H102 5604   3.991   6.764   7.121  0.2569  0.6213  0.8834
   22MOL   H103 5605   4.020   6.526   7.050  0.3860 -0.8493  1.8421
   22MOL   H104 5606   3.880   6.479   7.152 -0.2695 -1.5989 -1.3430
   22MOL   H105 5607   3.852   6.564   7.004 -1.7866 -1.0402  1.2498
   22MOL   C106 5608   3.697   6.876   7.363 -0.7703 -0.5513  0.2839
   22MOL   C107 5609   3.689   6.760   7.470  0.5912 -0.1529  0.7565
   22MOL   O108 5610   3.561   6.760   7.518  0.1168 -0.6255  0.3906
   22MOL   C109 5611   3.468   6.675   7.453 -0.2021 -0.5299 -0.3599
   22MOL   C110 5612   3.340   6.686   7.535 -0.1406 -0.1106  0.0072
   22MOL   H111 5613   3.608   6.888   7.302 -1.8974  0.3443  2.0825
   22MOL   H112 5614   3.706   6.974   7.409  0.5941  0.4601 -2.0433
   22MOL   H113 5615   3.716   6.661   7.434 -1.7475  0.3430 -2.6338
   22MOL   H114 5616   3.512   6.575   7.453  1.1386  0.0186  2.2176
   22MOL   H115 5617   3.456   6.701   7.348  1.2080  0.0687 -0.3831
   22MOL   H116 5618   3.308   6.790   7.534  0.1133 -0.0431 -2.3285
   22MOL   H117 5619   3.252   6.630   7.502 -0.2746 -1.1248  1.9984
   22MOL   H118 5620   3.366   6.662   7.639  0.0116 -2.0490 -0.4507
   22MOL   C119 5621   3.791   6.784   7.583  0.6194  0.0568 -0.1612
   22MOL   C120 5622   3.824   6.660   7.662  0.6743 -0.3791  0.4510
   22MOL   O121 5623   3.829   6.695   7.795  0.2513  0.6732  0.0975
   22MOL   C122 5624   3.703   6.697   0.028 -0.4106 -0.2128 -0.4038
   22MOL   C123 5625   3.733   6.695   0.179  0.6279  0.1204  0.6955
   22MOL   H124 5626   3.751   6.862   7.648 -0.7634  0.3444 -1.3501
   22MOL   H125 5627   3.886   6.814   7.538 -0.2294  0.5267 -1.6654
   22MOL   H126 5628   3.742   6.590   7.646 -1.2102  1.9050 -0.2283
   22MOL   H127 5629   3.624   6.633   7.834 -2.1531  0.3241  2.2246
   22MOL   H128 5630   3.669   6.799   0.009 -0.9624 -0.0951  1.1804
   22MOL   H129 5631   3.780   6.598   0.197 -0.8901 -0.6393  0.6305
   22MOL   H130 5632   3.799   6.776   0.210 -1.1746  1.6515  0.6337
   22MOL   H131 5633   3.651   6.706   0.251  1.1117  2.5971  0.8890
   22MOL   C132 5634   3.955   6.588   7.624  1.1281 -0.5831  0.1044
   22MOL   C133 5635   4.001   6.465   7.703 -0.1780  0.0309  0.4764
   22MOL   O134 5636   4.119   6.435   7.635  0.1231  0.0510  0.6320
   22MOL   C135 5637   4.221   6.393   7.722  0.5695 -0.3075 -0.5143
   22MOL   C136 5638   4.343   6.342   7.651 -0.4519 -0.0659  0.9133
   22MOL   H137 5639   4.040   6.656   7.631  0.5638  0.2033 -0.6288
   22MOL   H138 5640   3.946   6.552   7.521  2.8169  1.4686 -0.7774
   22MOL   H139 5641   4.026   6.501   7.802  1.0385 -0.7383  0.4593
   22MOL   H140 5642   4.182   6.304   7.772 -1.2045  1.1112  0.7173
   22MOL   H141 5643   4.242   6.466   7.800 -0.4026 -0.8882  0.3047
   22MOL   H142 5644   4.374   6.434   7.602  0.0189 -0.4750  0.4364
   22MOL   H143 5645   4.424   6.304   7.713 -0.4158  0.3393  1.1111
   22MOL   H144 5646   4.313   6.263   7.582  0.4004 -0.2798  0.7764
   22MOL   C145 5647   3.916   6.341   7.698  0.1718 -0.1372  0.2543
   22MOL   C146 5648   3.811   6.332   7.805 -0.5369 -0.4032  0.0446
   22MOL   O147 5649   3.878   6.312   0.087 -0.0144 -0.0806  0.3680
   22MOL   C148 5650   3.948   6.199   0.124  0.2510 -0.5697 -0.5292
   22MOL   C149 5651   4.014   6.204   0.264  0.0602 -0.6585  0.8821
   22MOL   H150 5652   3.980   6.253   7.696 -2.5311 -2.1509 -0.6663
   22MOL   H151 5653   3.872   6.348   7.598 -0.0974 -0.5075  0.3447
   22MOL   H152 5654   3.752   6.424   7.815  0.1507 -0.0181  0.6065
   22MOL   H153 5655   4.022   6.170   0.049  1.5924  0.2308  0.4591
   22MOL   H154 5656   3.873   6.120   0.118 -0.1993 -0.1029 -1.1409
   22MOL   H155 5657   4.055   6.105   0.285  2.7019  0.3551  0.6257
   22MOL   H156 5658   4.076   6.289   0.290 -0.7445  0.3923 -0.5041
   22MOL   H157 5659   3.934   6.194   0.338 -0.0902  0.7762  0.9157
   22MOL   C158 5660   3.712   6.218   7.788 -0.0082  0.0443 -0.2546
   22MOL   C159 5661   3.618   6.239   7.669 -0.4903  0.4527 -0.1575
   22MOL   O160 5662   3.483   6.251   7.711 -0.0746  0.4163  0.2190
   22MOL   C161 5663   3.439   6.373   7.765  0.0718  0.1324 -0.4250
   22MOL   C162 5664   3.292   6.353   7.804 -0.3182 -0.1928 -0.0766
   22MOL   H163 5665   3.654   6.223   0.036  0.2533  3.8930 -0.2184
   22MOL   H164 5666   3.763   6.123   7.772  1.8384  0.5389  2.2456
   22MOL   H165 5667   3.641   6.338   7.628 -0.6320  0.6176  0.1513
   22MOL   H166 5668   3.441   6.448   7.686 -1.0281  0.8677  0.2239
   22MOL   H167 5669   3.498   6.407   0.007 -1.5810  2.7087 -0.2292
   22MOL   H168 5670   3.258   6.425   0.035  0.8681  0.1472  0.1426
   22MOL   H169 5671   3.220   6.355   7.722 -0.0015  3.6800 -0.3551
   22MOL   H170 5672   3.269   6.267   0.024 -0.6798 -0.7602 -0.9685
   22MOL   C171 5673   3.655   6.129   7.568  0.5973  0.4003 -0.7207
   22MOL   C172 5674   3.601   6.152   7.419  0.5841  0.1276 -0.7062
   22MOL   O173 5675   3.606   6.020   7.356 -0.5759  0.2733  0.0092
   22MOL   C174 5676   3.480   5.963   7.330  0.2786 -0.2130 -0.0773
   22MOL   C175 5677   3.488   5.874   7.204  0.0689  0.4006  0.1405
   22MOL   H176 5678   3.630   6.033   7.612  1.8884 -0.2694 -1.4117
   22MOL   H177 5679   3.763   6.137   7.554  0.4075  1.0112 -1.9831
   22MOL   H178 5680   3.499   6.190   7.424 -0.5291 -2.9414  0.7170
   22MOL   H179 5681   3.402   6.036   7.308 -0.1460 -0.4246  0.7031
   22MOL   H180 5682   3.455   5.903   7.418  1.3494  0.4133  0.6709
   22MOL   H181 5683   3.392   5.824   7.187  0.1229 -0.4862  2.2846
   22MOL   H182 5684   3.512   5.927   7.112 -0.4232  0.8641  0.2817
   22MOL   H183 5685   3.563   5.795   7.204 -1.2588 -0.8803  0.6538
   22MOL   C184 5686   3.692   6.244   7.330  0.1358  0.2811 -0.3484
   22MOL   C185 5687   3.631   6.283   7.197 -0.1120  0.1381 -0.4395
   22MOL   O186 5688   3.730   6.305   7.096 -0.4170  0.3776  0.4204
   22MOL   C187 5689   3.779   6.194   7.013 -0.0036 -0.1284 -1.4189
   22MOL   C188 5690   3.934   6.211   6.995 -0.1887 -0.0177  0.7061
   22MOL   H189 5691   3.782   6.183   7.319  1.3715  1.9470  0.3718
   22MOL   H190 5692   3.724   6.332   7.386 -1.5013  1.2234 -0.8712
   22MOL   H191 5693   3.562   6.203   7.167  0.4365 -0.9492  1.1246
   22MOL   H192 5694   3.724   6.187   6.920 -0.8894 -1.3539 -0.8028
   22MOL   H193 5695   3.761   6.101   7.067 -0.5717  0.2772 -0.9049
   22MOL   H194 5696   3.993   6.186   7.082  0.0538 -0.2608  0.4699
   22MOL   H195 5697   3.971   6.148   6.915 -1.1069 -1.3649  1.3355
   22MOL   H196 5698   3.964   6.312   6.964  0.0634  0.5264  2.6697
   22MOL   C197 5699   3.552   6.417   7.210  0.0103 -0.4469 -0.0726
   22MOL   C198 5700   3.458   6.433   7.085  0.1517 -0.1402 -0.3398
   22MOL   O199 5701   3.421   6.575   7.075  0.0481 -0.3943 -0.0904
   22MOL   C200 5702   3.507   6.650   6.992  0.0641 -0.5136  0.8011
   22MOL   C201 5703   3.471   6.797   6.982  0.5987  0.3353  0.0516
   22MOL   H202 5704   3.627   6.495   7.218  0.9322 -1.2838 -0.5485
   22MOL   H203 5705   3.488   6.417   7.298 -1.2377  2.6511 -0.8820
   22MOL   H204 5706   3.519   6.413   6.998  1.0088 -2.5312  0.7733
   22MOL   H205 5707   3.518   6.616   6.889  1.7205  2.7203 -0.1724
   22MOL   H206 5708   3.609   6.646   7.028 -0.7675 -1.6364  3.1131
   22MOL   H207 5709   3.367   6.809   6.953  0.5041  2.8862  1.2760
   22MOL   H208 5710   3.474   6.842   7.082  1.2135 -2.7543  1.4798
   22MOL   H209 5711   3.530   6.851   6.908 -0.9390  1.3200 -0.4703
   22MOL   C210 5712   3.339   6.333   7.066 -0.1181 -0.1143 -0.4638
   22MOL   C211 5713   3.264   6.354   6.931 -0.1919  0.0221 -0.7297
   22MOL   O212 5714   3.138   6.292   6.935  0.2387 -0.2344 -0.0860
   22MOL   C213 5715   3.028   6.387   6.944 -0.1149  0.1570  0.1917
   22MOL   C214 5716   2.899   6.308   6.977 -0.2106  1.0758 -0.6850
   22MOL   H215 5717   3.269   6.366   7.143 -0.5048 -0.7045 -0.5654
   22MOL   H216 5718   3.368   6.229   7.074 -1.1296 -0.2644  1.2894
   22MOL   H217 5719   3.251   6.461   6.917  0.4963  0.3849  1.2413
   22MOL   H218 5720   3.021   6.458   6.862 -3.4708  1.2667  1.3447
   22MOL   H219 5721   3.060   6.438   7.035  1.0735  0.5301 -0.4239
   22MOL   H220 5722   2.914   6.241   7.062  1.5005  0.9974 -1.0335
   22MOL   H221 5723   2.813   6.372   6.995 -0.1526  0.7999  0.6762
   22MOL   H222 5724   2.870   6.244   6.894  0.7367 -0.9680  0.5224
   22MOL   C223 5725   3.340   6.301   6.814  0.1613 -0.1277 -0.6408
   22MOL   C224 5726   3.289   6.348   6.666 -0.1686  0.0762  0.3481
   22MOL   O225 5727   3.350   6.288   6.556  0.6693 -0.3520 -0.4828
   22MOL   C226 5728   3.308   6.162   6.522  0.1561  0.1274  0.0203
   22MOL   C227 5729   3.430   6.083   6.474 -0.0562  0.1956  0.3372
   22MOL   H228 5730   3.337   6.192   6.825  3.1722 -0.1726  0.2412
   22MOL   H229 5731   3.448   6.307   6.830 -0.1772  0.5022  1.5221
   22MOL   H230 5732   3.180   6.345   6.661 -0.1070  0.5548 -1.6866
   22MOL   H231 5733   3.235   6.167   6.441  0.5729  0.4334 -0.3404
   22MOL   H232 5734   3.274   6.112   6.613 -0.0354 -0.5216 -0.4027
   22MOL   H233 5735   3.400   5.981   6.450 -0.0660  0.8471 -2.6536
   22MOL   H234 5736   3.473   6.120   6.381  0.1929  1.7395  1.0363
   22MOL   H235 5737   3.505   6.073   6.552 -0.7020  0.1046  0.9596
   22MOL   C236 5738   3.317   6.497   6.647  0.4635 -0.8629 -0.9488
   22MOL   C237 5739   3.292   6.556   6.508 -0.0933  0.5446  0.4223
   22MOL   O238 5740   3.330   6.697   6.508 -0.1031  0.9812  0.0813
   22MOL   C239 5741   3.467   6.733   6.542 -0.0270  0.2265  0.5285
   22MOL   C240 5742   3.478   6.874   6.488 -0.3637  0.7819  0.5058
   22MOL   H241 5743   3.414   6.524   6.688 -0.6134  0.5335  0.7705
   22MOL   H242 5744   3.261   6.559   6.717  2.8392  0.2907 -0.0011
   22MOL   H243 5745   3.350   6.505   6.431  1.1186  2.0257  0.3236
   22MOL   H244 5746   3.542   6.677   6.488 -1.1627  0.9425 -1.8718
   22MOL   H245 5747   3.497   6.729   6.647  0.6731  1.6197  0.3872
   22MOL   H246 5748   3.442   6.873   6.384  2.7399  1.1073 -0.6179
   22MOL   H247 5749   3.421   6.948   6.545  1.0234  0.4916  2.2865
   22MOL   H248 5750   3.579   6.914   6.499 -0.0994  0.7238 -1.4159
   22MOL   C249 5751   3.142   6.551   6.454 -0.3292  0.1377 -0.4324
   22MOL   C250 5752   3.121   6.575   6.303  0.1857  0.5299  0.2459
   22MOL   O251 5753   2.978   6.563   6.275 -0.8503  0.1228  0.0948
   22MOL   C252 5754   2.946   6.577   6.139 -0.1446 -0.5248 -0.3924
   22MOL   C253 5755   2.933   6.717   6.081  0.3121 -0.1655  0.4434
   22MOL   H254 5756   3.080   6.625   6.505 -1.2726 -1.3598  0.6146
   22MOL   H255 5757   3.097   6.455   6.477 -0.1859  0.1639 -0.0425
   22MOL   H256 5758   3.162   6.670   6.269  1.4470  0.0118  0.2751
   22MOL   H257 5759   2.848   6.530   6.132  0.0043 -0.9523  0.4377
   22MOL   H258 5760   3.016   6.517   6.080  1.5745 -0.6992  1.7761
   22MOL   H259 5761   3.029   6.766   6.088 -1.5365  3.6534  0.1908
   22MOL   H260 5762   2.902   6.719   5.977 -0.6074  2.4041  0.7338
   22MOL   H261 5763   2.863   6.780   6.136  0.2847  0.0207  0.1941
   22MOL   H262 5764   3.172   6.491   6.256 -0.6294 -0.0261  0.3339
   23MOL     C1 5765   1.272   3.224   1.419 -0.9649  0.2274  0.5865
   23MOL     C2 5766   1.350   3.244   1.287 -0.0540  0.0112 -0.8938
   23MOL     O3 5767   1.424   3.130   1.255  0.1382 -0.2545 -0.1882
   23MOL     C4 5768   1.363   3.058   1.151 -0.3136  0.4702  0.3769
   23MOL     C5 5769   1.438   2.935   1.107  0.2321  0.2832  0.1358
   23MOL     H6 5770   1.337   3.208   1.504 -0.7737  0.2258  0.4394
   23MOL     H7 5771   1.212   3.312   1.443 -0.3069  1.6968 -2.9384
   23MOL     H8 5772   1.276   3.266   1.210 -2.9695 -1.1499  1.4568
   23MOL     H9 5773   1.356   3.115   1.059  3.8096  0.9424  0.2717
   23MOL    H10 5774   1.263   3.033   1.189 -1.1923  0.1586 -2.0751
   23MOL    H11 5775   1.520   2.959   1.040  0.5048  0.4046  0.5058
   23MOL    H12 5776   1.475   2.859   1.175  2.0895  1.4097  0.4077
   23MOL    H13 5777   1.371   2.880   1.041  0.3961  0.5984 -0.2932
   23MOL    H14 5778   1.199   3.143   1.426 -2.2138  1.0816 -1.8705
   23MOL    C15 5779   1.448   3.361   1.283  0.2099  0.3672 -0.0934
   23MOL    C16 5780   1.490   3.404   1.143 -0.2673  0.3803 -0.3917
   23MOL    O17 5781   1.597   3.495   1.138 -0.2161 -0.1864 -0.2963
   23MOL    C18 5782   1.724   3.443   1.158  0.1568  0.4498  0.2061
   23MOL    C19 5783   1.828   3.558   1.144  0.5554  0.4097 -0.2154
   23MOL    H20 5784   1.535   3.339   1.346 -1.3709 -1.3590  1.5279
   23MOL    H21 5785   1.409   3.450   1.333  2.4067  0.3941  1.7129
   23MOL    H22 5786   1.526   3.311   1.100 -1.1580  0.2213 -0.8175
   23MOL    H23 5787   1.738   3.361   1.087 -0.6572 -2.4617  3.2930
   23MOL    H24 5788   1.731   3.394   1.255 -2.1022 -1.2236 -0.4446
   23MOL    H25 5789   1.927   3.515   1.164 -0.4202 -1.6526  0.3147
   23MOL    H26 5790   1.818   3.637   1.218  0.7491 -0.5219  0.8251
   23MOL    H27 5791   1.829   3.602   1.044 -1.9505 -2.0899 -1.4188
   23MOL    C28 5792   1.377   3.471   1.058 -0.4039  0.0326 -0.5293
   23MOL    C29 5793   1.420   3.496   0.916 -0.4367 -0.2359  0.6039
   23MOL    O30 5794   1.370   3.618   0.877 -0.2546 -0.4573  0.1366
   23MOL    C31 5795   1.469   3.721   0.869 -0.0581  0.1197 -0.3142
   23MOL    C32 5796   1.391   3.833   0.817  0.8045 -0.2022  0.0989
   23MOL    H33 5797   1.342   3.557   1.115 -0.3749 -1.6065  2.0238
   23MOL    H34 5798   1.288   3.409   1.049 -0.2987 -0.1532 -0.2918
   23MOL    H35 5799   1.529   3.498   0.910 -0.3340 -3.1664  0.9455
   23MOL    H36 5800   1.542   3.686   0.796 -1.4071  0.2163 -1.7244
   23MOL    H37 5801   1.526   3.740   0.960  0.9273 -0.7899 -0.7226
   23MOL    H38 5802   1.437   3.931   0.820  0.7664 -0.2522  2.8769
   23MOL    H39 5803   1.374   3.826   0.709  1.4845 -0.7777  0.0301
   23MOL    H40 5804   1.301   3.843   0.878  0.2551  0.3144 -0.7647
   23MOL    C41 5805   1.364   3.397   0.809  0.5395 -0.7948 -0.6165
   23MOL    C42 5806   1.419   3.410   0.665  0.3873 -0.7172  0.1779
   23MOL    O43 5807   1.363   3.323   0.574 -0.3694 -0.2418 -0.1372
   23MOL    C44 5808   1.229   3.354   0.538  0.3708 -0.0818  0.0513
   23MOL    C45 5809   1.163   3.236   0.473  0.4440 -0.3289 -0.5737
   23MOL    H46 5810   1.256   3.408   0.814  0.4723 -1.1459 -1.2455
   23MOL    H47 5811   1.380   3.294   0.842  2.0249 -0.8311 -1.4157
   23MOL    H48 5812   1.397   3.514   0.641  1.3072 -0.7911 -1.0014
   23MOL    H49 5813   1.225   3.427   0.457  0.8518  0.3732  0.4395
   23MOL    H50 5814   1.159   3.378   0.619  0.0774  0.1809 -0.2794
   23MOL    H51 5815   1.055   3.235   0.458 -0.0521 -0.6668  2.7362
   23MOL    H52 5816   1.217   3.232   0.378  2.9623  2.2291  0.6726
   23MOL    H53 5817   1.170   3.145   0.531 -1.6922  0.9957  1.8755
   23MOL    C54 5818   1.576   3.389   0.662  0.7366  0.5050 -0.2888
   23MOL    C55 5819   1.638   3.359   0.521 -0.0579  0.0294  0.4936
   23MOL    O56 5820   1.778   3.336   0.508  0.0437 -0.0121  0.1947
   23MOL    C57 5821   1.824   3.249   0.616 -0.5279 -0.2793 -0.3477
   23MOL    C58 5822   1.966   3.196   0.591 -0.6327  0.4862  0.2430
   23MOL    H59 5823   1.602   3.299   0.717  1.8855  1.5386  0.9181
   23MOL    H60 5824   1.627   3.467   0.719  0.1613 -1.3578  2.8791
   23MOL    H61 5825   1.579   3.276   0.483 -1.9571  0.5760  2.0912
   23MOL    H62 5826   1.766   3.157   0.617 -0.0658 -0.5643  0.2418
   23MOL    H63 5827   1.829   3.298   0.713  0.5007 -0.4613 -0.3085
   23MOL    H64 5828   1.960   3.152   0.491 -5.0796  0.5142  0.3656
   23MOL    H65 5829   2.044   3.272   0.587  1.9601 -2.0409  1.0302
   23MOL    H66 5830   2.006   3.114   0.650  0.2128  0.5244 -0.2677
   23MOL    C67 5831   1.621   3.482   0.430 -0.0809  0.4658 -0.9216
   23MOL    C68 5832   1.637   3.445   0.278  0.0106  0.0181  0.9050
   23MOL    O69 5833   1.684   3.547   0.197  0.1342  0.2103 -0.4095
   23MOL    C70 5834   1.820   3.577   0.200 -0.4517 -0.2493 -0.2241
   23MOL    C71 5835   1.861   3.684   0.096  0.2399 -0.0038  0.5804
   23MOL    H72 5836   1.692   3.560   0.455  1.8160 -1.7034  0.6722
   23MOL    H73 5837   1.526   3.532   0.451  0.4326  0.1650  2.2671
   23MOL    H74 5838   1.709   3.365   0.262  0.0306  0.1959  0.0981
   23MOL    H75 5839   1.881   3.489   0.184  0.1532 -0.1158  1.3184
   23MOL    H76 5840   1.845   3.605   0.302  2.1171  0.0785 -0.9095
   23MOL    H77 5841   1.942   3.746   0.135 -0.4765  0.6193  1.1035
   23MOL    H78 5842   1.889   3.650   7.840 -2.6688  0.4176 -0.4283
   23MOL    H79 5843   1.777   3.753   0.086  0.7751  0.3750 -1.5679
   23MOL    C80 5844   1.507   3.386   0.216  0.4468 -0.4562 -0.3146
   23MOL    C81 5845   1.518   3.333   0.071  0.2260 -0.6324 -0.3077
   23MOL    O82 5846   1.402   3.376   0.008 -0.3323  0.1708  0.3690
   23MOL    C83 5847   1.414   3.507   7.809 -0.8505 -0.0643 -0.0309
   23MOL    C84 5848   1.293   3.582   7.838 -0.5008  0.6642  0.8626
   23MOL    H85 5849   1.433   3.466   0.226  1.0246 -0.0162  0.4158
   23MOL    H86 5850   1.464   3.309   0.281 -1.6392 -0.1841 -1.3080
   23MOL    H87 5851   1.614   3.355   0.025 -0.8275  1.5870 -1.4827
   23MOL    H88 5852   1.440   3.504   7.703  0.7363  5.1843  0.0488
   23MOL    H89 5853   1.496   3.565   0.007 -1.2647 -0.0401  0.7695
   23MOL    H90 5854   1.291   3.616   0.098 -0.0661 -1.2813  1.5405
   23MOL    H91 5855   1.276   3.672   7.778 -0.4120 -1.4445 -2.4754
   23MOL    H92 5856   1.206   3.519   7.818  1.4107 -1.6624 -0.3723
   23MOL    C93 5857   1.506   3.179   0.057  0.0812  0.1811 -0.1201
   23MOL    C94 5858   1.626   3.101   0.118  0.3360  0.6316  0.2485
   23MOL    O95 5859   1.728   3.093   0.021  0.5170  0.7190 -0.1289
   23MOL    C96 5860   1.859   3.145   0.057  0.0024 -0.3997 -0.5453
   23MOL    C97 5861   1.964   3.146   7.785  0.2921  0.3078 -0.5734
   23MOL    H98 5862   1.493   3.154   7.795 -2.2522  1.9184 -0.3018
   23MOL    H99 5863   1.420   3.148   0.117  0.8740  2.3190  2.2290
   23MOL   H100 5864   1.651   3.154   0.210 -1.3710 -1.8775  2.2464
   23MOL   H101 5865   1.889   3.075   0.135  0.7074 -0.9287 -1.2841
   23MOL   H102 5866   1.856   3.249   0.091  0.4286 -0.1251 -1.3130
   23MOL   H103 5867   1.997   3.049   7.746 -0.6493 -0.9708  1.7353
   23MOL   H104 5868   1.932   3.201   7.696 -0.8491 -2.8639 -2.2360
   23MOL   H105 5869   2.044   3.212   7.817  0.9141 -1.0860  0.7709
   23MOL   C106 5870   1.579   2.961   0.136  0.3516  0.5565  0.1586
   23MOL   C107 5871   1.661   2.873   0.221  0.1152 -0.6581  0.1019
   23MOL   O108 5872   1.598   2.745   0.209  0.0034 -0.2058  0.6259
   23MOL   C109 5873   1.666   2.654   0.121 -0.5468  0.2248  0.8489
   23MOL   C110 5874   1.620   2.515   0.164  0.1459 -0.6084  0.5710
   23MOL   H111 5875   1.563   2.914   0.038  1.3697  2.7313 -1.0998
   23MOL   H112 5876   1.485   2.962   0.191 -1.2179 -0.3767 -2.3611
   23MOL   H113 5877   1.765   2.879   0.187  0.0072  0.5314 -0.0268
   23MOL   H114 5878   1.773   2.667   0.136 -0.0592 -1.5702 -0.8816
   23MOL   H115 5879   1.626   2.674   0.021 -1.9537  1.2645  1.6081
   23MOL   H116 5880   1.691   2.446   0.118  0.2554 -0.4516  0.5065
   23MOL   H117 5881   1.622   2.494   0.271  0.1490  1.4301  0.9903
   23MOL   H118 5882   1.520   2.504   0.122 -0.0404  0.5490  0.7031
   23MOL   C119 5883   1.656   2.907   0.370 -0.3026 -0.3334 -0.4517
   23MOL   C120 5884   1.723   2.809   0.464 -0.0028 -0.1753 -0.0477
   23MOL   O121 5885   1.685   2.852   0.597 -0.0543  0.8333 -0.3043
   23MOL   C122 5886   1.590   2.760   0.656 -0.3014  0.3825 -0.2157
   23MOL   C123 5887   1.541   2.825   0.783  0.8248 -0.4351 -0.6462
   23MOL   H124 5888   1.554   2.917   0.409  0.0816 -2.1748  1.1087
   23MOL   H125 5889   1.696   3.007   0.382  0.4135 -0.7673  0.8831
   23MOL   H126 5890   1.693   2.707   0.442 -1.1986  0.2752 -0.5539
   23MOL   H127 5891   1.642   2.668   0.683 -0.0566  0.6854  0.3480
   23MOL   H128 5892   1.515   2.741   0.579  0.0813 -0.2145 -0.4391
   23MOL   H129 5893   1.459   2.771   0.831  0.2173  1.0230 -0.0134
   23MOL   H130 5894   1.621   2.840   0.855  1.3167 -1.6864 -0.9106
   23MOL   H131 5895   1.506   2.926   0.759  0.2461 -0.4546  0.1194
   23MOL   C132 5896   1.872   2.832   0.464 -0.3521 -0.1802 -0.2640
   23MOL   C133 5897   1.955   2.710   0.504  0.6580 -0.2941 -0.1699
   23MOL   O134 5898   2.052   2.746   0.605  0.0647 -0.1324 -0.0669
   23MOL   C135 5899   1.995   2.737   0.729 -0.5138  0.5346 -0.5163
   23MOL   C136 5900   2.091   2.782   0.837 -0.6733 -0.9542 -0.7170
   23MOL   H137 5901   1.894   2.918   0.527  0.2433 -1.0428  0.7083
   23MOL   H138 5902   1.901   2.851   0.361 -2.4620 -1.3762 -1.1161
   23MOL   H139 5903   1.890   2.629   0.537 -1.5169  0.5944 -2.1603
   23MOL   H140 5904   1.948   2.639   0.743  3.1597 -1.1958  0.3268
   23MOL   H141 5905   1.907   2.800   0.737 -1.6599 -0.8206 -2.0918
   23MOL   H142 5906   2.130   2.883   0.824 -1.7798 -0.3964  0.1631
   23MOL   H143 5907   2.047   2.792   0.936  0.7343  0.4340 -0.2063
   23MOL   H144 5908   2.172   2.709   0.838 -0.3633 -0.6605 -2.5731
   23MOL   C145 5909   2.039   2.645   0.391  0.0795  0.3053 -0.2913
   23MOL   C146 5910   2.062   2.494   0.405 -0.1118  0.1053 -0.0127
   23MOL   O147 5911   2.173   2.475   0.313  0.1010  0.2008  0.8686
   23MOL   C148 5912   2.262   2.369   0.323  0.2331 -0.4348 -0.3023
   23MOL   C149 5913   2.380   2.414   0.226 -0.2892  0.4133 -0.1899
   23MOL   H150 5914   2.132   2.697   0.370  0.4076 -0.2796 -0.3053
   23MOL   H151 5915   1.991   2.656   0.294 -0.3664  3.3805  0.2226
   23MOL   H152 5916   2.087   2.466   0.507  0.5317  0.7454  0.0140
   23MOL   H153 5917   2.223   2.273   0.292  1.0123 -1.1090  0.7377
   23MOL   H154 5918   2.304   2.351   0.422 -1.5721  0.0381  0.5661
   23MOL   H155 5919   2.436   2.493   0.276  1.5738  0.4194 -2.2042
   23MOL   H156 5920   2.450   2.332   0.210 -1.4290 -0.6755  0.2867
   23MOL   H157 5921   2.351   2.449   0.127 -0.3288 -2.2129 -1.1387
   23MOL   C158 5922   1.934   2.420   0.349 -0.1619 -0.0638 -0.7351
   23MOL   C159 5923   1.923   2.273   0.392  0.2604 -0.2532 -0.1504
   23MOL   O160 5924   1.795   2.228   0.349 -0.7123 -0.4327 -0.5675
   23MOL   C161 5925   1.790   2.181   0.216 -0.7190  0.0176  0.4995
   23MOL   C162 5926   1.651   2.136   0.188  0.0011  0.6849  0.4255
   23MOL   H163 5927   1.947   2.428   0.241  1.5683 -1.5826 -0.6462
   23MOL   H164 5928   1.842   2.466   0.385 -0.8370 -3.1974  1.7968
   23MOL   H165 5929   2.007   2.218   0.349 -0.2219 -2.2497  1.3636
   23MOL   H166 5930   1.844   2.087   0.206 -0.3970  0.2794 -0.2141
   23MOL   H167 5931   1.820   2.253   0.140 -3.1908 -0.5491 -1.0703
   23MOL   H168 5932   1.586   2.214   0.229 -1.4406 -0.7168  0.8373
   23MOL   H169 5933   1.633   2.125   0.081 -0.4167 -0.0006  0.5689
   23MOL   H170 5934   1.634   2.041   0.238 -0.7604  0.0172 -1.0821
   23MOL   C171 5935   1.921   2.247   0.547 -0.5354  0.1735 -0.0118
   23MOL   C172 5936   1.892   2.100   0.591 -0.0948 -0.0229 -0.1025
   23MOL   O173 5937   1.882   2.127   0.728  0.0339  0.2651 -0.0211
   23MOL   C174 5938   1.839   2.014   0.808 -0.0682 -0.4345  0.5136
   23MOL   C175 5939   1.829   2.072   0.945  0.5308 -0.2910 -0.1718
   23MOL   H176 5940   1.865   2.319   0.606  0.9222 -1.7317  3.8854
   23MOL   H177 5941   2.026   2.265   0.567 -0.1283  0.4178 -2.2702
   23MOL   H178 5942   1.794   2.072   0.554 -0.4256 -0.0022  0.7538
   23MOL   H179 5943   1.909   1.930   0.804 -0.2024 -0.4935 -1.0079
   23MOL   H180 5944   1.741   1.979   0.773 -0.6536  2.1393 -0.5107
   23MOL   H181 5945   1.774   2.001   1.007 -0.3993 -0.4478 -1.1759
   23MOL   H182 5946   1.924   2.072   0.998  0.5124  1.5408 -0.0821
   23MOL   H183 5947   1.780   2.170   0.940  0.2928 -0.4267 -0.5440
   23MOL   C184 5948   2.001   1.997   0.550 -0.9484  0.4730 -0.2915
   23MOL   C185 5949   1.958   1.886   0.454  0.0010  0.0972  0.6253
   23MOL   O186 5950   1.863   1.807   0.519  0.2212  0.5260 -0.4236
   23MOL   C187 5951   1.737   1.795   0.459  0.1186  0.4184  0.2834
   23MOL   C188 5952   1.735   1.692   0.353  0.7372  0.4074 -0.1114
   23MOL   H189 5953   2.044   1.953   0.640 -0.0516 -0.2645 -1.0705
   23MOL   H190 5954   2.085   2.044   0.499  0.8776 -0.2898  1.9308
   23MOL   H191 5955   1.915   1.939   0.369  2.0448 -0.7728 -0.9825
   23MOL   H192 5956   1.703   1.894   0.430 -1.2928  0.4123  1.8469
   23MOL   H193 5957   1.664   1.768   0.535 -0.1738 -0.5931 -0.3362
   23MOL   H194 5958   1.791   1.724   0.266 -1.3148  2.1002 -0.8455
   23MOL   H195 5959   1.779   1.605   0.402 -1.7498  0.2554  1.9407
   23MOL   H196 5960   1.634   1.661   0.327  0.4932  0.0193  1.2642
   23MOL   C197 5961   2.067   1.789   0.399  0.2174  0.0433  0.8189
   23MOL   C198 5962   2.149   1.843   0.281 -0.6127 -0.0135  0.2274
   23MOL   O199 5963   2.069   1.900   0.176 -0.2949 -0.5225  0.2221
   23MOL   C200 5964   2.119   2.015   0.116  0.1710 -0.0366  0.1995
   23MOL   C201 5965   2.022   2.036   0.000  0.1864 -0.2708  0.8529
   23MOL   H202 5966   2.024   1.698   0.356  0.9769 -0.3931  0.9627
   23MOL   H203 5967   2.118   1.750   0.487  1.2161  1.2784  0.8004
   23MOL   H204 5968   2.207   1.926   0.323  1.1620 -0.0859 -1.9657
   23MOL   H205 5969   2.220   1.996   0.079  0.9709  1.4775  1.5495
   23MOL   H206 5970   2.120   2.095   0.190 -1.2390  0.2958 -0.1413
   23MOL   H207 5971   1.917   2.017   0.023 -0.2604  1.4775  0.2741
   23MOL   H208 5972   2.031   2.137   7.804 -1.9708 -0.7676 -1.0204
   23MOL   H209 5973   2.053   1.957   7.774  1.0424  0.9834 -0.2049
   23MOL   C210 5974   2.251   1.737   0.229 -0.3711  0.3648  0.0521
   23MOL   C211 5975   2.310   1.646   0.333 -0.4842 -0.3757  0.5318
   23MOL   O212 5976   2.387   1.741   0.411 -0.1321  0.0350  0.0628
   23MOL   C213 5977   2.431   1.699   0.536 -0.0517  0.5638  0.1137
   23MOL   C214 5978   2.477   1.814   0.624 -0.3858 -0.6868  0.4702
   23MOL   H215 5979   2.325   1.789   0.168 -0.5315  1.0277  0.4161
   23MOL   H216 5980   2.197   1.675   0.158 -0.6724  1.0897 -0.3616
   23MOL   H217 5981   2.229   1.599   0.390 -0.2385  0.9557  2.0123
   23MOL   H218 5982   2.518   1.636   0.518  1.2465  1.6255  2.4303
   23MOL   H219 5983   2.350   1.638   0.576  0.9476 -0.0220  1.2640
   23MOL   H220 5984   2.543   1.877   0.564  0.6369 -0.8888  1.3653
   23MOL   H221 5985   2.390   1.878   0.638  1.7275  2.6578 -0.8875
   23MOL   H222 5986   2.529   1.777   0.712 -0.6992  0.1956  1.0371
   23MOL   C223 5987   2.401   1.533   0.276 -0.4808 -0.0422  0.0991
   23MOL   C224 5988   2.338   1.432   0.175  0.2943  0.0598  0.1874
   23MOL   O225 5989   2.209   1.399   0.223  0.0005  0.1298  0.3041
   23MOL   C226 5990   2.116   1.344   0.134  0.0349  0.0999 -0.0826
   23MOL   C227 5991   1.979   1.340   0.200  0.3222  0.2358 -0.0622
   23MOL   H228 5992   2.437   1.476   0.361 -1.3238 -0.1205  0.4007
   23MOL   H229 5993   2.489   1.580   0.231  0.9234 -0.8822  1.9014
   23MOL   H230 5994   2.332   1.490   0.083 -0.4521  1.6726  1.2401
   23MOL   H231 5995   2.147   1.246   0.099  0.5318  0.3195 -0.2607
   23MOL   H232 5996   2.116   1.410   0.047  0.9925  0.2371  0.0192
   23MOL   H233 5997   1.903   1.295   0.137 -0.0524  0.3710  0.2872
   23MOL   H234 5998   1.985   1.297   0.300  0.2137  0.5269  0.0712
   23MOL   H235 5999   1.932   1.437   0.215 -0.8912 -0.6838  2.4406
   23MOL   C236 6000   2.416   1.302   0.157  0.0166 -0.1795  0.0378
   23MOL   C237 6001   2.560   1.319   0.105 -0.5193  0.0764  0.2023
   23MOL   O238 6002   2.554   1.348   7.811 -0.2466  0.3165 -0.3074
   23MOL   C239 6003   2.618   1.462   7.768  0.2102  0.4956 -0.6409
   23MOL   C240 6004   2.556   1.478   7.636  0.0531  0.8217  0.4863
   23MOL   H241 6005   2.363   1.235   0.089  0.1090 -0.1240 -0.0884
   23MOL   H242 6006   2.408   1.253   0.253 -2.2914  0.5522  0.2618
   23MOL   H243 6007   2.618   1.396   0.157  0.6349 -0.1144 -0.7907
   23MOL   H244 6008   2.722   1.431   7.763  0.2798  0.9364 -1.9726
   23MOL   H245 6009   2.596   1.554   7.822 -0.9517 -1.2482  1.9644
   23MOL   H246 6010   2.598   1.551   7.566  0.5658  0.8464  0.8140
   23MOL   H247 6011   2.568   1.382   7.585  1.6346  1.1412  0.2122
   23MOL   H248 6012   2.451   1.504   7.644  0.0486  1.4416 -1.3454
   23MOL   C249 6013   2.619   1.177   0.108  0.2190  0.6616  0.0570
   23MOL   C250 6014   2.766   1.183   0.068  0.1955 -0.4049 -0.1767
   23MOL   O251 6015   2.842   1.066   0.086 -0.1967 -0.0796  0.2336
   23MOL   C252 6016   2.958   1.070   0.002  0.2651 -0.8091  0.0998
   23MOL   C253 6017   3.035   0.932   7.831  1.0367 -0.0191 -0.0669
   23MOL   H254 6018   2.560   1.110   0.045  0.9518  0.4397 -0.4023
   23MOL   H255 6019   2.614   1.144   0.212  1.2045 -2.4203 -0.8245
   23MOL   H256 6020   2.766   1.220   7.809  0.9085 -0.3372 -0.1582
   23MOL   H257 6021   3.032   1.143   0.034 -1.6992  1.4614 -0.4442
   23MOL   H258 6022   2.938   1.095   7.741 -1.4840 -0.5945  0.4764
   23MOL   H259 6023   3.077   0.887   0.077 -0.1356 -1.0172  0.0021
   23MOL   H260 6024   2.979   0.852   7.782 -1.9371  0.6472  2.0645
   23MOL   H261 6025   3.122   0.950   7.768 -1.0172  2.2953 -2.3994
   23MOL   H262 6026   2.815   1.265   0.120 -0.4571 -0.8518  1.1658
   24MOL     C1 6027   5.124   3.626   3.434 -0.3819  0.0713 -0.2353
   24MOL     C2 6028   5.043   3.572   3.312  0.0659 -0.1292 -0.3453
   24MOL     O3 6029   4.915   3.637   3.293 -0.4121  0.4117  0.1001
   24MOL     C4 6030   4.914   3.740   3.197  0.8886 -0.4342  0.4184
   24MOL     C5 6031   4.766   3.780   3.184  0.2548 -0.6606  0.6174
   24MOL     H6 6032   5.160   3.727   3.412 -3.1413  1.2587  0.4870
   24MOL     H7 6033   5.051   3.628   3.515 -3.3252 -0.6603 -2.7821
   24MOL     H8 6034   5.103   3.577   3.221 -0.9898  1.5614 -0.9671
   24MOL     H9 6035   4.960   3.716   3.102  0.7763 -0.8272  0.4646
   24MOL    H10 6036   4.972   3.825   3.235 -0.3195  1.0100 -0.9088
   24MOL    H11 6037   4.717   3.720   3.107 -0.2640  1.2614 -0.5657
   24MOL    H12 6038   4.708   3.780   3.276 -0.1530  2.5975  0.3954
   24MOL    H13 6039   4.752   3.883   3.153 -2.7015 -1.1917  0.0662
   24MOL    H14 6040   5.208   3.564   3.464  0.2274  1.7577  1.7056
   24MOL    C15 6041   4.988   3.428   3.334 -0.3388 -0.5272  0.4563
   24MOL    C16 6042   5.107   3.328   3.345  0.3238  0.1493 -0.4467
   24MOL    O17 6043   5.194   3.330   3.236  0.2094 -0.1693  0.3689
   24MOL    C18 6044   5.327   3.330   3.276  0.4073 -0.6287 -0.3332
   24MOL    C19 6045   5.401   3.244   3.174  0.1284  0.1217  0.0635
   24MOL    H20 6046   4.913   3.403   3.260  0.1780  1.0296 -0.6200
   24MOL    H21 6047   4.939   3.426   3.431  0.5135 -3.7123  0.8805
   24MOL    H22 6048   5.148   3.365   3.439 -1.0067  0.7804 -0.1059
   24MOL    H23 6049   5.343   3.268   3.364  0.1821  0.1218  0.2367
   24MOL    H24 6050   5.364   3.432   3.284 -0.5456 -0.3802  1.0828
   24MOL    H25 6051   5.404   3.302   3.081 -2.3122  0.4911  0.1635
   24MOL    H26 6052   5.367   3.143   3.150  1.0922 -0.3835  0.7968
   24MOL    H27 6053   5.505   3.243   3.206  0.1412 -1.9452  0.0132
   24MOL    C28 6054   5.047   3.188   3.367 -0.8000 -0.0627  0.4930
   24MOL    C29 6055   5.022   3.136   3.509  0.1583  0.4658 -0.1109
   24MOL    O30 6056   5.156   3.147   3.572 -0.1968  0.3421 -0.1100
   24MOL    C31 6057   5.171   3.127   3.710  0.0590 -0.1301  1.1284
   24MOL    C32 6058   5.305   3.173   3.756 -0.1596 -0.4270 -0.1066
   24MOL    H33 6059   5.118   3.124   3.315 -1.8823 -0.4773 -0.4847
   24MOL    H34 6060   4.953   3.184   3.312  0.9218 -2.1825 -2.4425
   24MOL    H35 6061   4.953   3.205   3.556 -1.3090 -1.0450  0.0055
   24MOL    H36 6062   5.158   3.023   3.742 -0.8654 -0.5970 -0.6850
   24MOL    H37 6063   5.095   3.175   3.771 -1.5913  0.5137 -1.3803
   24MOL    H38 6064   5.381   3.143   3.684 -0.6547 -1.1841 -0.3149
   24MOL    H39 6065   5.313   3.281   3.762  0.6941 -0.5858  1.7904
   24MOL    H40 6066   5.325   3.137   3.857  0.6761 -1.3743 -0.6022
   24MOL    C41 6067   4.971   2.991   3.523 -0.3132 -0.3672 -0.1426
   24MOL    C42 6068   4.858   2.931   3.442 -0.2250  0.2813 -0.0845
   24MOL    O43 6069   4.735   2.985   3.492 -0.2827 -0.3891 -0.6176
   24MOL    C44 6070   4.692   3.106   3.429 -0.1980  0.8363 -0.3725
   24MOL    C45 6071   4.546   3.119   3.466  0.3924 -0.2458  0.5071
   24MOL    H46 6072   4.942   2.983   3.628  0.9822 -2.8063  0.0673
   24MOL    H47 6073   5.062   2.931   3.527  1.5176  2.3488  0.2652
   24MOL    H48 6074   4.871   2.954   3.336  0.0433 -2.5724 -0.7123
   24MOL    H49 6075   4.699   3.100   3.320  0.2849  2.0127 -0.4097
   24MOL    H50 6076   4.738   3.200   3.457 -2.0573  2.0035 -1.1939
   24MOL    H51 6077   4.514   3.216   3.428 -0.9212 -0.1839  1.7435
   24MOL    H52 6078   4.496   3.035   3.418  0.2735  0.2209 -0.1962
   24MOL    H53 6079   4.526   3.114   3.573 -1.4054  1.0897  0.2438
   24MOL    C54 6080   4.833   2.779   3.450 -0.3015 -0.3113 -0.9474
   24MOL    C55 6081   4.740   2.723   3.341  0.3425  0.0575  0.0060
   24MOL    O56 6082   4.705   2.593   3.380 -0.3997  0.0737  0.2595
   24MOL    C57 6083   4.595   2.543   3.304  0.2180 -0.0568 -0.2189
   24MOL    C58 6084   4.538   2.421   3.380 -0.0200  0.4672 -0.7558
   24MOL    H59 6085   4.796   2.761   3.551  2.0959  1.4713  0.2837
   24MOL    H60 6086   4.921   2.715   3.453  1.0362  1.5036 -0.5992
   24MOL    H61 6087   4.644   2.773   3.350 -1.1415 -2.6459 -0.4611
   24MOL    H62 6088   4.632   2.507   3.208 -0.6190 -2.0555  0.1837
   24MOL    H63 6089   4.515   2.617   3.294 -1.6928 -1.9756  0.4949
   24MOL    H64 6090   4.618   2.366   3.430 -0.6853  0.3025  0.1558
   24MOL    H65 6091   4.477   2.448   3.467  1.2264  0.0035  0.2829
   24MOL    H66 6092   4.478   2.356   3.316  0.0935 -2.1724  1.7011
   24MOL    C67 6093   4.805   2.730   3.204 -0.1431  0.1443  0.2232
   24MOL    C68 6094   4.732   2.801   3.087  0.2637  0.4682 -0.3923
   24MOL    O69 6095   4.596   2.761   3.094 -0.1785 -0.6450  0.2584
   24MOL    C70 6096   4.504   2.864   3.052 -0.2588 -0.4010  0.1936
   24MOL    C71 6097   4.361   2.806   3.073 -1.0529 -0.3484  0.2853
   24MOL    H72 6098   4.829   2.628   3.174 -0.2125  0.7636 -1.9891
   24MOL    H73 6099   4.905   2.772   3.209 -0.7869  1.6509  0.6294
   24MOL    H74 6100   4.758   2.906   3.101  3.3968  0.0518 -2.6557
   24MOL    H75 6101   4.514   2.902   2.950 -0.4655 -2.1371 -0.5036
   24MOL    H76 6102   4.527   2.943   3.124 -0.9107  0.0817 -0.1260
   24MOL    H77 6103   4.281   2.875   3.097 -1.3999 -1.0138  1.0803
   24MOL    H78 6104   4.335   2.749   2.984 -1.1927  1.1605 -0.6562
   24MOL    H79 6105   4.362   2.726   3.148 -1.9125 -0.0384  0.6355
   24MOL    C80 6106   4.789   2.776   2.945 -0.8235  0.4729 -0.5547
   24MOL    C81 6107   4.934   2.825   2.922  0.1656  0.0381  0.2707
   24MOL    O82 6108   4.948   2.959   2.970 -0.1345  0.1187 -0.3086
   24MOL    C83 6109   5.074   3.019   2.980  0.4895  0.2778  0.5816
   24MOL    C84 6110   5.079   3.173   2.975 -0.6217  0.1493 -0.4022
   24MOL    H85 6111   4.728   2.833   2.875 -0.3470  1.1910 -0.3913
   24MOL    H86 6112   4.789   2.668   2.929 -0.9877  0.3880 -0.0007
   24MOL    H87 6113   5.001   2.769   2.987  0.9325 -0.4577 -0.9281
   24MOL    H88 6114   5.132   2.993   2.892  2.4385  0.7961  1.6667
   24MOL    H89 6115   5.132   2.990   3.068 -0.4908  0.2092  1.2105
   24MOL    H90 6116   5.172   3.229   2.979 -0.5003 -0.1628  1.2853
   24MOL    H91 6117   5.034   3.197   2.878 -0.8435 -1.6593 -0.7651
   24MOL    H92 6118   5.026   3.217   3.059  1.1845 -2.4171  2.1588
   24MOL    C93 6119   4.971   2.804   2.770  0.5556 -0.3380  0.1387
   24MOL    C94 6120   5.084   2.700   2.755 -0.6474 -0.4472  0.5758
   24MOL    O95 6121   5.193   2.750   2.830 -0.3796 -0.7774 -0.0486
   24MOL    C96 6122   5.273   2.653   2.898 -0.3129  0.7670 -0.4581
   24MOL    C97 6123   5.382   2.717   2.988  0.0001 -0.4028 -0.4001
   24MOL    H98 6124   4.994   2.901   2.726 -2.4018 -0.2576 -1.3071
   24MOL    H99 6125   4.889   2.762   2.712 -1.1381 -1.7630  3.4633
   24MOL   H100 6126   5.041   2.613   2.804  2.3456 -0.9748  2.3692
   24MOL   H101 6127   5.314   2.588   2.821  0.3638  1.5327 -0.7609
   24MOL   H102 6128   5.216   2.584   2.960  0.4719  0.1654 -0.3981
   24MOL   H103 6129   5.346   2.795   3.055 -0.0486  0.7937 -1.7966
   24MOL   H104 6130   5.442   2.644   3.042 -0.0391  0.2969  0.5872
   24MOL   H105 6131   5.453   2.766   2.922 -0.3476  0.7592  0.0874
   24MOL   C106 6132   5.127   2.661   2.613 -0.5942 -0.2863  0.1320
   24MOL   C107 6133   5.202   2.764   2.530  0.3092  0.2070  0.1459
   24MOL   O108 6134   5.109   2.868   2.497  0.5663 -0.3362  0.1080
   24MOL   C109 6135   5.178   2.994   2.459  0.1088 -0.1796 -0.4222
   24MOL   C110 6136   5.084   3.116   2.468  0.1728 -0.0608 -1.3120
   24MOL   H111 6137   5.041   2.622   2.559 -0.5455  0.9356 -0.8272
   24MOL   H112 6138   5.195   2.576   2.612  0.5789  0.6318  0.8514
   24MOL   H113 6139   5.277   2.803   2.599 -0.7958 -1.9502  2.6518
   24MOL   H114 6140   5.226   2.976   2.363  2.4591  0.0160  0.6948
   24MOL   H115 6141   5.262   3.004   2.528 -0.6741  0.1969  0.4907
   24MOL   H116 6142   4.991   3.109   2.411 -0.5964  0.5039 -0.1498
   24MOL   H117 6143   5.050   3.139   2.569 -2.5696 -2.2085 -1.6720
   24MOL   H118 6144   5.133   3.208   2.438  1.7028 -1.0907 -2.0408
   24MOL   C119 6145   5.271   2.707   2.394  0.1985  0.2359  0.2423
   24MOL   C120 6146   5.392   2.614   2.411 -0.0300 -0.0565 -0.3305
   24MOL   O121 6147   5.505   2.694   2.430  0.2766 -0.5222  0.7097
   24MOL   C122 6148   5.553   2.696   2.563  0.3008 -0.5339 -0.0845
   24MOL   C123 6149   5.675   2.792   2.588  0.5672  0.2312  0.8581
   24MOL   H124 6150   5.313   2.783   2.329  0.5081 -0.8977 -0.9165
   24MOL   H125 6151   5.191   2.670   2.330  0.7996 -0.0163 -0.3754
   24MOL   H126 6152   5.399   2.548   2.496 -1.4691  0.7945  0.4656
   24MOL   H127 6153   5.582   2.594   2.588 -1.4227 -1.0688 -0.1971
   24MOL   H128 6154   5.477   2.713   2.639  0.6437 -0.5991  0.2734
   24MOL   H129 6155   5.722   2.761   2.681  1.5187 -2.9651 -0.5894
   24MOL   H130 6156   5.751   2.783   2.510  0.9292  0.1842  1.2132
   24MOL   H131 6157   5.638   2.894   2.589 -0.9579 -0.2705 -0.7630
   24MOL   C132 6158   5.430   2.523   2.296 -0.0546 -0.2900 -0.6131
   24MOL   C133 6159   5.343   2.397   2.274  0.1981 -0.4599  0.7498
   24MOL   O134 6160   5.333   2.327   2.395  0.5930  0.1783  0.0225
   24MOL   C135 6161   5.202   2.312   2.458  0.2315  0.0503  0.2277
   24MOL   C136 6162   5.220   2.243   2.597 -0.1047  0.0221 -0.8486
   24MOL   H137 6163   5.525   2.481   2.328 -0.3022  0.8159  1.6778
   24MOL   H138 6164   5.441   2.577   2.202  1.4796  0.1187 -0.2066
   24MOL   H139 6165   5.245   2.430   2.240  0.3614  0.0332  0.7568
   24MOL   H140 6166   5.148   2.244   2.392  0.4821 -0.0983  0.1700
   24MOL   H141 6167   5.140   2.401   2.465  1.6080  0.9853  0.8592
   24MOL   H142 6168   5.128   2.191   2.622 -0.6845  1.5518  0.3063
   24MOL   H143 6169   5.304   2.174   2.592 -1.4004 -1.5809 -0.6471
   24MOL   H144 6170   5.232   2.306   2.685 -0.6186  1.0152 -1.4635
   24MOL   C145 6171   5.404   2.296   2.174 -0.8072  0.0287 -0.2837
   24MOL   C146 6172   5.330   2.162   2.164 -0.0908 -0.0324 -0.6241
   24MOL   O147 6173   5.410   2.064   2.101 -0.6275  0.0905 -0.1159
   24MOL   C148 6174   5.523   2.003   2.163 -0.4726 -0.0056  0.5839
   24MOL   C149 6175   5.571   1.889   2.073  0.6761  0.2984 -0.2917
   24MOL   H150 6176   5.505   2.277   2.211 -0.4463 -1.0855 -1.8161
   24MOL   H151 6177   5.409   2.336   2.073 -3.1171 -1.7611 -1.1525
   24MOL   H152 6178   5.301   2.129   2.264 -0.3920  2.0293 -0.0240
   24MOL   H153 6179   5.485   1.976   2.261  1.8856  1.3092  1.9087
   24MOL   H154 6180   5.603   2.076   2.173  2.9291 -3.2567 -1.7121
   24MOL   H155 6181   5.486   1.871   2.007  0.4087 -2.7767  0.8267
   24MOL   H156 6182   5.647   1.931   2.006  0.1476  0.1165 -1.0057
   24MOL   H157 6183   5.593   1.794   2.121  1.5166 -0.1944 -1.5924
   24MOL   C158 6184   5.212   2.172   2.073 -0.4005  0.3065 -0.3296
   24MOL   C159 6185   5.135   2.043   2.033  0.2766  0.4057  0.6041
   24MOL   O160 6186   5.041   2.066   1.926 -0.9786  0.5844  0.0794
   24MOL   C161 6187   5.108   2.055   1.797  0.1143  0.4297 -0.2647
   24MOL   C162 6188   5.008   2.060   1.683 -0.3533  0.5032 -0.0151
   24MOL   H163 6189   5.242   2.223   1.981  3.0722  1.1705  1.2078
   24MOL   H164 6190   5.135   2.239   2.111 -0.8365  0.1873 -0.9842
   24MOL   H165 6191   5.203   1.969   1.990  0.0962  0.2421  0.5964
   24MOL   H166 6192   5.165   1.962   1.792  1.5586  1.2152  1.1805
   24MOL   H167 6193   5.179   2.138   1.789  0.1321  0.4365 -0.0366
   24MOL   H168 6194   4.946   1.970   1.684 -0.7270  0.7678  1.7225
   24MOL   H169 6195   4.949   2.152   1.676  0.5525  1.1361  0.6839
   24MOL   H170 6196   5.070   2.049   1.594  0.6869  2.5871  0.4401
   24MOL   C171 6197   5.051   1.975   2.135 -0.1241  0.3650  0.9385
   24MOL   C172 6198   4.914   2.040   2.171  0.1221  0.2637  0.1874
   24MOL   O173 6199   4.937   2.170   2.228 -0.8580 -0.1826  0.4310
   24MOL   C174 6200   4.869   2.277   2.153  0.5277  0.0875 -0.0415
   24MOL   C175 6201   4.887   2.403   2.229 -0.0273  0.4908  0.3747
   24MOL   H176 6202   5.115   1.966   2.222 -0.9664 -0.1541  1.5018
   24MOL   H177 6203   5.036   1.873   2.100  1.1183 -0.6332  3.2364
   24MOL   H178 6204   4.842   2.038   2.089 -1.5522 -0.0096  1.6408
   24MOL   H179 6205   4.764   2.256   2.136 -0.0253  1.9880  0.8726
   24MOL   H180 6206   4.907   2.289   2.052 -1.2143  2.2309 -0.4732
   24MOL   H181 6207   4.823   2.468   2.169 -0.5690 -0.3167  0.0665
   24MOL   H182 6208   4.849   2.393   2.331  1.9823 -0.2327  1.0784
   24MOL   H183 6209   4.981   2.458   2.234 -0.7231  1.6087  1.5708
   24MOL   C184 6210   4.845   1.959   2.283 -0.2116  0.4641  0.1011
   24MOL   C185 6211   4.698   1.985   2.289  0.0081  1.1733 -0.0566
   24MOL   O186 6212   4.672   2.058   2.409 -0.1681 -0.1422  0.1484
   24MOL   C187 6213   4.552   2.137   2.412  0.1909 -0.0766 -0.0930
   24MOL   C188 6214   4.501   2.157   2.556 -0.2356  0.0929  0.2150
   24MOL   H189 6215   4.887   1.971   2.383 -2.5553  2.3785  0.8979
   24MOL   H190 6216   4.859   1.854   2.260 -0.4541  0.3794  0.3416
   24MOL   H191 6217   4.661   2.039   2.202  0.2654 -1.4455 -1.8219
   24MOL   H192 6218   4.466   2.096   2.359 -2.1254 -0.9473  4.1570
   24MOL   H193 6219   4.580   2.230   2.363  0.8363  0.3094  0.9851
   24MOL   H194 6220   4.454   2.069   2.599  0.0644 -0.2150 -0.0803
   24MOL   H195 6221   4.576   2.199   2.622  0.5894 -0.9849 -0.0262
   24MOL   H196 6222   4.427   2.237   2.562 -0.3612  0.0124 -0.2018
   24MOL   C197 6223   4.623   1.848   2.286 -0.4418 -0.1196 -0.4205
   24MOL   C198 6224   4.613   1.783   2.151  0.4154 -0.2092 -0.5523
   24MOL   O199 6225   4.509   1.864   2.088 -0.1079  0.0874 -0.2011
   24MOL   C200 6226   4.518   1.863   1.941 -0.2770  0.1272  0.9080
   24MOL   C201 6227   4.637   1.947   1.891  0.0513  0.3835  0.5681
   24MOL   H202 6228   4.524   1.874   2.325 -0.5502  0.5759 -1.1558
   24MOL   H203 6229   4.662   1.775   2.357  0.2221 -1.2725 -1.9563
   24MOL   H204 6230   4.711   1.796   2.104  1.4395 -0.0355  1.5719
   24MOL   H205 6231   4.430   1.911   1.898 -0.1047 -0.7884 -0.4826
   24MOL   H206 6232   4.524   1.760   1.906 -0.8855  0.5510 -0.4680
   24MOL   H207 6233   4.634   1.967   1.783 -0.7868 -2.1377  0.0790
   24MOL   H208 6234   4.633   2.044   1.940  0.8055  1.2467 -1.0360
   24MOL   H209 6235   4.732   1.904   1.921 -1.4745 -1.4982  2.8626
   24MOL   C210 6236   4.585   1.631   2.141  0.0416 -0.5413 -0.1930
   24MOL   C211 6237   4.703   1.542   2.179 -0.0938  0.2714 -0.2861
   24MOL   O212 6238   4.775   1.537   2.058  0.0607  0.1061 -0.4062
   24MOL   C213 6239   4.899   1.609   2.048  1.1127 -0.0965  0.7097
   24MOL   C214 6240   4.993   1.557   1.935  0.1780 -0.7054  0.6651
   24MOL   H215 6241   4.533   1.597   2.052 -0.1580 -0.6392 -0.0410
   24MOL   H216 6242   4.501   1.622   2.211  0.3066  0.6446  0.2916
   24MOL   H217 6243   4.769   1.570   2.261 -0.2985  1.4576 -0.5282
   24MOL   H218 6244   4.952   1.608   2.143  1.7877 -1.3265  0.3318
   24MOL   H219 6245   4.880   1.712   2.018 -2.1554 -0.6092  0.8621
   24MOL   H220 6246   4.955   1.597   1.841  0.3349  0.2127  0.9850
   24MOL   H221 6247   5.089   1.609   1.932 -0.1686 -0.0904  0.1769
   24MOL   H222 6248   4.993   1.449   1.922 -0.8508 -0.5663 -0.5391
   24MOL   C223 6249   4.661   1.400   2.214  0.0859 -0.3689  0.7555
   24MOL   C224 6250   4.591   1.396   2.347  0.1239  0.2075 -0.4937
   24MOL   O225 6251   4.668   1.430   2.457  0.1605  0.4171  0.5447
   24MOL   C226 6252   4.607   1.480   2.572  1.3649 -0.5367  0.0208
   24MOL   C227 6253   4.693   1.585   2.637  0.0412 -0.4189  0.0013
   24MOL   H228 6254   4.752   1.340   2.204  1.3154  1.7690 -1.5207
   24MOL   H229 6255   4.588   1.379   2.136  0.8013 -1.8413  0.4646
   24MOL   H230 6256   4.502   1.458   2.345 -0.6440 -0.6905  2.5058
   24MOL   H231 6257   4.574   1.406   2.645  0.8075  1.7819  2.1675
   24MOL   H232 6258   4.513   1.524   2.542  0.9846 -1.7315 -0.5874
   24MOL   H233 6259   4.637   1.631   2.718 -0.2355  2.5649 -1.8012
   24MOL   H234 6260   4.790   1.545   2.665 -0.0132  0.1181  0.9642
   24MOL   H235 6261   4.705   1.667   2.565 -3.0343 -0.0630 -0.1695
   24MOL   C236 6262   4.539   1.252   2.367 -0.7090  0.7547 -0.5947
   24MOL   C237 6263   4.441   1.203   2.255 -0.6700 -1.4912 -0.2168
   24MOL   O238 6264   4.346   1.310   2.246 -0.2258 -0.0854 -0.5931
   24MOL   C239 6265   4.269   1.321   2.131 -0.1083 -0.1630  0.1585
   24MOL   C240 6266   4.168   1.434   2.137 -0.0302  0.1964  0.3375
   24MOL   H241 6267   4.484   1.251   2.461  0.5264  3.4862  0.2044
   24MOL   H242 6268   4.623   1.183   2.379 -0.2662  1.4341  0.3458
   24MOL   H243 6269   4.496   1.186   2.162 -0.3950 -1.8878  0.0148
   24MOL   H244 6270   4.215   1.231   2.103 -0.5690 -0.8443  3.1052
   24MOL   H245 6271   4.342   1.342   2.052 -2.1861 -0.8747 -2.0282
   24MOL   H246 6272   4.211   1.528   2.171  1.6931 -0.4818  0.1113
   24MOL   H247 6273   4.103   1.450   2.051 -3.1772 -0.1429  2.5540
   24MOL   H248 6274   4.089   1.406   2.206 -0.5745  0.1403 -0.3047
   24MOL   C249 6275   4.378   1.064   2.282 -0.5575  0.6272 -0.1007
   24MOL   C250 6276   4.462   0.938   2.263  0.3660  0.3242  0.5857
   24MOL   O251 6277   4.382   0.826   2.287 -0.2448 -0.8746 -0.1358
   24MOL   C252 6278   4.453   0.710   2.258 -0.2012  0.0390 -0.2440
   24MOL   C253 6279   4.376   0.591   2.326 -0.0863 -0.2595 -0.1556
   24MOL   H254 6280   4.292   1.047   2.217 -0.1417 -1.7706 -0.0667
   24MOL   H255 6281   4.339   1.064   2.384 -0.9432 -2.1514 -0.2169
   24MOL   H256 6282   4.514   0.923   2.168 -0.4943 -1.0115  0.3018
   24MOL   H257 6283   4.557   0.712   2.292 -0.4625  1.3877  0.5155
   24MOL   H258 6284   4.454   0.687   2.152  0.6236  1.8415 -0.6446
   24MOL   H259 6285   4.444   0.508   2.306 -0.8553 -0.7782 -0.5994
   24MOL   H260 6286   4.347   0.604   2.431  1.1685  0.2941  0.1364
   24MOL   H261 6287   4.285   0.567   2.272 -0.0553 -3.8633  1.2698
   24MOL   H262 6288   4.537   0.935   2.342 -0.2281  2.1270  1.2366
   25MOL     C1 6289   3.794   5.160   3.953  0.5035 -0.2236  0.0880
   25MOL     C2 6290   3.846   5.187   3.818  0.0696 -0.3455  0.3480
   25MOL     O3 6291   3.741   5.142   3.733 -0.2379 -0.4591 -0.0549
   25MOL     C4 6292   3.629   5.233   3.709 -0.4286  0.1054 -0.6664
   25MOL     C5 6293   3.543   5.196   3.590 -0.2684  0.0648 -0.3105
   25MOL     H6 6294   3.871   5.198   4.019  0.3044 -0.0051  0.1947
   25MOL     H7 6295   3.700   5.208   3.981 -1.1657 -2.8617 -0.7156
   25MOL     H8 6296   3.875   5.291   3.801  0.2441 -0.4385  0.0778
   25MOL     H9 6297   3.662   5.333   3.684  0.8340 -0.6016 -1.8546
   25MOL    H10 6298   3.567   5.233   3.800 -0.3380 -1.6553 -0.5934
   25MOL    H11 6299   3.461   5.267   3.576 -1.1926 -0.6350  1.4096
   25MOL    H12 6300   3.616   5.200   3.510  1.2355  1.5636  1.0834
   25MOL    H13 6301   3.511   5.092   3.594  0.4690 -0.2120 -1.3261
   25MOL    H14 6302   3.795   5.053   3.974  0.1380  0.0886  1.7976
   25MOL    C15 6303   3.969   5.102   3.783 -0.4251  0.3955 -0.1893
   25MOL    C16 6304   4.044   5.131   3.641 -0.2964  0.2942  0.0614
   25MOL    O17 6305   4.153   5.040   3.640  0.1093  0.1087 -0.0847
   25MOL    C18 6306   4.140   4.929   3.551  0.2576 -0.3137  0.7374
   25MOL    C19 6307   4.282   4.862   3.565 -0.0837  0.2612  0.0851
   25MOL    H20 6308   3.931   5.000   3.789 -0.3232  0.4419  1.6763
   25MOL    H21 6309   4.043   5.109   3.863 -1.3677 -2.0173  0.9382
   25MOL    H22 6310   3.979   5.113   3.555  0.3581 -0.2775 -0.3160
   25MOL    H23 6311   4.124   4.953   3.446  0.7058 -2.2535  0.2149
   25MOL    H24 6312   4.060   4.864   3.585 -1.3157  1.1357 -0.1659
   25MOL    H25 6313   4.360   4.937   3.578 -0.1775  0.4306 -0.2940
   25MOL    H26 6314   4.283   4.786   3.486 -2.3421 -1.7318  1.8724
   25MOL    H27 6315   4.281   4.798   3.653  1.5371 -1.8491 -1.3698
   25MOL    C28 6316   4.101   5.276   3.615 -0.0014 -0.4747 -0.6202
   25MOL    C29 6317   4.193   5.302   3.499 -0.9845  0.5286  0.1331
   25MOL    O30 6318   4.254   5.427   3.515  0.5775 -0.1351  0.4780
   25MOL    C31 6319   4.377   5.418   3.594  0.2543 -0.5722 -0.1934
   25MOL    C32 6320   4.421   5.565   3.636 -0.2122  0.2102 -1.1635
   25MOL    H33 6321   4.151   5.309   3.707 -1.2903  0.5944 -0.2930
   25MOL    H34 6322   4.013   5.339   3.609  0.4247  0.1652 -0.2748
   25MOL    H35 6323   4.273   5.228   3.491 -1.5020 -0.1958  1.5400
   25MOL    H36 6324   4.458   5.394   3.525  0.0575 -0.5466 -0.4342
   25MOL    H37 6325   4.390   5.350   3.678  1.7625  0.4981  0.4584
   25MOL    H38 6326   4.338   5.618   3.683  0.5190  0.9569 -0.6998
   25MOL    H39 6327   4.508   5.560   3.701 -0.6004 -0.7648 -0.7100
   25MOL    H40 6328   4.453   5.616   3.545 -0.6351  0.8550 -0.9557
   25MOL    C41 6329   4.122   5.310   3.364  0.2583  0.1884  0.0176
   25MOL    C42 6330   4.207   5.300   3.236  0.1441 -0.2846 -0.3812
   25MOL    O43 6331   4.124   5.362   3.141  0.0430  0.4386  0.3020
   25MOL    C44 6332   4.126   5.508   3.132 -0.4610 -0.0771  0.0807
   25MOL    C45 6333   3.989   5.565   3.092 -0.2531  0.5220 -0.6670
   25MOL    H46 6334   4.060   5.400   3.364 -1.6766 -1.1079  0.8284
   25MOL    H47 6335   4.052   5.226   3.366  0.4022  0.0032 -1.7238
   25MOL    H48 6336   4.299   5.356   3.254 -0.3629  0.0627  1.1193
   25MOL    H49 6337   4.198   5.528   3.053  0.1241  0.7288  0.8038
   25MOL    H50 6338   4.153   5.551   3.228  0.3647 -1.2236  0.3795
   25MOL    H51 6339   3.953   5.530   2.995 -1.1333 -0.1193 -0.1168
   25MOL    H52 6340   3.914   5.546   3.168 -0.6674  1.5665 -0.8032
   25MOL    H53 6341   3.989   5.674   3.093 -1.4505  0.5354  2.2540
   25MOL    C54 6342   4.232   5.151   3.211  0.7263  0.1378  0.3483
   25MOL    C55 6343   4.343   5.112   3.116 -0.1228  0.6941 -0.0296
   25MOL    O56 6344   4.456   5.180   3.151  0.1506  0.1189 -0.6073
   25MOL    C57 6345   4.567   5.102   3.134  0.2109  0.3410 -0.0091
   25MOL    C58 6346   4.684   5.189   3.152  0.3363  0.0305  0.4031
   25MOL    H59 6347   4.144   5.096   3.177  0.9294 -0.0072  0.0626
   25MOL    H60 6348   4.258   5.105   3.307 -1.1392  2.6072  2.0885
   25MOL    H61 6349   4.347   5.003   3.119  2.6210  0.7200 -0.7555
   25MOL    H62 6350   4.570   5.055   3.036 -0.2315  0.3629 -0.0342
   25MOL    H63 6351   4.581   5.024   3.208 -2.2447 -1.6401 -1.5649
   25MOL    H64 6352   4.673   5.271   3.081 -0.6164 -0.9390 -0.5778
   25MOL    H65 6353   4.700   5.230   3.252 -1.8728  0.6102  0.5588
   25MOL    H66 6354   4.770   5.123   3.142  0.1636 -0.7330  3.5196
   25MOL    C67 6355   4.316   5.156   2.970 -0.6270 -0.6174 -0.3025
   25MOL    C68 6356   4.200   5.080   2.902  0.1276  0.0279 -0.5389
   25MOL    O69 6357   4.262   4.949   2.879 -0.3520  0.2189 -0.3969
   25MOL    C70 6358   4.175   4.835   2.852  0.0873  0.7128 -0.7299
   25MOL    C71 6359   4.251   4.706   2.844  0.3682  0.4898  0.3146
   25MOL    H72 6360   4.398   5.131   2.903 -0.8621 -2.3281  0.0276
   25MOL    H73 6361   4.294   5.262   2.962 -1.1336 -0.7368 -0.5540
   25MOL    H74 6362   4.110   5.072   2.964  1.3732  1.4569  1.5149
   25MOL    H75 6363   4.125   4.856   2.757 -1.1539  1.5892  0.1169
   25MOL    H76 6364   4.100   4.831   2.931 -0.8696  0.2690 -1.6512
   25MOL    H77 6365   4.308   4.669   2.930  1.0796  0.0360 -0.3462
   25MOL    H78 6366   4.190   4.620   2.814  1.2623 -0.0776  0.1126
   25MOL    H79 6367   4.332   4.710   2.771  0.0540 -0.1690 -0.0745
   25MOL    C80 6368   4.168   5.148   2.765  0.4612  1.0766 -0.4005
   25MOL    C81 6369   4.079   5.276   2.779 -0.1788 -0.6066  0.3981
   25MOL    O82 6370   3.942   5.234   2.776  0.2589  0.2221 -0.6085
   25MOL    C83 6371   3.847   5.322   2.841  0.5633  0.2602 -0.0725
   25MOL    C84 6372   3.704   5.263   2.817 -0.6680  0.3225  0.1684
   25MOL    H85 6373   4.111   5.087   2.694 -0.8769  1.5250  0.2793
   25MOL    H86 6374   4.261   5.160   2.709  0.5140  0.3407 -0.4870
   25MOL    H87 6375   4.091   5.335   2.869 -0.8036  2.0214 -1.1976
   25MOL    H88 6376   3.864   5.415   2.786  1.3447 -0.6060 -1.3160
   25MOL    H89 6377   3.861   5.336   2.948  1.3237  1.4656 -0.3149
   25MOL    H90 6378   3.697   5.160   2.851 -1.0217  0.5673  0.8387
   25MOL    H91 6379   3.637   5.329   2.873 -0.9120  0.8721 -0.7546
   25MOL    H92 6380   3.665   5.255   2.715 -0.5803 -1.6678  0.2655
   25MOL    C93 6381   4.104   5.375   2.661 -0.1671  0.3080 -0.3766
   25MOL    C94 6382   4.250   5.434   2.647  0.4634  0.0817 -0.1186
   25MOL    O95 6383   4.286   5.487   2.776  0.7221 -0.4703 -0.0575
   25MOL    C96 6384   4.410   5.548   2.790 -0.3850  0.4347 -0.1483
   25MOL    C97 6385   4.457   5.561   2.936 -0.1572  0.4008  0.3422
   25MOL    H98 6386   4.048   5.468   2.666 -0.6116 -0.0120  0.6074
   25MOL    H99 6387   4.078   5.321   2.570 -0.7777 -0.4138  0.2121
   25MOL   H100 6388   4.319   5.352   2.626  0.0440  0.2305 -2.0979
   25MOL   H101 6389   4.429   5.648   2.752  0.0811  0.6170  0.5502
   25MOL   H102 6390   4.484   5.480   2.746 -0.4125  0.4896 -0.2790
   25MOL   H103 6391   4.405   5.645   2.983  1.7503  1.5435  0.4784
   25MOL   H104 6392   4.439   5.469   2.991  1.3270 -0.1329 -0.0492
   25MOL   H105 6393   4.563   5.585   2.945 -0.0727  1.0973 -2.1069
   25MOL   C106 6394   4.274   5.536   2.536 -0.2705  0.0176 -0.0618
   25MOL   C107 6395   4.230   5.489   2.391  0.0842 -0.6374  0.1048
   25MOL   O108 6396   4.091   5.486   2.396  0.4533  0.0009  0.0678
   25MOL   C109 6397   4.018   5.453   2.277  0.5561  0.3017 -0.4247
   25MOL   C110 6398   3.879   5.498   2.330 -0.0872 -0.2023  0.4245
   25MOL   H111 6399   4.381   5.560   2.531 -0.5991  1.3493 -0.9327
   25MOL   H112 6400   4.221   5.627   2.562 -0.6366 -0.6503  1.6135
   25MOL   H113 6401   4.264   5.564   2.320 -0.1716 -1.2500 -0.6669
   25MOL   H114 6402   4.020   5.347   2.251 -1.2503  0.1470 -0.0011
   25MOL   H115 6403   4.063   5.511   2.197 -3.2528  3.7460 -0.2502
   25MOL   H116 6404   3.874   5.607   2.327 -0.5024 -0.2047  0.9227
   25MOL   H117 6405   3.795   5.455   2.276  0.1325 -0.9012  0.6326
   25MOL   H118 6406   3.865   5.474   2.435 -1.3371  2.7070  0.9890
   25MOL   C119 6407   4.284   5.350   2.352 -0.5994 -0.1854 -0.2477
   25MOL   C120 6408   4.432   5.339   2.324  0.3114  0.2116 -0.3938
   25MOL   O121 6409   4.456   5.418   2.208 -0.4491 -0.2885  0.5809
   25MOL   C122 6410   4.551   5.520   2.224 -0.5873 -0.7186 -0.4214
   25MOL   C123 6411   4.611   5.531   2.084  0.0354 -0.5078  0.2039
   25MOL   H124 6412   4.231   5.329   2.259 -3.2530  0.6483  1.0382
   25MOL   H125 6413   4.256   5.264   2.412  0.7375 -0.4303  0.0358
   25MOL   H126 6414   4.472   5.378   2.418 -3.3236  1.6285  0.6621
   25MOL   H127 6415   4.635   5.477   2.278  0.3049 -0.2484 -1.4052
   25MOL   H128 6416   4.511   5.610   2.270  2.9559  0.7283 -0.0128
   25MOL   H129 6417   4.537   5.548   2.006 -0.5495  0.1460  0.8937
   25MOL   H130 6418   4.699   5.594   2.076 -0.7983  0.5202 -0.9349
   25MOL   H131 6419   4.667   5.443   2.052  0.8432  0.0273  0.1569
   25MOL   C132 6420   4.490   5.201   2.283  0.2163 -0.7009 -0.1009
   25MOL   C133 6421   4.491   5.086   2.385 -1.1173  0.2547  0.3983
   25MOL   O134 6422   4.365   5.042   2.430 -0.1530 -0.4562  0.1162
   25MOL   C135 6423   4.282   4.985   2.335 -0.4550  0.5596  0.9061
   25MOL   C136 6424   4.155   4.931   2.417  0.2350 -0.0699  0.4655
   25MOL   H137 6425   4.597   5.218   2.268 -0.0099  0.0555 -0.8890
   25MOL   H138 6426   4.445   5.177   2.186 -2.4617  0.9155  0.7202
   25MOL   H139 6427   4.527   5.002   2.326 -1.8852 -1.7424  2.6747
   25MOL   H140 6428   4.318   4.893   2.289 -0.2382  1.7415 -1.3593
   25MOL   H141 6429   4.263   5.060   2.258 -0.6251 -1.3892 -1.0333
   25MOL   H142 6430   4.094   4.848   2.381 -0.8569  0.3028  1.4354
   25MOL   H143 6431   4.195   4.885   2.507  1.1492  0.8549  0.5445
   25MOL   H144 6432   4.087   5.015   2.430  1.1466  0.3217  2.9131
   25MOL   C145 6433   4.586   5.106   2.506  1.2348  0.3472 -0.1251
   25MOL   C146 6434   4.654   4.973   2.545 -0.3300  1.0326  0.2232
   25MOL   O147 6435   4.738   4.936   2.436 -0.0588  0.1242 -0.3852
   25MOL   C148 6436   4.878   4.969   2.446 -0.7750  0.0336 -0.3616
   25MOL   C149 6437   4.957   4.885   2.550  1.0840  0.2144  0.1422
   25MOL   H150 6438   4.535   5.135   2.598 -0.4899  1.4013 -1.3818
   25MOL   H151 6439   4.667   5.174   2.481  0.7520  1.2655  0.7471
   25MOL   H152 6440   4.711   4.993   2.636 -1.7095 -0.2356  1.3947
   25MOL   H153 6441   4.890   5.075   2.468 -2.3503  0.0323  0.5738
   25MOL   H154 6442   4.920   4.963   2.345 -0.6583 -2.3450 -0.1980
   25MOL   H155 6443   4.913   4.882   2.650 -0.8176  1.5897 -0.6305
   25MOL   H156 6444   4.956   4.779   2.523 -2.5123  0.5445 -1.3410
   25MOL   H157 6445   5.064   4.896   2.570  1.1731 -0.5671  0.1283
   25MOL   C158 6446   4.561   4.849   2.573  0.2719 -0.4759 -0.8648
   25MOL   C159 6447   4.621   4.743   2.659 -0.1156  0.1739 -0.1388
   25MOL   O160 6448   4.538   4.626   2.659 -0.2361 -0.1524  0.2981
   25MOL   C161 6449   4.561   4.532   2.555  0.7065 -0.3987  0.6847
   25MOL   C162 6450   4.672   4.432   2.590  0.1814 -0.3068  0.5793
   25MOL   H163 6451   4.517   4.805   2.484  0.7778 -2.9910  0.0984
   25MOL   H164 6452   4.484   4.899   2.631  0.6779  0.7637 -1.3844
   25MOL   H165 6453   4.716   4.715   2.613 -0.1577  0.1285 -0.1975
   25MOL   H166 6454   4.578   4.573   2.455  1.0209  0.7134  1.1793
   25MOL   H167 6455   4.466   4.480   2.547  0.6509 -0.0750 -0.8889
   25MOL   H168 6456   4.765   4.487   2.601 -1.3436  2.6366 -0.3584
   25MOL   H169 6457   4.660   4.364   2.674 -2.0656 -0.9505 -0.2285
   25MOL   H170 6458   4.687   4.362   2.507  0.3793  2.1488 -1.5444
   25MOL   C171 6459   4.634   4.786   2.809  0.8927 -1.2785 -0.2374
   25MOL   C172 6460   4.697   4.671   2.892 -0.1204 -0.3948 -0.2914
   25MOL   O173 6461   4.700   4.709   3.030 -0.1135 -0.0162 -0.0669
   25MOL   C174 6462   4.585   4.666   3.099 -0.3473 -0.0031  0.3136
   25MOL   C175 6463   4.609   4.673   3.250 -0.5530  0.5943  0.0171
   25MOL   H176 6464   4.538   4.811   2.854  2.1443  1.5146  0.9716
   25MOL   H177 6465   4.687   4.880   2.819 -2.3711  0.6535 -0.4640
   25MOL   H178 6466   4.651   4.572   2.887 -1.0238 -0.0771  1.1477
   25MOL   H179 6467   4.557   4.561   3.092  0.5405 -0.1584 -1.0419
   25MOL   H180 6468   4.500   4.728   3.072 -0.7204 -2.0573 -3.4944
   25MOL   H181 6469   4.702   4.628   3.286 -0.3051 -0.2025 -1.5515
   25MOL   H182 6470   4.611   4.774   3.289  1.3187 -0.0029  1.5643
   25MOL   H183 6471   4.523   4.627   3.299  0.0157 -1.3465 -0.7354
   25MOL   C184 6472   4.844   4.655   2.848  0.1547 -0.4450 -0.1998
   25MOL   C185 6473   4.928   4.562   2.940 -0.7353 -0.3677  0.2426
   25MOL   O186 6474   5.075   4.571   2.899 -0.3802  0.3265 -0.6595
   25MOL   C187 6475   5.166   4.632   2.997  0.2545 -0.1599 -0.0737
   25MOL   C188 6476   5.137   4.777   2.975 -0.1429 -0.5264  0.2854
   25MOL   H189 6477   4.896   4.750   2.856 -0.7984  0.1614 -1.2252
   25MOL   H190 6478   4.848   4.627   2.743  0.9274  0.9244 -0.5487
   25MOL   H191 6479   4.913   4.589   3.044 -3.1305  2.4340 -0.7695
   25MOL   H192 6480   5.269   4.606   2.973  0.8632  1.5222  0.7062
   25MOL   H193 6481   5.147   4.595   3.098  1.3706 -1.1503 -0.2105
   25MOL   H194 6482   5.128   4.802   2.869 -1.4585  0.4101  0.6102
   25MOL   H195 6483   5.044   4.804   3.024 -0.3183  0.8492 -0.7552
   25MOL   H196 6484   5.223   4.833   3.014  1.8121  0.6205 -5.1707
   25MOL   C197 6485   4.892   4.418   2.922  0.4144 -0.8424 -0.1827
   25MOL   C198 6486   4.960   4.334   3.032 -0.1657  0.1180 -0.2513
   25MOL   O199 6487   4.970   4.204   2.966  0.1182  0.3923  0.3765
   25MOL   C200 6488   5.060   4.113   3.029 -0.3774  0.1198 -0.1352
   25MOL   C201 6489   5.087   3.989   2.942  0.4879 -0.3106  0.4135
   25MOL   H202 6490   4.919   4.382   2.823 -1.5523 -1.8097 -0.3872
   25MOL   H203 6491   4.784   4.405   2.923  0.2679  0.3733  1.0278
   25MOL   H204 6492   5.060   4.375   3.042 -0.1708  0.2217 -0.6399
   25MOL   H205 6493   5.025   4.094   3.130  1.6452 -0.3202  0.4968
   25MOL   H206 6494   5.155   4.162   3.049  0.3943 -1.3166 -0.2047
   25MOL   H207 6495   5.164   3.926   2.987  0.1790 -1.1599 -0.2275
   25MOL   H208 6496   5.001   3.928   2.915 -1.5929  2.0322  1.6247
   25MOL   H209 6497   5.136   4.015   2.848 -0.2689  0.7606  0.3065
   25MOL   C210 6498   4.869   4.320   3.161  0.0162  0.5423 -0.7378
   25MOL   C211 6499   4.928   4.288   3.298  0.9518 -0.0725  1.2867
   25MOL   O212 6500   4.816   4.294   3.391  0.2465  0.1802 -0.1546
   25MOL   C213 6501   4.745   4.176   3.412 -0.3544 -0.0056 -0.5960
   25MOL   C214 6502   4.641   4.210   3.522  0.6536  0.0733 -0.2957
   25MOL   H215 6503   4.794   4.247   3.132  0.8410 -1.0408  1.0483
   25MOL   H216 6504   4.810   4.410   3.176 -2.0655 -0.6585 -1.5318
   25MOL   H217 6505   4.977   4.190   3.297  1.7530  0.2901 -2.1764
   25MOL   H218 6506   4.822   4.109   3.448 -2.3356 -0.6112  2.8215
   25MOL   H219 6507   4.695   4.141   3.322  2.5899 -0.2227 -2.1755
   25MOL   H220 6508   4.689   4.247   3.613 -0.8383  1.3763 -0.0369
   25MOL   H221 6509   4.562   4.276   3.488  1.0271 -0.3963 -2.1148
   25MOL   H222 6510   4.583   4.121   3.548  0.7723 -0.2043 -0.9671
   25MOL   C223 6511   5.035   4.392   3.343  0.2299  0.5429 -0.0329
   25MOL   C224 6512   5.096   4.358   3.478  0.6278 -0.5249 -0.2609
   25MOL   O225 6513   5.181   4.460   3.522  0.2365  0.4312  0.5181
   25MOL   C226 6514   5.127   4.542   3.628 -0.3732  0.0627  0.0088
   25MOL   C227 6515   5.229   4.648   3.672  0.2417  0.6766 -0.1403
   25MOL   H228 6516   5.000   4.495   3.343  2.9353  1.6066  4.9190
   25MOL   H229 6517   5.105   4.402   3.259 -1.8410  0.8769 -1.7748
   25MOL   H230 6518   5.028   4.340   3.561 -1.9868  1.2528 -1.9509
   25MOL   H231 6519   5.112   4.474   3.711  0.8835 -0.7799 -0.4374
   25MOL   H232 6520   5.037   4.596   3.598  1.0951  1.9596 -1.1086
   25MOL   H233 6521   5.205   4.694   3.768 -2.8485 -0.7492 -0.1703
   25MOL   H234 6522   5.327   4.601   3.683  0.1313  0.1593 -1.2395
   25MOL   H235 6523   5.240   4.720   3.591 -1.0527 -0.5230 -1.4285
   25MOL   C236 6524   5.181   4.226   3.475 -0.2122  0.0227 -0.1358
   25MOL   C237 6525   5.289   4.201   3.363 -0.0307 -0.0716  0.5776
   25MOL   O238 6526   5.361   4.087   3.379 -0.2324  0.4488  0.0744
   25MOL   C239 6527   5.325   3.980   3.291 -0.6023 -0.7693  0.0932
   25MOL   C240 6528   5.423   3.865   3.313 -0.2318 -0.2645  0.5137
   25MOL   H241 6529   5.104   4.150   3.466  0.0502 -0.2596 -0.0178
   25MOL   H242 6530   5.229   4.225   3.573 -1.0923 -0.0370  0.2996
   25MOL   H243 6531   5.235   4.205   3.269 -2.6267  0.2018  2.0159
   25MOL   H244 6532   5.327   4.010   3.186 -0.1227 -1.1285 -0.0008
   25MOL   H245 6533   5.226   3.943   3.316 -0.9770  0.3011  0.1972
   25MOL   H246 6534   5.527   3.897   3.313 -0.8929  1.9443  0.2711
   25MOL   H247 6535   5.395   3.816   3.406  1.7114  0.5213  1.5389
   25MOL   H248 6536   5.400   3.797   3.230 -0.3121  1.3869 -0.8402
   25MOL   C249 6537   5.387   4.324   3.353  0.0866  0.8437 -0.4208
   25MOL   C250 6538   5.495   4.310   3.243  0.0986 -0.3539  0.1200
   25MOL   O251 6539   5.423   4.312   3.120 -0.1767 -0.8263 -0.1901
   25MOL   C252 6540   5.504   4.334   3.009  0.0179  0.0015  0.7906
   25MOL   C253 6541   5.413   4.330   2.886 -0.0339  0.1228  0.0278
   25MOL   H254 6542   5.437   4.345   3.448 -0.5968  0.0903  0.1121
   25MOL   H255 6543   5.330   4.416   3.338 -1.2788  0.2409  0.9801
   25MOL   H256 6544   5.567   4.392   3.248 -0.4850  0.1368  0.5612
   25MOL   H257 6545   5.581   4.257   3.011 -0.0576 -0.0994 -0.1311
   25MOL   H258 6546   5.556   4.430   3.009  0.2459 -0.1226  0.5183
   25MOL   H259 6547   5.361   4.234   2.880  0.5900 -0.0551 -3.5311
   25MOL   H260 6548   5.334   4.405   2.894 -1.8129 -1.5854 -0.8954
   25MOL   H261 6549   5.459   4.328   2.788 -1.2078 -2.5858 -0.5110
   25MOL   H262 6550   5.554   4.219   3.247  0.4875 -0.0744  0.9120
   26MOL     C1 6551   4.076   3.860   0.805  0.1348 -0.3244 -0.5397
   26MOL     C2 6552   3.988   3.896   0.683  0.3241  0.2796 -0.6621
   26MOL     O3 6553   3.850   3.857   0.722 -0.0678  0.1656  0.6478
   26MOL     C4 6554   3.773   3.955   0.798  0.1143  0.4239  0.1101
   26MOL     C5 6555   3.648   3.896   0.866 -1.1832  0.4955 -0.2004
   26MOL     H6 6556   4.170   3.905   0.774 -0.1546  2.2773  2.2065
   26MOL     H7 6557   4.046   3.912   0.895  0.2068 -0.1102 -0.6396
   26MOL     H8 6558   3.991   4.004   0.675  1.6480  0.5403  2.6169
   26MOL     H9 6559   3.723   4.007   0.716 -0.0789 -1.3821 -0.9545
   26MOL    H10 6560   3.842   4.025   0.844 -1.0784 -0.7070  3.7644
   26MOL    H11 6561   3.680   3.823   0.941 -1.3675 -0.8364 -1.3794
   26MOL    H12 6562   3.600   3.973   0.925  0.4879  0.4527  1.2756
   26MOL    H13 6563   3.584   3.863   0.785  1.3612  0.7004 -2.3896
   26MOL    H14 6564   4.094   3.753   0.822  0.8884 -0.4953 -2.2808
   26MOL    C15 6565   4.023   3.828   0.550  0.3370 -0.3362 -0.4059
   26MOL    C16 6566   3.925   3.861   0.432  0.5670  0.2521 -0.6926
   26MOL    O17 6567   3.918   3.749   0.344  0.8731  0.6078  0.1791
   26MOL    C18 6568   3.830   3.643   0.394 -0.3036  0.2304 -0.0584
   26MOL    C19 6569   3.808   3.538   0.280  0.6857 -0.4659  0.0020
   26MOL    H20 6570   4.020   3.723   0.581 -0.3571  0.1188  1.1104
   26MOL    H21 6571   4.124   3.846   0.512 -0.0746  0.8335 -0.9711
   26MOL    H22 6572   3.822   3.879   0.462  0.4823 -0.3906 -0.5899
   26MOL    H23 6573   3.736   3.696   0.408 -0.7878  0.3986 -3.5132
   26MOL    H24 6574   3.863   3.600   0.488 -0.7603  0.2081  0.0939
   26MOL    H25 6575   3.796   3.589   0.184  0.3672  0.0070  0.2878
   26MOL    H26 6576   3.712   3.488   0.290  1.2011 -0.7239  4.8432
   26MOL    H27 6577   3.894   3.474   0.264  1.0697  0.1328 -0.3526
   26MOL    C28 6578   3.973   3.987   0.355 -0.3320 -0.3082  0.0782
   26MOL    C29 6579   3.888   4.051   0.248  0.3795 -0.4856  0.1904
   26MOL    O30 6580   3.752   4.046   0.290  0.0169 -0.2321 -0.4249
   26MOL    C31 6581   3.693   4.171   0.309 -0.3402 -0.2524 -0.0915
   26MOL    C32 6582   3.741   4.231   0.441 -0.1098 -0.6515 -0.4955
   26MOL    H33 6583   4.072   3.963   0.317 -0.5651 -1.9971  0.5375
   26MOL    H34 6584   3.984   4.066   0.430  1.2180  0.4007 -0.8772
   26MOL    H35 6585   3.917   4.156   0.244 -0.2835 -0.3591 -1.8613
   26MOL    H36 6586   3.586   4.157   0.300 -0.0900 -0.7530 -2.8244
   26MOL    H37 6587   3.716   4.238   0.225  0.6054 -0.1561  0.2350
   26MOL    H38 6588   3.822   4.302   0.428 -0.1818 -0.7630 -1.6320
   26MOL    H39 6589   3.668   4.285   0.502  0.0474 -1.1145  0.1054
   26MOL    H40 6590   3.776   4.151   0.507 -0.6224 -0.7258 -0.3105
   26MOL    C41 6591   3.907   3.985   0.114 -0.3567 -0.8063  0.6139
   26MOL    C42 6592   4.044   3.969   0.057 -0.2832  0.3133 -0.0404
   26MOL    O43 6593   4.098   4.094   0.039  0.0726 -0.4912 -0.6812
   26MOL    C44 6594   4.238   4.095   0.066  0.1869 -0.8561 -0.1324
   26MOL    C45 6595   4.291   4.238   0.077  0.6287  0.9266  0.2431
   26MOL    H46 6596   3.859   4.041   0.033  0.9527 -0.0897  0.3219
   26MOL    H47 6597   3.857   3.888   0.109  0.9989 -1.6374  2.5295
   26MOL    H48 6598   4.098   3.900   0.122  0.7096  0.1200 -1.0525
   26MOL    H49 6599   4.289   4.038   7.832  1.3847  0.1939 -0.1387
   26MOL    H50 6600   4.256   4.051   0.164 -3.2368  0.4151  1.1388
   26MOL    H51 6601   4.277   4.275   7.819  2.6889 -2.1835 -1.2751
   26MOL    H52 6602   4.219   4.305   0.122  2.4577  1.9007  1.7720
   26MOL    H53 6603   4.391   4.243   0.120  0.3836 -1.4199  1.1740
   26MOL    C54 6604   4.048   3.888   7.768  0.7870 -0.5502  0.3526
   26MOL    C55 6605   4.057   3.734   7.774 -0.0173 -0.0540 -0.0099
   26MOL    O56 6606   4.198   3.726   7.805  0.4107 -0.3180 -0.2583
   26MOL    C57 6607   4.239   3.609   0.023 -0.3623  0.5149  0.3119
   26MOL    C58 6608   4.335   3.649   0.129 -0.3301  0.9451  0.5144
   26MOL    H59 6609   4.129   3.913   7.699  0.9016 -2.2419 -0.1467
   26MOL    H60 6610   3.958   3.917   7.714  1.4742  1.3393  0.1555
   26MOL    H61 6611   4.000   3.694   0.014  0.1971  1.4410  0.8659
   26MOL    H62 6612   4.275   3.541   7.789 -0.7076 -0.2143  0.7851
   26MOL    H63 6613   4.148   3.564   0.064 -0.1593  0.3450  0.5727
   26MOL    H64 6614   4.280   3.708   0.202 -0.2527  1.2551  0.3232
   26MOL    H65 6615   4.383   3.565   0.181  0.3097  0.9931  0.0098
   26MOL    H66 6616   4.417   3.709   0.091 -0.9709  0.5374 -1.5561
   26MOL    C67 6617   4.032   3.662   7.639  0.6025 -0.3507 -0.9205
   26MOL    C68 6618   3.885   3.653   7.593  0.1298 -0.1536 -0.1626
   26MOL    O69 6619   3.805   3.593   7.695  0.3744  0.5945 -0.1779
   26MOL    C70 6620   3.688   3.662   7.731  0.3785 -0.3552 -0.2384
   26MOL    C71 6621   3.573   3.572   7.776 -0.6297  0.6734 -0.3145
   26MOL    H72 6622   4.065   3.558   7.633  2.2725  0.2433 -2.6305
   26MOL    H73 6623   4.083   3.726   7.567  1.8763 -2.2545 -1.7672
   26MOL    H74 6624   3.839   3.751   7.592  0.3365 -0.0301  1.2692
   26MOL    H75 6625   3.654   3.728   7.651  0.1697 -1.0042 -0.6933
   26MOL    H76 6626   3.721   3.732   7.808  0.2900 -0.9385  0.3373
   26MOL    H77 6627   3.535   3.598   0.031  3.7124 -0.8108  1.8628
   26MOL    H78 6628   3.495   3.558   7.701  1.1254 -3.1824 -1.5614
   26MOL    H79 6629   3.614   3.472   7.792 -0.5291  0.6904 -0.4590
   26MOL    C80 6630   3.874   3.577   7.457 -0.8046  0.1743  0.6212
   26MOL    C81 6631   3.734   3.574   7.399 -0.1983  0.4847  0.0601
   26MOL    O82 6632   3.713   3.453   7.325  0.3852 -0.1723  1.1349
   26MOL    C83 6633   3.645   3.360   7.411  0.3317  0.2783  0.3208
   26MOL    C84 6634   3.622   3.242   7.320  0.3016 -0.0550  0.1544
   26MOL    H85 6635   3.910   3.475   7.473 -2.3168 -0.1963  1.7798
   26MOL    H86 6636   3.938   3.614   7.377  1.4243  0.4209  2.4650
   26MOL    H87 6637   3.657   3.589   7.475  0.0082 -0.2563  0.4167
   26MOL    H88 6638   3.545   3.396   7.437 -0.3199  1.3881 -3.3287
   26MOL    H89 6639   3.700   3.329   7.500 -2.1781  2.0349  2.5585
   26MOL    H90 6640   3.555   3.172   7.370 -0.4289 -0.4879 -1.3987
   26MOL    H91 6641   3.586   3.280   7.224 -0.2407 -0.7023  0.1008
   26MOL    H92 6642   3.712   3.181   7.308 -0.7478 -1.6597  0.2380
   26MOL    C93 6643   3.711   3.696   7.310 -0.0559  0.0339  0.4402
   26MOL    C94 6644   3.588   3.691   7.204  0.1614 -0.1168  0.6350
   26MOL    O95 6645   3.619   3.806   7.125 -0.3214 -0.6375 -0.2459
   26MOL    C96 6646   3.727   3.783   7.023 -0.2031  0.0252 -0.3375
   26MOL    C97 6647   3.686   3.863   6.898  0.2821 -0.2823  0.4216
   26MOL    H98 6648   3.798   3.713   7.247 -0.6311 -0.6999 -0.5803
   26MOL    H99 6649   3.699   3.785   7.372 -0.8366  1.6500 -1.9407
   26MOL   H100 6650   3.580   3.598   7.148  0.1577  1.0882 -1.4014
   26MOL   H101 6651   3.732   3.675   7.006 -0.7577  0.2267 -1.8674
   26MOL   H102 6652   3.830   3.809   7.046 -0.1131  1.3824 -2.1601
   26MOL   H103 6653   3.687   3.970   6.920 -3.0247 -0.3393  1.1024
   26MOL   H104 6654   3.747   3.838   6.812  1.8794 -2.2101  2.0626
   26MOL   H105 6655   3.587   3.842   6.859  0.2491  1.3722 -0.4451
   26MOL   C106 6656   3.447   3.712   7.270 -0.1862 -0.1571  0.1993
   26MOL   C107 6657   3.327   3.729   7.166  0.2692 -0.2841 -0.1827
   26MOL   O108 6658   3.200   3.736   7.239 -0.0998  0.2336 -0.3187
   26MOL   C109 6659   3.186   3.831   7.337 -0.1166 -0.4847 -0.7284
   26MOL   C110 6660   3.044   3.816   7.394  0.5049  0.1656  0.1347
   26MOL   H111 6661   3.451   3.805   7.326  3.0507  2.7430 -4.4527
   26MOL   H112 6662   3.429   3.627   7.336  0.9552 -0.3741  0.2424
   26MOL   H113 6663   3.341   3.814   7.100  1.4159 -0.7369 -0.5360
   26MOL   H114 6664   3.191   3.933   7.301 -0.5726 -0.2551 -0.1548
   26MOL   H115 6665   3.258   3.808   7.416 -0.6104  1.5375  0.3402
   26MOL   H116 6666   3.018   3.712   7.416  0.0820 -0.1984 -2.0122
   26MOL   H117 6667   3.038   3.868   7.490  1.3398 -0.3648  0.4777
   26MOL   H118 6668   2.973   3.850   7.319 -0.3756  0.0675  0.9135
   26MOL   C119 6669   3.322   3.629   7.055 -0.0711  0.7409 -0.3290
   26MOL   C120 6670   3.270   3.482   7.092 -0.5434 -0.3676  0.0942
   26MOL   O121 6671   3.319   3.447   7.224 -0.0875  0.0689  0.4043
   26MOL   C122 6672   3.205   3.417   7.308  0.5752  0.3735 -0.3420
   26MOL   C123 6673   3.251   3.389   7.448 -0.0622 -0.4758 -0.4870
   26MOL   H124 6674   3.420   3.617   7.009 -0.7165 -0.8207 -1.3247
   26MOL   H125 6675   3.266   3.676   6.975  0.4849  1.1922 -0.4592
   26MOL   H126 6676   3.162   3.484   7.080 -0.6098  0.9113  0.8368
   26MOL   H127 6677   3.144   3.333   7.276  0.8578  0.1812 -0.3717
   26MOL   H128 6678   3.131   3.496   7.302 -0.4953 -0.4745  1.1774
   26MOL   H129 6679   3.165   3.364   7.510 -1.2801  0.9362 -1.5503
   26MOL   H130 6680   3.323   3.308   7.449  0.5466  0.0642  0.8864
   26MOL   H131 6681   3.301   3.476   7.492  2.0058 -2.3574  0.9973
   26MOL   C132 6682   3.335   3.372   7.002 -0.0344 -0.1220  0.3370
   26MOL   C133 6683   3.276   3.347   6.865  0.3253 -0.4489  0.4041
   26MOL   O134 6684   3.281   3.473   6.803  0.1035  0.0260 -0.2953
   26MOL   C135 6685   3.390   3.489   6.709  0.5974 -0.0471 -0.4033
   26MOL   C136 6686   3.387   3.629   6.657 -0.3201  0.2649 -0.5451
   26MOL   H137 6687   3.341   3.280   7.061  0.5547  0.6328  1.4638
   26MOL   H138 6688   3.439   3.386   6.974 -0.6677  0.0770 -2.0165
   26MOL   H139 6689   3.337   3.272   6.813  0.4886 -0.2110  0.2525
   26MOL   H140 6690   3.385   3.408   6.636  1.9141  0.8093 -1.4470
   26MOL   H141 6691   3.486   3.490   6.761 -0.8471 -1.1061  2.3910
   26MOL   H142 6692   3.467   3.656   6.588 -0.5794  1.3689 -0.4308
   26MOL   H143 6693   3.288   3.651   6.617 -0.2129  1.0742 -0.3684
   26MOL   H144 6694   3.397   3.692   6.746 -1.2414 -0.1171 -0.1601
   26MOL   C145 6695   3.131   3.291   6.853  0.2399  0.1360  0.9231
   26MOL   C146 6696   3.108   3.140   6.905  0.3609 -0.6987 -0.0069
   26MOL   O147 6697   3.157   3.042   6.817 -0.2906 -0.4904 -0.0282
   26MOL   C148 6698   3.222   2.937   6.882 -0.9776  0.1801  0.4542
   26MOL   C149 6699   3.305   2.842   6.787  0.2605  0.1127  0.4306
   26MOL   H150 6700   3.111   3.285   6.747  1.8529  0.9526  0.5497
   26MOL   H151 6701   3.067   3.362   6.906  1.0288  1.1837  0.4853
   26MOL   H152 6702   3.166   3.139   6.998 -1.1477 -0.0214  0.9787
   26MOL   H153 6703   3.142   2.886   6.937  0.1157 -1.7974  0.2565
   26MOL   H154 6704   3.294   2.969   6.957 -0.6385  0.7317 -0.1004
   26MOL   H155 6705   3.357   2.911   6.719 -1.9110  2.6181  1.2178
   26MOL   H156 6706   3.376   2.786   6.849  0.5209 -0.5976 -0.5084
   26MOL   H157 6707   3.243   2.774   6.730  0.8784  1.0775 -1.4467
   26MOL   C158 6708   2.958   3.105   6.936  0.3273 -0.1952 -0.7011
   26MOL   C159 6709   2.866   3.107   6.810 -0.1951 -0.4671 -0.3592
   26MOL   O160 6710   2.851   3.243   6.789 -0.1864 -0.6363  0.3117
   26MOL   C161 6711   2.835   3.278   6.657  1.0181 -0.2126 -0.3270
   26MOL   C162 6712   2.768   3.412   6.648  0.2340  0.3521 -0.0216
   26MOL   H163 6713   2.916   3.163   7.018  1.5483  1.8231 -1.4723
   26MOL   H164 6714   2.957   3.003   6.974 -0.2297  0.0772  0.0219
   26MOL   H165 6715   2.921   3.063   6.727  0.2365  1.9327 -1.3773
   26MOL   H166 6716   2.762   3.218   6.602 -1.5111 -0.2117  2.9245
   26MOL   H167 6717   2.935   3.277   6.613  0.4254  0.7199 -1.7465
   26MOL   H168 6718   2.661   3.407   6.669  0.5741  1.2686  2.0498
   26MOL   H169 6719   2.815   3.484   6.715 -1.6625 -0.1880  1.9394
   26MOL   H170 6720   2.769   3.454   6.547 -0.7333  0.8213  0.1552
   26MOL   C171 6721   2.727   3.042   6.850 -0.5275  0.5590  0.3886
   26MOL   C172 6722   2.730   2.888   6.866  0.5748  0.3072 -0.2897
   26MOL   O173 6723   2.788   2.848   6.740  0.2993  0.2238  0.2919
   26MOL   C174 6724   2.896   2.773   6.756  0.1914  0.2249  0.0235
   26MOL   C175 6725   2.941   2.721   6.620  0.4320 -0.4524  0.2025
   26MOL   H176 6726   2.655   3.070   6.773 -0.2605  0.7088  0.1924
   26MOL   H177 6727   2.690   3.100   6.935  0.9817  0.1842  1.3171
   26MOL   H178 6728   2.795   2.873   6.951 -1.2771  1.5062  1.3854
   26MOL   H179 6729   2.872   2.690   6.822 -4.6390 -0.7573 -2.7167
   26MOL   H180 6730   2.979   2.830   6.797  1.1621 -0.8171 -0.4764
   26MOL   H181 6731   2.859   2.703   6.551 -1.5017  0.7364  2.1323
   26MOL   H182 6732   2.994   2.793   6.558 -1.1291  1.6150  1.1547
   26MOL   H183 6733   3.003   2.632   6.625  3.8622  1.8131 -0.4300
   26MOL   C184 6734   2.590   2.827   6.893 -0.0103 -0.7084  0.8996
   26MOL   C185 6735   2.581   2.680   6.935 -0.6930  0.3287 -0.6197
   26MOL   O186 6736   2.445   2.647   6.924 -0.5511  0.7696 -0.3780
   26MOL   C187 6737   2.424   2.505   6.919  0.0246 -0.6544  0.0540
   26MOL   C188 6738   2.273   2.482   6.908  0.7845  0.0006  1.0466
   26MOL   H189 6739   2.535   2.843   6.800 -0.8572 -1.2722  1.2946
   26MOL   H190 6740   2.535   2.879   6.971  1.8595 -0.4598  2.0904
   26MOL   H191 6741   2.642   2.627   6.862  0.9714 -0.4757  1.2873
   26MOL   H192 6742   2.453   2.453   7.011  1.4971  0.9275  0.5061
   26MOL   H193 6743   2.464   2.455   6.830  1.2431 -0.4168  0.4653
   26MOL   H194 6744   2.224   2.494   6.811  1.0595  1.1053  1.0287
   26MOL   H195 6745   2.258   2.377   6.930 -1.5136  0.0681 -0.0146
   26MOL   H196 6746   2.220   2.558   6.966  2.5739  0.7729  1.7006
   26MOL   C197 6747   2.637   2.656   7.073  0.9004  0.2816 -1.1301
   26MOL   C198 6748   2.740   2.541   7.084  0.5542  0.8695 -0.0130
   26MOL   O199 6749   2.678   2.410   7.064  0.0403 -0.1714 -0.1317
   26MOL   C200 6750   2.735   2.340   6.955  0.4954 -0.0590  0.1823
   26MOL   C201 6751   2.667   2.207   6.927 -0.2454  0.6952  0.0405
   26MOL   H202 6752   2.559   2.643   7.148 -0.0465  1.9101 -1.8042
   26MOL   H203 6753   2.693   2.742   7.109 -0.6029  0.3779  1.0791
   26MOL   H204 6754   2.816   2.562   7.008  0.2716  0.4693 -0.4075
   26MOL   H205 6755   2.839   2.315   6.976  0.4399  0.1440  0.7145
   26MOL   H206 6756   2.755   2.400   6.866  0.0508  0.3362  0.3448
   26MOL   H207 6757   2.564   2.220   6.892 -0.2091 -0.9072 -0.7136
   26MOL   H208 6758   2.721   2.133   6.867 -1.3930 -0.4997  0.4494
   26MOL   H209 6759   2.661   2.156   7.023 -2.0307 -2.0406 -1.4255
   26MOL   C210 6760   2.819   2.528   7.219  0.1654  0.4772  0.1081
   26MOL   C211 6761   2.920   2.647   7.246 -0.1206  0.3948 -0.5744
   26MOL   O212 6762   3.021   2.652   7.140 -0.0154  0.0702  0.1004
   26MOL   C213 6763   3.073   2.522   7.108 -0.2789 -0.2064  0.3522
   26MOL   C214 6764   3.207   2.537   7.029 -0.0112  0.4212  0.2759
   26MOL   H215 6765   2.876   2.437   7.235 -1.1777 -0.2822  0.6170
   26MOL   H216 6766   2.736   2.524   7.289 -0.2434 -0.1991 -0.4068
   26MOL   H217 6767   2.872   2.744   7.230 -1.1173 -0.2798 -1.7155
   26MOL   H218 6768   3.015   2.459   7.039 -1.5845  0.8296  0.4998
   26MOL   H219 6769   3.103   2.471   7.200  1.4167  0.4347  0.1767
   26MOL   H220 6770   3.256   2.628   7.062 -1.6773  1.0626  0.9959
   26MOL   H221 6771   3.277   2.457   7.056  1.0185  1.1162 -0.2924
   26MOL   H222 6772   3.190   2.546   6.922 -0.4898 -0.3268  0.2807
   26MOL   C223 6773   2.978   2.628   7.386 -0.5690 -0.6323 -0.1167
   26MOL   C224 6774   2.898   2.688   7.503  0.2709  0.0850 -0.2803
   26MOL   O225 6775   2.769   2.637   7.515 -0.1352 -0.6095 -0.2766
   26MOL   C226 6776   2.760   2.519   7.600  0.4367  0.1701  0.1107
   26MOL   C227 6777   2.614   2.470   7.597 -0.1252 -0.5953  0.3300
   26MOL   H228 6778   3.081   2.664   7.383 -0.7378  0.0482  1.6238
   26MOL   H229 6779   3.001   2.523   7.407  0.3767 -0.9771 -2.7247
   26MOL   H230 6780   2.945   2.663   7.598  0.5521  3.0655  0.4148
   26MOL   H231 6781   2.786   2.557   7.699 -0.4428 -0.8480  0.7389
   26MOL   H232 6782   2.842   2.449   7.586 -0.2505 -0.5500 -0.2761
   26MOL   H233 6783   2.544   2.554   7.594 -0.9453 -1.3141 -1.5940
   26MOL   H234 6784   2.598   2.412   7.507  0.1090 -1.4012  0.8030
   26MOL   H235 6785   2.596   2.412   7.687  0.2863 -2.5538 -0.8350
   26MOL   C236 6786   2.888   2.841   7.496 -0.0055  0.1588 -0.3462
   26MOL   C237 6787   3.020   2.919   7.488  0.0741  0.0822 -0.1618
   26MOL   O238 6788   3.097   2.878   7.599  0.1895 -0.1141  0.2708
   26MOL   C239 6789   3.235   2.875   7.567  0.2532  0.7551  0.0938
   26MOL   C240 6790   3.313   2.825   7.683  0.9536 -0.5386 -1.0765
   26MOL   H241 6791   2.834   2.878   7.583  2.1831  0.9219  0.7095
   26MOL   H242 6792   2.810   2.869   7.425  1.8789  1.4108 -1.9798
   26MOL   H243 6793   3.059   2.908   7.387  0.2324  3.2126 -0.4917
   26MOL   H244 6794   3.278   2.972   7.543  1.6379 -0.0498 -0.7575
   26MOL   H245 6795   3.258   2.814   7.480  0.9493  0.4461  0.4909
   26MOL   H246 6796   3.270   2.726   7.700  0.3757 -0.2878 -1.0655
   26MOL   H247 6797   3.413   2.817   7.642  0.6436  3.0089 -2.7148
   26MOL   H248 6798   3.300   2.880   7.777  1.3827  0.0293 -1.3517
   26MOL   C249 6799   2.990   3.073   7.493 -0.3774 -0.0750 -0.3282
   26MOL   C250 6800   2.926   3.112   7.358  0.6059 -0.4007 -0.2182
   26MOL   O251 6801   2.908   3.254   7.354 -0.1278 -0.2767 -0.1704
   26MOL   C252 6802   2.808   3.323   7.273  0.1826 -0.3242  0.8970
   26MOL   C253 6803   2.811   3.465   7.312  0.2048  0.0615  0.2540
   26MOL   H254 6804   3.074   3.141   7.496 -2.1653  2.3837 -2.6821
   26MOL   H255 6805   2.919   3.101   7.571 -3.1618 -1.5769 -2.2089
   26MOL   H256 6806   2.991   3.083   7.275  0.0416  1.6002 -1.4048
   26MOL   H257 6807   2.707   3.291   7.298  0.4607 -1.9874 -0.0223
   26MOL   H258 6808   2.819   3.302   7.166  0.1978  1.4899  0.5294
   26MOL   H259 6809   2.908   3.509   7.291 -0.9812  2.2795 -0.6774
   26MOL   H260 6810   2.737   3.517   7.252  1.1121 -0.2808 -1.1843
   26MOL   H261 6811   2.791   3.470   7.419  1.1892 -0.0136  0.4499
   26MOL   H262 6812   2.830   3.063   7.339  0.1142  0.1180  0.8641
   27MOL     C1 6813   5.677   4.590   2.358 -0.0536 -0.3084  0.2630
   27MOL     C2 6814   5.651   4.736   2.407 -0.6980  0.5403 -0.2943
   27MOL     O3 6815   5.723   4.806   2.310 -0.3268  0.2852  0.0591
   27MOL     C4 6816   5.701   4.949   2.314  0.0047 -0.2641 -0.1875
   27MOL     C5 6817   5.750   5.008   2.179  0.2169  0.2050 -0.5374
   27MOL     H6 6818   5.594   4.523   2.381  0.8024 -1.0672  1.1879
   27MOL     H7 6819   5.695   4.588   2.250 -0.3896  2.0670  0.1378
   27MOL     H8 6820   5.546   4.753   2.384 -0.4781  1.7236 -0.4676
   27MOL     H9 6821   5.750   5.004   2.395 -0.0193  0.4183 -0.6410
   27MOL    H10 6822   5.595   4.973   2.309 -0.0246  1.3368  5.0580
   27MOL    H11 6823   5.855   4.985   2.159 -0.5133 -2.2719 -1.6991
   27MOL    H12 6824   5.704   4.959   2.093  0.1524 -1.3195  0.3511
   27MOL    H13 6825   5.737   5.116   2.176 -0.9621  0.1754  2.1106
   27MOL    H14 6826   5.762   4.551   2.414 -1.2997 -1.3738  1.4389
   27MOL    C15 6827   5.658   4.766   2.556  0.3989 -0.5043 -0.1998
   27MOL    C16 6828   5.575   4.676   2.650  0.1871 -0.0243 -0.2045
   27MOL    O17 6829   5.441   4.698   2.611  0.4650 -0.5984 -0.1444
   27MOL    C18 6830   5.357   4.594   2.645  0.2825  0.7588 -0.3186
   27MOL    C19 6831   5.235   4.607   2.549  0.5888 -0.4964  0.0496
   27MOL    H20 6832   5.630   4.869   2.579 -1.1815 -1.5357  2.7021
   27MOL    H21 6833   5.764   4.768   2.583  0.6307 -1.4568 -1.0004
   27MOL    H22 6834   5.599   4.571   2.630 -0.7461 -0.5561  1.3941
   27MOL    H23 6835   5.333   4.580   2.750  1.5200  1.7825  0.1184
   27MOL    H24 6836   5.400   4.497   2.621  0.1225  0.2679  1.3138
   27MOL    H25 6837   5.275   4.599   2.448  0.6728 -1.3250  0.1520
   27MOL    H26 6838   5.188   4.700   2.582  2.2611  0.2700  0.3587
   27MOL    H27 6839   5.175   4.520   2.574  0.2323 -0.8119 -1.8777
   27MOL    C28 6840   5.596   4.719   2.800 -0.3241  0.0078 -0.3116
   27MOL    C29 6841   5.728   4.672   2.862  0.7978 -0.1946  0.4125
   27MOL    O30 6842   5.721   4.534   2.889 -0.2353  0.8135  0.2689
   27MOL    C31 6843   5.848   4.463   2.880 -0.1103  0.7413 -0.3811
   27MOL    C32 6844   5.827   4.310   2.870  0.2614  0.1938  0.3603
   27MOL    H33 6845   5.520   4.674   2.864 -1.3387  1.0819 -0.7481
   27MOL    H34 6846   5.580   4.826   2.810  1.4025  0.1556  1.1207
   27MOL    H35 6847   5.801   4.692   2.784  0.3130 -3.4297 -0.9619
   27MOL    H36 6848   5.910   4.488   2.966 -0.0773  0.1557 -0.2374
   27MOL    H37 6849   5.905   4.504   2.797  0.0383  0.5044 -0.3964
   27MOL    H38 6850   5.926   4.271   2.846  0.8556  1.6615  0.3381
   27MOL    H39 6851   5.795   4.265   2.964 -1.1422  0.0167 -0.2039
   27MOL    H40 6852   5.758   4.295   2.787  2.8341 -1.0807 -1.6389
   27MOL    C41 6853   5.768   4.743   2.987  0.1722 -0.4137 -0.0704
   27MOL    C42 6854   5.702   4.700   3.121  0.4219 -0.0622  0.0961
   27MOL    O43 6855   5.574   4.760   3.132 -0.0834 -0.1275  0.3794
   27MOL    C44 6856   5.488   4.686   3.223  0.5702  0.2186  0.0119
   27MOL    C45 6857   5.387   4.778   3.299 -0.4101  0.0603 -0.3857
   27MOL    H46 6858   5.772   4.852   2.979  4.5964 -0.5164 -0.2840
   27MOL    H47 6859   5.875   4.729   2.996  0.5194  2.0049 -0.0738
   27MOL    H48 6860   5.692   4.592   3.132  0.7401 -0.0774  0.2270
   27MOL    H49 6861   5.544   4.632   3.299  0.6622  0.3760  0.0570
   27MOL    H50 6862   5.415   4.621   3.176 -0.7020  2.0494 -0.6087
   27MOL    H51 6863   5.303   4.810   3.237 -1.4425 -3.5038 -0.9318
   27MOL    H52 6864   5.342   4.726   3.383 -0.7895  0.4980 -0.3201
   27MOL    H53 6865   5.442   4.862   3.342  1.1339 -0.5782 -1.0467
   27MOL    C54 6866   5.794   4.755   3.236  0.1582 -0.3508 -0.2193
   27MOL    C55 6867   5.909   4.664   3.268  0.0163 -0.1143 -0.1093
   27MOL    O56 6868   5.860   4.541   3.335  0.4218  0.1612  0.4102
   27MOL    C57 6869   5.855   4.429   3.253  0.5885 -0.3731 -0.0266
   27MOL    C58 6870   5.857   4.296   3.333 -0.1956  0.0356  0.8304
   27MOL    H59 6871   5.736   4.766   3.327  0.7825 -1.8387  0.3664
   27MOL    H60 6872   5.838   4.854   3.219  1.4690 -1.5652 -4.8525
   27MOL    H61 6873   5.976   4.645   3.184  1.1585  1.6450  0.3705
   27MOL    H62 6874   5.951   4.429   3.202  1.0680  1.4311  0.8246
   27MOL    H63 6875   5.786   4.420   3.169 -2.8001  0.1441  2.6014
   27MOL    H64 6876   5.948   4.281   3.392  0.9504  1.2797 -0.5868
   27MOL    H65 6877   5.767   4.273   3.389 -1.4154 -1.6623 -1.7221
   27MOL    H66 6878   5.855   4.212   3.264 -2.2482  0.9613 -0.2789
   27MOL    C67 6879   6.001   4.722   3.379  0.0816  0.4747 -0.5402
   27MOL    C68 6880   6.132   4.636   3.385 -0.6292 -0.2831  0.0527
   27MOL    O69 6881   6.179   4.688   3.513  0.1674 -0.2803  0.0340
   27MOL    C70 6882   6.171   4.587   3.613  0.3726 -0.0205 -0.4184
   27MOL    C71 6883   6.207   4.649   3.745  0.2543 -0.4673  0.1413
   27MOL    H72 6884   5.957   4.698   3.476  1.4979  0.0571  0.0234
   27MOL    H73 6885   6.022   4.829   3.370 -1.9547  1.0053  0.7425
   27MOL    H74 6886   6.105   4.531   3.377  0.6541 -0.6251  0.2206
   27MOL    H75 6887   6.241   4.508   3.586 -0.9874 -1.2480 -0.4370
   27MOL    H76 6888   6.075   4.536   3.607  0.6397 -0.3980 -1.5297
   27MOL    H77 6889   6.309   4.686   3.747  0.6228 -1.4703  0.4173
   27MOL    H78 6890   6.137   4.730   3.768  0.6951 -0.4744  1.5722
   27MOL    H79 6891   6.194   4.580   3.828 -1.1226 -0.2992  0.0925
   27MOL    C80 6892   6.236   4.688   3.279  0.3662  0.0935 -0.0567
   27MOL    C81 6893   6.387   4.645   3.303 -0.0991  0.3887 -0.2595
   27MOL    O82 6894   6.460   4.692   3.191 -0.0988  0.0292 -0.5673
   27MOL    C83 6895   6.475   4.842   3.175 -0.0485  0.0616  0.4131
   27MOL    C84 6896   6.595   4.856   3.083 -0.0993 -1.2210 -0.4225
   27MOL    H85 6897   6.229   4.797   3.272  1.4296  0.3410  2.3126
   27MOL    H86 6898   6.209   4.646   3.182  1.0045 -0.7509  0.1260
   27MOL    H87 6899   6.432   4.685   3.394  1.0996  0.8490 -1.0384
   27MOL    H88 6900   6.492   4.897   3.268  2.7694 -1.7378  1.0367
   27MOL    H89 6901   6.393   4.891   3.123  0.5983 -0.0716 -0.7323
   27MOL    H90 6902   6.640   4.956   3.087 -1.9445 -0.4150  1.5775
   27MOL    H91 6903   6.682   4.799   3.113 -0.3525 -1.3274  0.1135
   27MOL    H92 6904   6.580   4.843   2.976  1.0678 -0.1286 -0.7332
   27MOL    C93 6905   6.407   4.497   3.303  0.3544 -0.0484  0.6372
   27MOL    C94 6906   6.549   4.437   3.325  0.8497  0.2099  0.2189
   27MOL    O95 6907   6.522   4.300   3.357  0.7843 -0.4208 -0.3793
   27MOL    C96 6908   6.524   4.216   3.247  0.5418  0.8659  0.0928
   27MOL    C97 6909   6.459   4.082   3.278 -0.0913 -0.0351  0.5342
   27MOL    H98 6910   6.362   4.459   3.211  0.3966 -0.4672  0.7851
   27MOL    H99 6911   6.342   4.448   3.375  1.2435  0.5510  1.8626
   27MOL   H100 6912   6.594   4.447   3.226 -3.1710  1.3542 -1.5756
   27MOL   H101 6913   6.628   4.202   3.218  0.2821  0.6103 -0.7141
   27MOL   H102 6914   6.462   4.255   3.167  1.3299  1.1899 -0.3636
   27MOL   H103 6915   6.468   4.011   3.196 -0.9931 -1.8071  1.9267
   27MOL   H104 6916   6.501   4.033   3.366  1.0214  0.5605  0.3309
   27MOL   H105 6917   6.352   4.096   3.299 -0.2152  0.0255 -0.1340
   27MOL   C106 6918   6.626   4.491   3.446  0.0511  0.7337 -0.2692
   27MOL   C107 6919   6.777   4.440   3.462  0.3096  0.7112  0.5178
   27MOL   O108 6920   6.771   4.305   3.509  0.2236  0.3503 -0.1430
   27MOL   C109 6921   6.859   4.225   3.440 -0.1333 -0.3695  0.3399
   27MOL   C110 6922   6.858   4.082   3.493  0.1913  0.0075  0.0204
   27MOL   H111 6923   6.572   4.489   3.540  0.2286 -1.0906 -0.1971
   27MOL   H112 6924   6.636   4.596   3.420  3.2850  0.1923 -1.5287
   27MOL   H113 6925   6.810   4.439   3.358 -0.8467  1.4314  0.1353
   27MOL   H114 6926   6.961   4.264   3.438 -0.7241  1.2725  1.5286
   27MOL   H115 6927   6.822   4.216   3.338  2.7237  0.0752 -0.7880
   27MOL   H116 6928   6.761   4.050   3.456 -1.0651  2.7199  0.8154
   27MOL   H117 6929   6.944   4.025   3.458 -0.4752 -0.8203 -0.2867
   27MOL   H118 6930   6.857   4.090   3.602 -1.8234 -1.9095  0.1741
   27MOL   C119 6931   6.867   4.536   3.540  0.4499 -0.0959 -0.6973
   27MOL   C120 6932   6.893   4.673   3.488  0.2004 -0.4352 -0.3742
   27MOL   O121 6933   6.967   4.664   3.372 -0.6647  0.3388 -0.3400
   27MOL   C122 6934   6.900   4.694   3.251 -0.1390  0.5944 -0.5778
   27MOL   C123 6935   6.998   4.686   3.134  0.5920  0.2467 -0.4738
   27MOL   H124 6936   6.966   4.493   3.558 -0.2451 -1.3577  0.1436
   27MOL   H125 6937   6.833   4.551   3.642  1.1656 -1.1785 -0.2807
   27MOL   H126 6938   6.795   4.719   3.479  0.4456  0.2370  0.2905
   27MOL   H127 6939   6.867   4.798   3.260  0.3977  0.9415 -2.4384
   27MOL   H128 6940   6.813   4.632   3.234 -1.1177  1.9618 -0.6873
   27MOL   H129 6941   7.047   4.589   3.126  0.0859 -0.3720  2.8990
   27MOL   H130 6942   6.953   4.700   3.036  1.5845  0.2472 -0.9340
   27MOL   H131 6943   7.073   4.765   3.140 -1.6321  2.3204  0.5467
   27MOL   C132 6944   6.969   4.771   3.577 -0.0512  0.5573 -0.3114
   27MOL   C133 6945   6.897   4.800   3.718  0.4494 -0.3806  0.2162
   27MOL   O134 6946   6.781   4.871   3.685 -0.1260  0.6268  0.3461
   27MOL   C135 6947   6.652   4.821   3.724 -0.1680  0.1213  0.2546
   27MOL   C136 6948   6.536   4.897   3.656 -0.0379  0.4347  0.2212
   27MOL   H137 6949   6.998   4.871   3.544  0.7837  0.5409  0.3525
   27MOL   H138 6950   7.067   4.726   3.590  0.0140  1.3342  2.1317
   27MOL   H139 6951   6.878   4.707   3.772  1.5963  0.7592  2.6758
   27MOL   H140 6952   6.645   4.828   3.832  2.3763  3.0059  0.3194
   27MOL   H141 6953   6.646   4.715   3.702  0.2087 -0.0172  0.8129
   27MOL   H142 6954   6.546   4.894   3.548 -1.6449  2.9413 -0.0241
   27MOL   H143 6955   6.440   4.851   3.678  0.4454 -1.0122 -0.5945
   27MOL   H144 6956   6.536   5.002   3.685  2.8548  0.3038  0.8510
   27MOL   C145 6957   6.985   4.894   3.808  0.2484  0.0382  0.5085
   27MOL   C146 6958   6.936   4.924   3.948  0.7058 -1.0889 -0.8166
   27MOL   O147 6959   7.037   5.012   3.997 -0.6174  0.0511 -0.0140
   27MOL   C148 6960   6.998   5.149   4.013  0.1275  0.6451  0.0815
   27MOL   C149 6961   6.939   5.167   4.151  0.4729 -0.3782  0.0819
   27MOL   H150 6962   6.982   4.987   3.753  1.4629  0.4681  1.1525
   27MOL   H151 6963   7.083   4.847   3.809  0.1964 -0.0716  0.4974
   27MOL   H152 6964   6.840   4.976   3.940  1.4449  0.5167  0.3210
   27MOL   H153 6965   6.925   5.173   3.936  0.3409 -0.8379 -0.5953
   27MOL   H154 6966   7.091   5.204   3.997  0.2701  0.0415 -1.2128
   27MOL   H155 6967   6.930   5.273   4.176 -0.8746 -0.2174 -1.0420
   27MOL   H156 6968   6.835   5.141   4.167  0.1393  0.6192 -0.3747
   27MOL   H157 6969   7.008   5.113   4.215  1.5017 -1.0298 -1.5334
   27MOL   C158 6970   6.923   4.800   4.031  0.0041  0.1943  0.2169
   27MOL   C159 6971   6.841   4.822   4.164  0.5134  0.2364 -0.2277
   27MOL   O160 6972   6.852   4.712   4.255  0.2263 -0.5186  0.6003
   27MOL   C161 6973   6.949   4.741   4.358  0.8153  0.4284  0.1664
   27MOL   C162 6974   6.952   4.615   4.436 -0.5043  0.3438  0.1406
   27MOL   H163 6975   7.023   4.768   4.058  0.6725  1.1506 -1.0555
   27MOL   H164 6976   6.871   4.714   3.986  0.5014 -0.1504  0.2930
   27MOL   H165 6977   6.859   4.922   4.205 -1.9694  0.3631  0.6513
   27MOL   H166 6978   6.918   4.822   4.423 -2.2220  0.3776 -1.1332
   27MOL   H167 6979   7.049   4.767   4.322 -0.4275  1.9403 -2.3862
   27MOL   H168 6980   7.022   4.623   4.519  0.2839 -1.3106 -0.3569
   27MOL   H169 6981   6.855   4.576   4.468 -0.3786  0.0459  0.1616
   27MOL   H170 6982   6.995   4.541   4.369 -1.0719  0.9444 -0.8975
   27MOL   C171 6983   6.681   4.821   4.141  0.3717 -0.1367  0.0629
   27MOL   C172 6984   6.596   4.858   4.266 -0.1862 -0.3512  0.5937
   27MOL   O173 6985   6.465   4.814   4.234 -0.3189  0.1773  0.2235
   27MOL   C174 6986   6.441   4.675   4.260 -0.1517  0.2645 -0.1328
   27MOL   C175 6987   6.317   4.645   4.177 -0.7036  1.2035  0.3373
   27MOL   H176 6988   6.653   4.719   4.117  1.1541 -0.4009  0.2744
   27MOL   H177 6989   6.641   4.887   4.064  1.4969 -1.0675 -1.3425
   27MOL   H178 6990   6.634   4.810   4.356  0.2574 -0.3891  0.3904
   27MOL   H179 6991   6.423   4.648   4.365 -0.9280 -3.6561 -1.2014
   27MOL   H180 6992   6.513   4.597   4.237 -0.8245 -0.1472 -0.8619
   27MOL   H181 6993   6.298   4.537   4.182  2.9824  0.4241 -1.2709
   27MOL   H182 6994   6.240   4.694   4.238  0.3275 -0.2475  2.8850
   27MOL   H183 6995   6.311   4.682   4.075 -0.4714  1.3270  0.3691
   27MOL   C184 6996   6.583   5.009   4.295  0.9299  0.2557  0.1920
   27MOL   C185 6997   6.460   5.059   4.379 -0.3392 -0.9600 -0.2520
   27MOL   O186 6998   6.463   5.205   4.395  0.0245  0.2950 -0.1219
   27MOL   C187 6999   6.409   5.277   4.288  0.4121  0.3349 -0.1358
   27MOL   C188 7000   6.401   5.427   4.324 -0.4322  0.0901  0.1238
   27MOL   H189 7001   6.571   5.062   4.200 -0.4373  0.9880  0.7509
   27MOL   H190 7002   6.677   5.040   4.341  2.4601 -3.1919 -0.5063
   27MOL   H191 7003   6.373   5.032   4.320 -0.1752 -1.0890 -0.4349
   27MOL   H192 7004   6.305   5.250   4.272  0.8475  0.0197 -2.6400
   27MOL   H193 7005   6.456   5.271   4.190  0.2181  2.0542 -0.3516
   27MOL   H194 7006   6.353   5.440   4.421 -0.4165  1.5238 -0.0405
   27MOL   H195 7007   6.500   5.473   4.329  0.7871 -2.3328 -0.9121
   27MOL   H196 7008   6.344   5.482   4.250  0.0810 -1.0257 -1.1137
   27MOL   C197 7009   6.452   4.987   4.515  0.1487 -0.4711  0.8766
   27MOL   C198 7010   6.319   5.009   4.594 -0.0709  0.2723  0.4221
   27MOL   O199 7011   6.313   4.935   4.712 -0.2764  0.0862 -0.2656
   27MOL   C200 7012   6.382   4.984   4.829 -0.4181 -0.0279  0.0202
   27MOL   C201 7013   6.335   4.889   4.940  0.1847 -1.3394 -0.7861
   27MOL   H202 7014   6.530   5.029   4.579 -0.9254  2.4816  0.3284
   27MOL   H203 7015   6.461   4.880   4.496  1.5018 -0.1956 -0.1271
   27MOL   H204 7016   6.316   5.117   4.602  0.0154  0.0697  3.8659
   27MOL   H205 7017   6.345   5.084   4.851 -2.1415 -0.3637 -1.2422
   27MOL   H206 7018   6.490   4.993   4.820 -0.7144  3.4819 -0.5795
   27MOL   H207 7019   6.342   4.929   5.041  0.4518  0.3701 -1.4519
   27MOL   H208 7020   6.228   4.876   4.924 -0.3617  1.3220  0.4527
   27MOL   H209 7021   6.385   4.792   4.937  3.2308  0.0847  0.9448
   27MOL   C210 7022   6.202   4.970   4.508  0.4316 -0.0782  0.4945
   27MOL   C211 7023   6.067   4.941   4.582  0.0611  0.2648 -0.2271
   27MOL   O212 7024   5.985   4.882   4.483 -0.1720 -0.4235  0.1214
   27MOL   C213 7025   5.975   4.741   4.484  0.2433  0.8145  0.3566
   27MOL   C214 7026   5.878   4.676   4.580 -0.4912 -0.2120 -0.0457
   27MOL   H215 7027   6.238   4.881   4.458 -0.2442 -0.0894  0.0095
   27MOL   H216 7028   6.187   5.038   4.423 -1.1446 -2.8327 -1.4987
   27MOL   H217 7029   6.094   4.867   4.657 -1.1817 -1.9469 -1.8936
   27MOL   H218 7030   6.075   4.698   4.490  1.3209  3.2433  0.6101
   27MOL   H219 7031   5.936   4.712   4.387 -1.5596 -1.9975  1.8518
   27MOL   H220 7032   5.883   4.710   4.684 -0.4083 -2.0589  0.5715
   27MOL   H221 7033   5.771   4.692   4.564 -0.4299 -0.0303 -0.2767
   27MOL   H222 7034   5.901   4.570   4.572 -0.1171 -0.1998  0.7817
   27MOL   C223 7035   6.002   5.070   4.641  0.4490  0.4352 -0.0876
   27MOL   C224 7036   5.852   5.063   4.693  0.1830  0.5837  0.3510
   27MOL   O225 7037   5.823   5.196   4.739  0.2759 -0.1711  0.5056
   27MOL   C226 7038   5.735   5.269   4.660 -0.2161  0.4506 -0.1278
   27MOL   C227 7039   5.714   5.403   4.736  0.1900  0.5506 -0.0834
   27MOL   H228 7040   6.013   5.155   4.573  0.0109 -0.4393 -1.2692
   27MOL   H229 7041   6.063   5.106   4.724 -0.1248  0.8297  0.1686
   27MOL   H230 7042   5.787   5.030   4.612  2.2731 -0.3354 -0.9961
   27MOL   H231 7043   5.643   5.214   4.643 -0.7423  1.1021  0.5706
   27MOL   H232 7044   5.777   5.289   4.561  0.9011 -1.9220 -0.1774
   27MOL   H233 7045   5.690   5.388   4.842 -1.6291 -0.5360 -0.6223
   27MOL   H234 7046   5.785   5.484   4.721  0.1773  0.8259  1.2269
   27MOL   H235 7047   5.615   5.440   4.708 -0.5784 -3.2339 -2.7323
   27MOL   C236 7048   5.834   4.982   4.826  0.0859  0.4351 -0.5983
   27MOL   C237 7049   5.681   4.971   4.869 -0.0784  0.0610  0.3721
   27MOL   O238 7050   5.678   4.942   5.010 -0.0652  0.0382  0.0677
   27MOL   C239 7051   5.706   5.050   5.092  0.5937  0.8282 -0.0047
   27MOL   C240 7052   5.580   5.135   5.128 -0.3850  0.0501  0.1038
   27MOL   H241 7053   5.904   5.017   4.902 -0.7161 -1.5956  1.1210
   27MOL   H242 7054   5.886   4.890   4.799  1.6945  1.7629 -2.1953
   27MOL   H243 7055   5.639   5.069   4.843  0.0249 -0.0820 -0.3635
   27MOL   H244 7056   5.797   5.106   5.071  0.4743  0.8653 -0.4460
   27MOL   H245 7057   5.732   5.012   5.190 -1.5224  0.2663  0.3574
   27MOL   H246 7058   5.541   5.192   5.043 -1.4683 -0.9450 -0.0825
   27MOL   H247 7059   5.488   5.091   5.165 -0.1036  0.9330  1.9025
   27MOL   H248 7060   5.607   5.206   5.206  1.4584 -1.6540  1.0532
   27MOL   C249 7061   5.601   4.861   4.795  0.1196  0.2467  0.1020
   27MOL   C250 7062   5.457   4.859   4.843  0.0058 -0.5210 -0.3034
   27MOL   O251 7063   5.380   4.786   4.744  0.1391  0.4963  0.3168
   27MOL   C252 7064   5.240   4.774   4.767  0.0726 -0.4195  0.6157
   27MOL   C253 7065   5.186   4.678   4.658 -0.2096 -0.7370  0.0381
   27MOL   H254 7066   5.639   4.759   4.798 -1.7432 -0.3881  3.3425
   27MOL   H255 7067   5.616   4.890   4.691 -0.8826  0.4914  0.0207
   27MOL   H256 7068   5.450   4.805   4.938 -2.1170  3.4217  1.9231
   27MOL   H257 7069   5.194   4.872   4.779 -1.0805 -1.0566  1.4573
   27MOL   H258 7070   5.217   4.724   4.861 -3.8153 -1.2809 -0.7066
   27MOL   H259 7071   5.254   4.594   4.651  2.0149  1.3101 -4.7324
   27MOL   H260 7072   5.082   4.647   4.670 -0.6369  0.5228 -0.3237
   27MOL   H261 7073   5.200   4.726   4.562  0.4793 -0.7714  0.1228
   27MOL   H262 7074   5.412   4.958   4.847 -2.0743 -1.4395 -0.4611
   28MOL     C1 7075   3.325   3.037   4.745  0.4970 -0.3070 -0.2367
   28MOL     C2 7076   3.228   2.997   4.628 -0.3592 -0.0029  0.2362
   28MOL     O3 7077   3.119   3.088   4.616  0.5515 -0.0121  0.1081
   28MOL     C4 7078   3.166   3.222   4.585 -0.0650  0.4448 -0.3884
   28MOL     C5 7079   3.036   3.304   4.576 -0.0237  0.1787 -0.7112
   28MOL     H6 7080   3.269   3.047   4.838  0.7669 -0.9598  0.0045
   28MOL     H7 7081   3.408   2.968   4.759  1.2027  0.4032 -0.9010
   28MOL     H8 7082   3.283   3.001   4.533  0.6282  2.8633  0.9061
   28MOL     H9 7083   3.216   3.213   4.489  3.5418  2.3905  1.1941
   28MOL    H10 7084   3.239   3.268   4.652  0.1042 -0.6406  0.1770
   28MOL    H11 7085   3.058   3.404   4.539  0.3471  0.8316  1.2541
   28MOL    H12 7086   2.973   3.253   4.503 -0.1930  0.4398 -0.7458
   28MOL    H13 7087   2.989   3.309   4.674 -0.7178 -3.5601 -0.7746
   28MOL    H14 7088   3.371   3.135   4.733 -1.6742  0.8772  0.9654
   28MOL    C15 7089   3.174   2.852   4.656  0.6032  0.8266  0.0043
   28MOL    C16 7090   3.088   2.785   4.548  0.0476  0.7154 -0.3125
   28MOL    O17 7091   3.047   2.655   4.583 -0.1690 -0.2667  0.2160
   28MOL    C18 7092   2.917   2.617   4.533  0.5187 -0.9612  0.0689
   28MOL    C19 7093   2.902   2.469   4.578 -0.8785  0.3610  0.1658
   28MOL    H20 7094   3.103   2.860   4.738  2.6865 -0.0056  1.9586
   28MOL    H21 7095   3.249   2.780   4.689 -0.6055 -1.4144 -1.9810
   28MOL    H22 7096   2.996   2.842   4.533 -1.5995 -1.1557  2.2978
   28MOL    H23 7097   2.912   2.619   4.424 -0.3037  1.3634  0.1137
   28MOL    H24 7098   2.836   2.672   4.582 -0.3207 -0.5738 -1.7278
   28MOL    H25 7099   2.808   2.430   4.541  0.5603 -1.6901 -1.4185
   28MOL    H26 7100   2.894   2.475   4.687 -1.0847 -0.4428  0.1993
   28MOL    H27 7101   2.980   2.400   4.548 -0.9582  0.5888 -0.5791
   28MOL    C28 7102   3.137   2.789   4.404  0.3404  0.3668 -0.0076
   28MOL    C29 7103   3.268   2.711   4.386 -0.0633  0.1215  0.2384
   28MOL    O30 7104   3.377   2.798   4.415  0.4364 -0.2201 -0.2628
   28MOL    C31 7105   3.498   2.735   4.430 -0.0025 -0.8805  0.5230
   28MOL    C32 7106   3.597   2.846   4.466  0.3251  0.3376 -0.4389
   28MOL    H33 7107   3.150   2.895   4.381  0.6312  0.2006 -0.6355
   28MOL    H34 7108   3.058   2.753   4.339  0.5473  1.4659 -0.8873
   28MOL    H35 7109   3.264   2.632   4.461  0.6585 -0.4120 -0.2771
   28MOL    H36 7110   3.532   2.696   4.334  0.5978 -0.9814  0.7739
   28MOL    H37 7111   3.482   2.664   4.510 -2.2745 -1.7825 -0.6914
   28MOL    H38 7112   3.702   2.818   4.468 -0.0598 -1.1214 -0.2425
   28MOL    H39 7113   3.593   2.937   4.406  0.0839  1.0848  0.6970
   28MOL    H40 7114   3.574   2.881   4.566  0.0174  1.8671 -1.0193
   28MOL    C41 7115   3.281   2.657   4.239  0.3748  0.0168 -0.5622
   28MOL    C42 7116   3.325   2.509   4.237 -0.5852 -0.0816  0.4199
   28MOL    O43 7117   3.361   2.471   4.106 -0.6265  0.0089 -0.0163
   28MOL    C44 7118   3.431   2.351   4.100  0.1234  0.3515  0.0168
   28MOL    C45 7119   3.486   2.324   3.956 -0.4823  0.2080  0.3015
   28MOL    H46 7120   3.359   2.720   4.198  2.3070 -0.3805  2.3139
   28MOL    H47 7121   3.194   2.664   4.174  0.2408  3.6860 -0.0931
   28MOL    H48 7122   3.410   2.496   4.303 -0.3819 -0.2877  0.1191
   28MOL    H49 7123   3.377   2.262   4.129 -1.4304  0.7471 -1.6231
   28MOL    H50 7124   3.525   2.360   4.156  0.5581  1.0937 -0.8019
   28MOL    H51 7125   3.555   2.398   3.914  1.8171 -2.8936 -1.6058
   28MOL    H52 7126   3.535   2.227   3.956  1.5477  1.1942  1.6951
   28MOL    H53 7127   3.401   2.324   3.889 -1.6519  1.0392  1.7708
   28MOL    C54 7128   3.213   2.416   4.291 -0.1127  0.4267  0.0539
   28MOL    C55 7129   3.102   2.384   4.185  0.4094  0.5667 -0.6726
   28MOL    O56 7130   3.004   2.487   4.187  0.1311 -0.5883  0.9392
   28MOL    C57 7131   2.983   2.560   4.063  0.1111  0.6261  0.2073
   28MOL    C58 7132   2.908   2.691   4.096 -0.4997 -0.3283  0.1711
   28MOL    H59 7133   3.160   2.452   4.379 -0.9953 -1.2170  0.2074
   28MOL    H60 7134   3.264   2.327   4.324 -0.4007  1.0399  2.2001
   28MOL    H61 7135   3.151   2.370   4.089  0.1024  0.9113 -0.8829
   28MOL    H62 7136   2.915   2.502   4.000  2.6402 -0.8883 -1.2067
   28MOL    H63 7137   3.075   2.568   4.006 -0.6338 -0.6993 -1.2141
   28MOL    H64 7138   2.979   2.759   4.142 -0.0429 -1.1100  0.6292
   28MOL    H65 7139   2.873   2.734   4.002  0.4853  0.7921  0.3083
   28MOL    H66 7140   2.821   2.679   4.160  0.3304 -0.3312  1.2985
   28MOL    C67 7141   3.036   2.251   4.217  0.1081  0.6072  0.4726
   28MOL    C68 7142   2.946   2.190   4.104 -0.3090 -0.1534  0.6882
   28MOL    O69 7143   2.846   2.112   4.163  0.0928 -0.1240 -0.0198
   28MOL    C70 7144   2.734   2.190   4.215  0.1481  0.0663  0.7987
   28MOL    C71 7145   2.633   2.095   4.273  0.3903  0.2142  0.5564
   28MOL    H72 7146   2.984   2.253   4.313  1.0171  0.6353  0.9656
   28MOL    H73 7147   3.111   2.173   4.234 -0.8322 -1.0316 -2.5141
   28MOL    H74 7148   2.896   2.269   4.048  2.1128  0.9455  0.0033
   28MOL    H75 7149   2.684   2.256   4.144  0.9568 -0.7856 -0.6077
   28MOL    H76 7150   2.753   2.262   4.295  1.2413  1.3570 -0.5872
   28MOL    H77 7151   2.627   2.011   4.203  0.9629  0.4128  0.2623
   28MOL    H78 7152   2.642   2.061   4.376 -0.9868 -0.4325  0.4820
   28MOL    H79 7153   2.532   2.135   4.276 -0.9711 -2.9454 -0.4281
   28MOL    C80 7154   3.019   2.094   4.013  0.6001  0.3377  0.0624
   28MOL    C81 7155   3.129   2.147   3.917  0.3095 -0.0917 -0.3460
   28MOL    O82 7156   3.056   2.236   3.840 -0.4029 -0.3586 -0.2217
   28MOL    C83 7157   3.135   2.334   3.777  0.0670 -0.3376 -0.1701
   28MOL    C84 7158   3.044   2.428   3.700 -0.2458 -0.5476  0.1932
   28MOL    H85 7159   2.951   2.036   3.951 -0.7218  1.6135  0.2988
   28MOL    H86 7160   3.062   2.022   4.083 -0.4686 -0.5601 -0.1893
   28MOL    H87 7161   3.210   2.201   3.966  1.1149 -0.8633 -0.8265
   28MOL    H88 7162   3.220   2.300   3.717  1.5645  1.0076  1.1278
   28MOL    H89 7163   3.180   2.397   3.854  0.2816 -0.6015 -0.0784
   28MOL    H90 7164   2.992   2.375   3.620  0.2992 -0.9923  0.1228
   28MOL    H91 7165   2.970   2.462   3.772 -0.3151 -3.8015  1.7936
   28MOL    H92 7166   3.096   2.516   3.663 -0.7250 -0.4617 -0.2897
   28MOL    C93 7167   3.193   2.038   3.833  0.0134 -0.0942 -0.3352
   28MOL    C94 7168   3.264   1.918   3.904 -0.6284 -0.1669 -1.1722
   28MOL    O95 7169   3.390   1.981   3.941 -0.2503  0.4469  0.3603
   28MOL    C96 7170   3.457   1.927   4.055 -0.7753  0.4669 -0.0677
   28MOL    C97 7171   3.584   1.996   4.097  0.4916 -0.4788 -0.0204
   28MOL    H98 7172   3.261   2.078   3.758  1.4185  0.0701  1.0013
   28MOL    H99 7173   3.107   1.993   3.784 -1.2168  0.2114  1.4880
   28MOL   H100 7174   3.200   1.888   3.987 -0.3022 -1.6220 -1.4486
   28MOL   H101 7175   3.482   1.822   4.045 -0.5794  0.3558  1.4463
   28MOL   H102 7176   3.390   1.932   4.141  0.1356  0.2525  0.6497
   28MOL   H103 7177   3.646   2.008   4.008 -0.5276  0.2322 -0.6376
   28MOL   H104 7178   3.567   2.102   4.118  0.0449 -0.6193  0.3301
   28MOL   H105 7179   3.649   1.951   4.172  1.0484  0.4320  0.0557
   28MOL   C106 7180   3.299   1.804   3.816  0.2226  0.3722  0.3405
   28MOL   C107 7181   3.196   1.741   3.721 -0.3574  0.0229 -0.0748
   28MOL   O108 7182   3.150   1.820   3.606 -0.1825  0.3426  0.3423
   28MOL   C109 7183   3.240   1.828   3.497 -0.7357  0.1717  0.6238
   28MOL   C110 7184   3.181   1.909   3.387  0.0412 -0.4760  0.0526
   28MOL   H111 7185   3.338   1.728   3.884 -1.6033 -1.4735 -0.5891
   28MOL   H112 7186   3.381   1.827   3.749 -0.4735  0.0424 -0.6400
   28MOL   H113 7187   3.235   1.647   3.683  0.1292  0.2262 -0.0823
   28MOL   H114 7188   3.264   1.727   3.463  1.3116  0.9546 -0.2916
   28MOL   H115 7189   3.334   1.876   3.523 -1.7536  2.4581  0.2103
   28MOL   H116 7190   3.205   2.015   3.396  1.1545 -0.6017 -1.1863
   28MOL   H117 7191   3.230   1.890   3.291 -0.3288 -0.4758 -0.1359
   28MOL   H118 7192   3.075   1.892   3.368  0.5973 -2.2158 -1.6879
   28MOL   C119 7193   3.065   1.713   3.808  0.5450  0.8454 -0.3182
   28MOL   C120 7194   2.977   1.609   3.741  0.2064  0.9901 -0.5915
   28MOL   O121 7195   2.914   1.663   3.627  0.5387 -0.0274  0.2029
   28MOL   C122 7196   2.910   1.587   3.507  0.5525 -0.0709  0.1030
   28MOL   C123 7197   2.833   1.656   3.400  0.7368 -0.7999  0.4119
   28MOL   H124 7198   3.012   1.807   3.822 -1.3339 -0.1956 -0.3710
   28MOL   H125 7199   3.083   1.686   3.912 -0.9546  1.1440  0.0335
   28MOL   H126 7200   3.047   1.527   3.723  0.2259  1.1587 -1.2930
   28MOL   H127 7201   2.862   1.493   3.536  1.5364 -0.9625 -1.0983
   28MOL   H128 7202   3.010   1.573   3.467  1.5300  1.8447  1.7958
   28MOL   H129 7203   2.884   1.746   3.366  1.5085 -1.1847  0.5408
   28MOL   H130 7204   2.822   1.583   3.320  1.4875 -0.2861 -0.1669
   28MOL   H131 7205   2.733   1.680   3.437  0.7385 -0.3848  0.1577
   28MOL   C132 7206   2.859   1.568   3.829 -0.2613  0.3425 -0.3473
   28MOL   C133 7207   2.896   1.470   3.949  0.0286  0.3614  0.4556
   28MOL   O134 7208   2.941   1.353   3.883 -0.1751  0.3842 -0.0595
   28MOL   C135 7209   3.056   1.291   3.946  0.1086  0.0463  0.0983
   28MOL   C136 7210   3.108   1.162   3.877 -0.2453 -0.2660 -0.5642
   28MOL   H137 7211   2.789   1.510   3.769  2.2374 -0.8211 -2.2431
   28MOL   H138 7212   2.804   1.649   3.877  1.1269  1.1343 -0.0555
   28MOL   H139 7213   2.974   1.519   4.006  0.4783  0.8738 -0.5792
   28MOL   H140 7214   3.042   1.268   4.052 -1.8109 -1.0855 -0.3840
   28MOL   H141 7215   3.137   1.364   3.939 -0.6925  0.8476 -0.7939
   28MOL   H142 7216   3.130   1.185   3.773  2.0410 -0.6422 -0.1882
   28MOL   H143 7217   3.200   1.119   3.916 -0.9917 -0.4516  1.0319
   28MOL   H144 7218   3.035   1.082   3.874  1.5664 -1.9977  0.2178
   28MOL   C145 7219   2.772   1.433   4.034  0.1786  0.5874 -0.0624
   28MOL   C146 7220   2.714   1.558   4.105  0.4022  0.7338 -0.2912
   28MOL   O147 7221   2.821   1.612   4.192  0.2674 -0.1778  0.3381
   28MOL   C148 7222   2.792   1.739   4.243  0.7403 -0.0812 -0.5629
   28MOL   C149 7223   2.915   1.808   4.301  0.0078  0.1626  0.8989
   28MOL   H150 7224   2.781   1.350   4.105  0.2734  0.4895 -0.1894
   28MOL   H151 7225   2.697   1.391   3.968  1.7858 -1.0646 -0.8997
   28MOL   H152 7226   2.684   1.636   4.035  1.7602  0.1481 -1.5596
   28MOL   H153 7227   2.737   1.725   4.336 -0.9797  0.0392 -1.5457
   28MOL   H154 7228   2.736   1.803   4.175 -0.5133 -1.9540 -1.3452
   28MOL   H155 7229   2.995   1.799   4.228 -0.6419 -1.1860  0.3519
   28MOL   H156 7230   2.896   1.915   4.313 -1.4359 -0.0184  0.3061
   28MOL   H157 7231   2.952   1.765   4.394  1.5867 -1.2661 -0.3609
   28MOL   C158 7232   2.596   1.520   4.204 -0.4094 -0.5964 -0.5657
   28MOL   C159 7233   2.479   1.453   4.135 -0.1896 -0.5575  0.4128
   28MOL   O160 7234   2.448   1.544   4.032  0.1810 -0.3536  0.0870
   28MOL   C161 7235   2.354   1.514   3.931 -0.2016 -0.2317  1.0344
   28MOL   C162 7236   2.369   1.609   3.816 -0.3809 -0.7025  0.0760
   28MOL   H163 7237   2.566   1.614   4.250 -0.6846  0.4521 -2.8495
   28MOL   H164 7238   2.633   1.454   4.283  0.4123  0.5039 -0.0093
   28MOL   H165 7239   2.511   1.354   4.104  1.0104  0.4908 -1.8085
   28MOL   H166 7240   2.256   1.513   3.979 -0.5353 -3.7552  0.3751
   28MOL   H167 7241   2.373   1.411   3.900 -0.4582 -0.2371  0.8902
   28MOL   H168 7242   2.355   1.712   3.849 -1.8013 -1.5720  2.3232
   28MOL   H169 7243   2.465   1.595   3.766 -0.6963  1.0816 -1.0570
   28MOL   H170 7244   2.281   1.592   3.754 -0.1182  3.4051 -1.5922
   28MOL   C171 7245   2.358   1.429   4.219  0.4025 -0.0955  0.2955
   28MOL   C172 7246   2.284   1.297   4.189  0.0776  0.3066 -0.0660
   28MOL   O173 7247   2.141   1.299   4.205 -0.2356  0.2931  0.0882
   28MOL   C174 7248   2.068   1.372   4.104  0.1386  0.4173  0.4442
   28MOL   C175 7249   2.067   1.310   3.963 -0.3109  0.0097  0.4202
   28MOL   H176 7250   2.297   1.520   4.217 -1.7869 -1.5215 -4.4633
   28MOL   H177 7251   2.393   1.418   4.321  0.3203 -0.8066  0.2474
   28MOL   H178 7252   2.301   1.272   4.084  0.6119  0.9155 -0.1290
   28MOL   H179 7253   2.092   1.478   4.102  1.4430  0.1369  0.7207
   28MOL   H180 7254   1.967   1.350   4.138  0.3774 -2.4361 -0.5517
   28MOL   H181 7255   2.005   1.375   3.903  0.8488 -0.0366 -0.8588
   28MOL   H182 7256   2.168   1.299   3.922 -0.6318  1.5617 -0.8172
   28MOL   H183 7257   2.020   1.212   3.961 -1.5956  0.6228 -4.1951
   28MOL   C184 7258   2.316   1.187   4.299 -0.1901 -0.0570 -0.1675
   28MOL   C185 7259   2.449   1.111   4.299  0.0137 -0.2635 -0.1588
   28MOL   O186 7260   2.561   1.193   4.329 -0.7622 -0.2374  0.2250
   28MOL   C187 7261   2.618   1.168   4.459 -0.0606  0.0989 -0.3467
   28MOL   C188 7262   2.723   1.276   4.484  0.7832 -0.3836  0.2141
   28MOL   H189 7263   2.229   1.123   4.310 -0.6265  0.7649  1.3564
   28MOL   H190 7264   2.309   1.238   4.396 -1.7016 -1.9722  0.7607
   28MOL   H191 7265   2.447   1.028   4.369 -1.4814 -0.9189 -0.9636
   28MOL   H192 7266   2.665   1.070   4.469  0.6978  0.6959  2.2074
   28MOL   H193 7267   2.548   1.178   4.542  1.0817  1.4858  0.4454
   28MOL   H194 7268   2.674   1.366   4.521 -2.4052 -2.8764  2.2895
   28MOL   H195 7269   2.790   1.246   4.565  3.0336 -2.4478 -2.2861
   28MOL   H196 7270   2.776   1.303   4.392 -0.0298 -0.3432 -0.2469
   28MOL   C197 7271   2.478   1.053   4.164  0.1734  0.1689  0.5496
   28MOL   C198 7272   2.610   0.967   4.156  0.1248  0.3177 -0.0630
   28MOL   O199 7273   2.608   0.905   4.025 -0.3553 -0.2529 -0.0410
   28MOL   C200 7274   2.688   0.976   3.940 -0.4543 -0.5631 -0.2631
   28MOL   C201 7275   2.698   0.892   3.808  0.3399 -0.4718  0.0772
   28MOL   H202 7276   2.487   1.127   4.084  1.2896 -0.0918  0.4253
   28MOL   H203 7277   2.396   0.992   4.128  0.4321  0.1543 -0.0350
   28MOL   H204 7278   2.691   1.036   4.180 -1.1667  1.3171  1.5423
   28MOL   H205 7279   2.785   1.011   3.976 -0.6837 -1.5178  1.3298
   28MOL   H206 7280   2.631   1.068   3.926 -0.4085 -0.5527 -0.3835
   28MOL   H207 7281   2.598   0.851   3.795 -0.3224  1.1296 -0.0698
   28MOL   H208 7282   2.721   0.962   3.728 -1.6056  0.4147  0.2671
   28MOL   H209 7283   2.757   0.803   3.828 -1.1614 -1.1681  1.5421
   28MOL   C210 7284   2.613   0.853   4.260  0.9362  0.0070  0.1916
   28MOL   C211 7285   2.731   0.754   4.224 -0.8147  0.1779 -0.6588
   28MOL   O212 7286   2.719   0.635   4.296 -0.1851 -0.0921 -0.1095
   28MOL   C213 7287   2.645   0.532   4.241  0.6423  0.2306 -0.2782
   28MOL   C214 7288   2.632   0.410   4.334 -0.3844  0.1858  0.2450
   28MOL   H215 7289   2.519   0.801   4.239  0.3152  1.0505  0.3355
   28MOL   H216 7290   2.612   0.878   4.366  0.3021 -0.8459  0.3913
   28MOL   H217 7291   2.732   0.735   4.117  1.6258 -2.7433 -0.1575
   28MOL   H218 7292   2.691   0.488   4.153  1.9814  2.6449 -0.8384
   28MOL   H219 7293   2.543   0.568   4.228  1.2264  1.8788 -0.3933
   28MOL   H220 7294   2.727   0.359   4.343 -1.5561 -1.8477  1.3628
   28MOL   H221 7295   2.586   0.448   4.425 -2.6725  2.2328 -1.6670
   28MOL   H222 7296   2.563   0.333   4.299 -0.2168  0.2520 -0.2477
   28MOL   C223 7297   2.870   0.820   4.268  0.2207 -0.5671  0.5611
   28MOL   C224 7298   2.988   0.759   4.194 -0.1613 -0.2244  0.5807
   28MOL   O225 7299   2.985   0.799   4.056  0.5067  0.0971  0.0965
   28MOL   C226 7300   3.111   0.804   3.998  0.5693 -0.7429 -0.1510
   28MOL   C227 7301   3.086   0.785   3.845 -0.6151  1.1700 -0.3879
   28MOL   H228 7302   2.891   0.809   4.374  0.3212  0.4359  0.6468
   28MOL   H229 7303   2.862   0.927   4.250 -1.3961 -0.4877  1.6696
   28MOL   H230 7304   3.079   0.806   4.230  1.7126 -1.7094 -2.0894
   28MOL   H231 7305   3.171   0.719   4.031  1.6498  0.8619  2.0693
   28MOL   H232 7306   3.164   0.891   4.034 -2.7593  0.0266  3.1453
   28MOL   H233 7307   3.024   0.859   3.794 -0.2248  2.0297  0.3565
   28MOL   H234 7308   3.184   0.803   3.802 -0.9332  0.4048 -1.4400
   28MOL   H235 7309   3.052   0.683   3.827  0.7773  0.4105  1.0860
   28MOL   C236 7310   2.999   0.604   4.212 -0.3239  0.4137 -0.1214
   28MOL   C237 7311   3.023   0.570   4.363  0.4079 -0.7885  0.4705
   28MOL   O238 7312   3.144   0.639   4.411  0.0559  0.3783  0.2990
   28MOL   C239 7313   3.269   0.620   4.342  0.3379  0.0036  0.9417
   28MOL   C240 7314   3.368   0.706   4.421 -0.1035  0.5843 -0.1856
   28MOL   H241 7315   3.082   0.562   4.156 -0.1030 -0.9906  1.2111
   28MOL   H242 7316   2.909   0.552   4.180  1.1073 -1.3748 -1.2945
   28MOL   H243 7317   2.934   0.586   4.423  0.6800 -0.3213  0.7503
   28MOL   H244 7318   3.260   0.648   4.237 -2.4300  0.4737  1.2656
   28MOL   H245 7319   3.291   0.514   4.335 -0.3458 -0.0358 -0.6448
   28MOL   H246 7320   3.334   0.806   4.447  0.5771  0.8735 -0.4195
   28MOL   H247 7321   3.383   0.653   4.515 -0.4183  0.2587 -0.3129
   28MOL   H248 7322   3.457   0.720   4.360  1.5175 -1.2839  1.6424
   28MOL   C249 7323   3.038   0.419   4.363  0.4633 -0.5845 -0.8477
   28MOL   C250 7324   3.043   0.356   4.504 -0.2688 -0.4029 -0.7099
   28MOL   O251 7325   2.907   0.345   4.559 -0.1438 -0.2444  0.4745
   28MOL   C252 7326   2.908   0.297   4.695  0.4399  0.1349  0.0233
   28MOL   C253 7327   2.764   0.245   4.732  0.2097  0.1117 -0.2494
   28MOL   H254 7328   3.135   0.394   4.321  2.5257  2.3139  1.9758
   28MOL   H255 7329   2.955   0.375   4.307 -1.9161  3.3104 -0.5423
   28MOL   H256 7330   3.079   0.253   4.503 -0.0390 -0.3213 -0.8761
   28MOL   H257 7331   2.953   0.368   4.765  0.7687 -1.7501  1.7882
   28MOL   H258 7332   2.970   0.208   4.697 -0.0311 -0.2608 -2.3583
   28MOL   H259 7333   2.754   0.221   4.838 -0.0626 -0.1343 -0.3301
   28MOL   H260 7334   2.693   0.316   4.692 -1.6793 -2.6467 -1.9959
   28MOL   H261 7335   2.746   0.143   4.697 -0.3250  0.1750 -0.1559
   28MOL   H262 7336   3.117   0.406   4.565 -0.9843 -0.8409  0.5383
   29MOL     C1 7337   7.636   4.134   0.503  0.2262  0.6383 -0.3026
   29MOL     C2 7338   7.565   3.994   0.488  0.6552 -0.3387 -0.2352
   29MOL     O3 7339   7.662   3.917   0.415 -0.0554  0.0716 -0.1075
   29MOL     C4 7340   7.639   3.774   0.427  0.8712  0.3563 -0.0512
   29MOL     C5 7341   7.771   3.701   0.436  0.1712  0.8104  0.0127
   29MOL     H6 7342   7.737   4.111   0.537 -0.5117 -2.2061  0.0932
   29MOL     H7 7343   7.641   4.185   0.406 -1.7676 -0.7055 -1.1475
   29MOL     H8 7344   7.559   3.946   0.585 -0.0373 -0.2899 -0.2483
   29MOL     H9 7345   7.586   3.739   0.339 -0.7335  1.2266  0.5541
   29MOL    H10 7346   7.580   3.757   0.518  0.3658 -2.2356 -0.8288
   29MOL    H11 7347   7.833   3.724   0.523 -0.4823  0.3953  0.5830
   29MOL    H12 7348   7.753   3.595   0.449 -0.4440  1.0579  1.1503
   29MOL    H13 7349   7.841   3.708   0.352  3.6205  0.7428  2.7920
   29MOL    H14 7350   7.588   4.195   0.579 -0.8872 -1.4853  0.7364
   29MOL    C15 7351   7.430   4.004   0.415  0.4553 -0.3214 -0.3183
   29MOL    C16 7352   7.326   4.096   0.485  0.1379 -0.1467 -0.2133
   29MOL    O17 7353   7.287   4.023   0.598 -0.5577  0.7231 -0.4043
   29MOL    C18 7354   7.282   4.093   0.726 -0.1462  0.1532 -0.0470
   29MOL    C19 7355   7.172   4.035   0.810 -0.2330 -0.0372  0.3793
   29MOL    H20 7356   7.390   3.904   0.403 -0.9788  0.3091 -0.9917
   29MOL    H21 7357   7.455   4.051   0.320  1.4633  0.0847  0.1374
   29MOL    H22 7358   7.370   4.191   0.515 -2.4969  1.2111 -0.4967
   29MOL    H23 7359   7.265   4.197   0.697  0.4243  0.6093  1.1922
   29MOL    H24 7360   7.375   4.081   0.782 -0.0563 -1.2700 -0.4957
   29MOL    H25 7361   7.080   4.083   0.778  1.3296  1.8071 -1.4990
   29MOL    H26 7362   7.185   4.066   0.913 -1.9340  1.9511  0.0129
   29MOL    H27 7363   7.163   3.926   0.806 -1.9326  0.1500 -1.9811
   29MOL    C28 7364   7.199   4.137   0.407  0.0154  0.9779 -0.5299
   29MOL    C29 7365   7.207   4.211   0.270 -0.0580  0.4635  0.4336
   29MOL    O30 7366   7.310   4.308   0.288 -0.4942  0.5198  0.5436
   29MOL    C31 7367   7.404   4.324   0.188  0.4364  0.0734  0.1925
   29MOL    C32 7368   7.503   4.431   0.213 -0.0898 -0.7384  0.0649
   29MOL    H33 7369   7.148   4.199   0.481 -0.7761  0.8765 -0.9839
   29MOL    H34 7370   7.132   4.051   0.399  0.1725  0.5007  2.4617
   29MOL    H35 7371   7.226   4.129   0.199  0.2160  1.4055 -0.5919
   29MOL    H36 7372   7.360   4.330   0.088 -2.2896  0.0275  1.3326
   29MOL    H37 7373   7.455   4.228   0.187  3.8674  1.8414 -1.2425
   29MOL    H38 7374   7.535   4.430   0.317  0.5570 -0.8277 -0.1307
   29MOL    H39 7375   7.587   4.420   0.143 -1.2080 -1.5560 -1.1761
   29MOL    H40 7376   7.453   4.526   0.197 -2.4621 -2.0266 -0.4757
   29MOL    C41 7377   7.082   4.281   0.220 -0.3367  0.1983  0.2179
   29MOL    C42 7378   6.954   4.194   0.186  0.0003 -0.3126 -0.2343
   29MOL    O43 7379   6.990   4.096   0.083  0.1278 -0.0845  0.0973
   29MOL    C44 7380   6.950   3.963   0.103  0.2104 -0.5861 -0.1527
   29MOL    C45 7381   6.998   3.883   7.823  0.0743 -0.4864 -0.1313
   29MOL    H46 7382   7.099   4.329   0.123  2.6816 -0.6846  0.2460
   29MOL    H47 7383   7.057   4.365   0.286 -3.3036  0.0435 -0.6364
   29MOL    H48 7384   6.923   4.136   0.273  1.9996  0.5910  1.1359
   29MOL    H49 7385   6.841   3.962   0.111  0.2942  2.1246  1.9902
   29MOL    H50 7386   6.979   3.919   0.198 -0.4050 -2.1511 -0.6611
   29MOL    H51 7387   6.956   3.926   7.732 -0.9753 -0.6759  0.2528
   29MOL    H52 7388   7.107   3.883   7.828  0.0866 -1.7349 -0.0840
   29MOL    H53 7389   6.955   3.782   7.826 -1.3366  0.1497  2.0421
   29MOL    C54 7390   6.838   4.284   0.132 -0.2779 -0.2989 -0.5842
   29MOL    C55 7391   6.774   4.365   0.245 -0.1768 -0.6838  0.5411
   29MOL    O56 7392   6.701   4.271   0.322  0.2544  0.2176  0.6235
   29MOL    C57 7393   6.710   4.292   0.454 -0.1351  0.0593  0.0968
   29MOL    C58 7394   6.852   4.270   0.509  0.2045 -0.3422 -0.7999
   29MOL    H59 7395   6.761   4.230   0.076  0.1475  1.6039 -3.0890
   29MOL    H60 7396   6.886   4.337   0.050  0.0397 -0.6086 -0.6005
   29MOL    H61 7397   6.855   4.409   0.303  1.2115 -1.4722 -0.7685
   29MOL    H62 7398   6.644   4.219   0.500  1.1057 -0.0305  1.7938
   29MOL    H63 7399   6.674   4.390   0.485 -3.5561 -0.6118 -1.5542
   29MOL    H64 7400   6.920   4.354   0.496  0.9197 -0.4308  2.0553
   29MOL    H65 7401   6.853   4.251   0.616 -3.1738 -1.1739 -0.8324
   29MOL    H66 7402   6.891   4.179   0.463 -0.3259 -0.2468 -1.4555
   29MOL    C67 7403   6.676   4.468   0.193 -0.1030 -0.4855 -0.0143
   29MOL    C68 7404   6.738   4.594   0.126 -0.0939  0.1375 -0.0782
   29MOL    O69 7405   6.821   4.571   0.013 -0.0610 -0.1093  0.3224
   29MOL    C70 7406   6.743   4.535   7.748 -0.0146  0.0182  0.1150
   29MOL    C71 7407   6.835   4.508   7.628 -0.1866 -0.4578 -0.0903
   29MOL    H72 7408   6.605   4.494   0.272 -2.7729 -0.0792 -2.4333
   29MOL    H73 7409   6.609   4.420   0.121  0.0514 -0.2248 -0.3347
   29MOL    H74 7410   6.653   4.653   0.093 -0.2344  0.7755  1.4091
   29MOL    H75 7411   6.675   4.618   7.730  0.0951 -0.1108 -0.9209
   29MOL    H76 7412   6.675   4.450   7.763  0.8967 -0.4955  1.4808
   29MOL    H77 7413   6.903   4.431   7.664  2.1708  0.7352 -1.9164
   29MOL    H78 7414   6.762   4.486   7.550 -1.0878  3.4766 -0.4881
   29MOL    H79 7415   6.888   4.602   7.615 -2.2338  1.1799  2.6555
   29MOL    C80 7416   6.800   4.687   0.229 -0.1932  0.3568  0.3065
   29MOL    C81 7417   6.841   4.831   0.185  0.1207  0.8273  0.0308
   29MOL    O82 7418   6.907   4.887   0.302 -0.2471 -0.1801  0.2476
   29MOL    C83 7419   7.021   4.974   0.269 -0.1445  0.1955  0.2436
   29MOL    C84 7420   7.089   5.017   0.406  0.6254 -0.5299 -0.3784
   29MOL    H85 7421   6.891   4.633   0.255 -0.6342 -0.2603  0.5739
   29MOL    H86 7422   6.730   4.706   0.310  1.0351  1.1815  1.1813
   29MOL    H87 7423   6.914   4.823   0.104 -0.8870 -1.8076 -0.6660
   29MOL    H88 7424   6.977   5.063   0.225  0.4093 -0.0808 -0.9016
   29MOL    H89 7425   7.094   4.917   0.210  0.5104 -0.6925  1.8755
   29MOL    H90 7426   7.015   5.037   0.483  0.6084  1.5076 -0.8884
   29MOL    H91 7427   7.152   4.939   0.449  1.5072  0.9226  1.0220
   29MOL    H92 7428   7.159   5.101   0.403 -0.4284  0.6712  4.5390
   29MOL    C93 7429   6.733   4.928   0.140  0.0360  0.0333 -0.2470
   29MOL    C94 7430   6.704   4.917   7.828 -0.6341  0.5704 -0.3163
   29MOL    O95 7431   6.789   5.002   7.747  0.5084  0.3632  0.6704
   29MOL    C96 7432   6.824   4.937   7.621  0.2733 -0.2553 -0.7212
   29MOL    C97 7433   6.954   4.862   7.628  0.2148 -0.2881  0.0236
   29MOL    H98 7434   6.769   5.029   0.161  0.5035 -0.4839  1.5556
   29MOL    H99 7435   6.645   4.921   0.205  0.0246  1.1926 -0.1255
   29MOL   H100 7436   6.719   4.817   7.787  0.4666  0.2896  0.7449
   29MOL   H101 7437   6.833   5.017   7.548  0.9613 -0.0965 -0.4678
   29MOL   H102 7438   6.744   4.874   7.582 -0.0664 -0.6453  0.5815
   29MOL   H103 7439   7.037   4.929   7.646  1.2483 -1.5697  0.1068
   29MOL   H104 7440   6.951   4.794   7.714  1.2297 -1.0354 -0.5268
   29MOL   H105 7441   6.974   4.792   7.547 -0.1931  1.3314 -1.4890
   29MOL   C106 7442   6.569   4.986   7.800  0.5766 -0.1754  0.7055
   29MOL   C107 7443   6.442   4.907   7.837 -0.2639  0.3842  0.5498
   29MOL   O108 7444   6.454   4.775   7.787 -0.2621  0.0737  0.1529
   29MOL   C109 7445   6.378   4.675   0.014 -0.2200 -0.1566 -0.3263
   29MOL   C110 7446   6.331   4.554   7.779  0.5221 -0.4793 -0.0940
   29MOL   H111 7447   6.547   5.013   7.697 -1.9623  2.5072  1.8538
   29MOL   H112 7448   6.568   5.084   0.006  1.5574  1.2867 -2.0569
   29MOL   H113 7449   6.443   4.897   0.102  1.7060  1.5821  0.6574
   29MOL   H114 7450   6.292   4.714   0.068 -1.2692 -2.9669  0.1172
   29MOL   H115 7451   6.439   4.639   0.098  0.9071  1.9851 -0.1983
   29MOL   H116 7452   6.412   4.497   7.734 -0.3666 -0.3513 -1.8917
   29MOL   H117 7453   6.254   4.492   7.825 -1.0642  1.9054  0.5393
   29MOL   H118 7454   6.279   4.601   7.696  0.5733  1.2901  0.8368
   29MOL   C119 7455   6.316   4.984   7.787  0.0474 -0.4627 -0.9899
   29MOL   C120 7456   6.279   5.111   0.019 -0.3214  0.1309  0.0019
   29MOL   O121 7457   6.266   5.090   0.158  0.1778  0.4316 -0.2990
   29MOL   C122 7458   6.288   5.196   0.250 -0.5187 -0.2956 -0.5683
   29MOL   C123 7459   6.288   5.137   0.383 -0.1691  0.3947 -0.0416
   29MOL   H124 7460   6.229   4.918   7.794 -0.6722  0.7096  1.4160
   29MOL   H125 7461   6.307   4.991   7.678 -0.5169  1.9564 -0.8064
   29MOL   H126 7462   6.367   5.174   0.002  0.0576 -0.2964  0.3605
   29MOL   H127 7463   6.209   5.271   0.243 -0.0433  0.2672  0.0257
   29MOL   H128 7464   6.387   5.238   0.230 -0.3134 -0.8545 -0.7401
   29MOL   H129 7465   6.382   5.082   0.387  0.5581  1.7148  1.6362
   29MOL   H130 7466   6.269   5.213   0.459 -1.2635  0.2086 -0.1138
   29MOL   H131 7467   6.206   5.065   0.379  1.7979 -1.9766  1.2169
   29MOL   C132 7468   6.157   5.190   7.817  0.6745  0.7035 -0.5480
   29MOL   C133 7469   6.161   5.283   7.696 -0.1362  0.0860 -0.5555
   29MOL   O134 7470   6.175   5.416   7.742  0.1893 -0.2775  0.0963
   29MOL   C135 7471   6.256   5.491   7.654  0.7152 -0.4582  0.2923
   29MOL   C136 7472   6.246   5.643   7.668  0.1516 -0.0203  0.0360
   29MOL   H137 7473   6.105   5.235   0.058  1.1981  1.5635 -0.6818
   29MOL   H138 7474   6.082   5.114   7.794  1.2670 -0.0260 -0.0970
   29MOL   H139 7475   6.235   5.240   7.629  0.9122 -0.4787  0.9583
   29MOL   H140 7476   6.218   5.488   7.552  0.6001 -0.8375  0.3459
   29MOL   H141 7477   6.357   5.452   7.660  1.4624  1.4938  0.8142
   29MOL   H142 7478   6.271   5.683   7.766  1.2029  0.5442 -0.4569
   29MOL   H143 7479   6.314   5.691   7.597  0.5897  0.7328  0.9645
   29MOL   H144 7480   6.150   5.684   7.636  1.0187  1.5027 -0.6391
   29MOL   C145 7481   6.022   5.279   7.629 -0.2883 -0.9275  0.8844
   29MOL   C146 7482   6.013   5.169   7.521  0.0030 -0.6600  0.1209
   29MOL   O147 7483   6.085   5.215   7.408 -0.3249 -0.3011  0.2383
   29MOL   C148 7484   6.119   5.121   7.310 -0.0323  0.4388 -0.0585
   29MOL   C149 7485   6.212   5.199   7.218 -0.2901  0.5459  0.2046
   29MOL   H150 7486   6.003   5.373   7.578  1.8174 -2.7979 -3.6715
   29MOL   H151 7487   5.941   5.272   7.702  0.1860  2.2693  1.7857
   29MOL   H152 7488   6.053   5.072   7.550 -1.2976 -1.2273  0.0443
   29MOL   H153 7489   6.031   5.078   7.262  0.9785  1.4283 -2.8654
   29MOL   H154 7490   6.177   5.039   7.350  1.5101  0.7542 -1.5963
   29MOL   H155 7491   6.248   5.127   7.143 -1.2471 -0.8505  1.0615
   29MOL   H156 7492   6.161   5.280   7.166 -0.1848 -0.9263 -2.2823
   29MOL   H157 7493   6.297   5.238   7.274  0.8131 -0.6813 -0.5448
   29MOL   C158 7494   5.861   5.142   7.481 -0.5375 -0.2417 -0.2585
   29MOL   C159 7495   5.806   5.022   7.567 -0.5394 -0.3429 -0.6588
   29MOL   O160 7496   5.888   4.908   7.536 -0.4707  0.0850 -0.2945
   29MOL   C161 7497   5.936   4.836   7.647 -0.3605  0.3474  0.4561
   29MOL   C162 7498   6.038   4.726   7.593  0.0427  0.2339  0.6724
   29MOL   H163 7499   5.852   5.119   7.374 -0.3563  0.3576 -0.4044
   29MOL   H164 7500   5.803   5.233   7.493 -1.8155 -0.5004 -3.6488
   29MOL   H165 7501   5.811   5.054   7.671  0.2308 -1.7754 -0.2399
   29MOL   H166 7502   5.858   4.794   7.710 -1.5212 -0.9993 -1.8091
   29MOL   H167 7503   5.995   4.899   7.714 -0.9965  1.2406  0.1766
   29MOL   H168 7504   6.066   4.656   7.671  1.9496  1.3010  0.9524
   29MOL   H169 7505   5.985   4.666   7.519 -0.8978  0.9413  0.7592
   29MOL   H170 7506   6.127   4.770   7.549  0.4550 -0.7729  0.5064
   29MOL   C171 7507   5.659   4.987   7.538 -0.0280 -0.9253 -0.8869
   29MOL   C172 7508   5.587   4.885   7.635  0.5248  0.8700 -0.6965
   29MOL   O173 7509   5.453   4.862   7.583  0.0529  0.7801  0.0014
   29MOL   C174 7510   5.436   4.757   7.489  0.0312  0.6528  0.0534
   29MOL   C175 7511   5.297   4.699   7.501 -0.3759  0.9375 -0.9094
   29MOL   H176 7512   5.645   4.968   7.432  0.1391 -0.2276 -1.0385
   29MOL   H177 7513   5.610   5.083   7.556 -1.4933 -2.5223  4.6208
   29MOL   H178 7514   5.646   4.796   7.652  2.0816  2.3982  2.0893
   29MOL   H179 7515   5.504   4.675   7.511 -0.7187 -0.3442 -1.3121
   29MOL   H180 7516   5.437   4.797   7.387 -1.0091  1.7702  0.4667
   29MOL   H181 7517   5.229   4.775   7.464 -2.7664 -0.8729 -0.3607
   29MOL   H182 7518   5.267   4.612   7.442  0.7216  0.6162 -1.0053
   29MOL   H183 7519   5.265   4.683   7.604 -0.7852 -1.0773 -1.3150
   29MOL   C184 7520   5.558   4.940   7.775  0.0939 -0.6201 -0.2834
   29MOL   C185 7521   5.522   4.826   0.035  0.1007 -0.1998  0.4281
   29MOL   O186 7522   5.423   4.870   0.131  0.2692  0.6021 -0.6426
   29MOL   C187 7523   5.289   4.866   0.086 -0.2901  0.3264  0.6591
   29MOL   C188 7524   5.204   4.753   0.146  0.3012  0.1930  0.4863
   29MOL   H189 7525   5.475   5.010   7.765  0.5886 -0.1044 -0.7627
   29MOL   H190 7526   5.640   4.992   7.824 -0.4026 -0.8219  0.7723
   29MOL   H191 7527   5.492   4.737   7.823  0.2786  0.6995 -1.1144
   29MOL   H192 7528   5.288   4.854   7.821 -1.5121 -2.5172  0.9287
   29MOL   H193 7529   5.239   4.960   0.111 -1.9630 -0.4718  0.4482
   29MOL   H194 7530   5.206   4.758   0.255  2.2286 -1.9459  0.5747
   29MOL   H195 7531   5.101   4.757   0.110  0.5039  0.7639 -0.0287
   29MOL   H196 7532   5.246   4.656   0.118  1.8938  1.1445 -0.5143
   29MOL   C197 7533   5.649   4.786   0.127  1.1899  0.4990  0.3325
   29MOL   C198 7534   5.615   4.693   0.240 -0.0428  0.1527 -0.1506
   29MOL   O199 7535   5.732   4.657   0.301  0.3187  0.6602  0.5104
   29MOL   C200 7536   5.769   4.763   0.392  0.1810  0.0662  0.1906
   29MOL   C201 7537   5.877   4.715   0.489  0.5164  0.6132 -0.4250
   29MOL   H202 7538   5.661   4.879   0.183 -0.2711  0.6582  0.4188
   29MOL   H203 7539   5.737   4.771   0.065 -1.5073 -1.8845 -3.0696
   29MOL   H204 7540   5.547   4.734   0.314 -0.9207  2.7997 -2.3366
   29MOL   H205 7541   5.686   4.809   0.447  2.0790  0.4896  2.8296
   29MOL   H206 7542   5.803   4.843   0.326 -0.7332  0.3685  0.0773
   29MOL   H207 7543   5.965   4.670   0.444  1.1788 -1.1913  2.5330
   29MOL   H208 7544   5.908   4.805   0.543 -0.8887 -0.0172  1.5139
   29MOL   H209 7545   5.833   4.651   0.565  1.3421  0.1823 -0.3080
   29MOL   C210 7546   5.559   4.552   0.180  0.7390 -0.2159  0.4980
   29MOL   C211 7547   5.565   4.434   0.274 -0.2019  0.3210  0.1715
   29MOL   O212 7548   5.509   4.314   0.214  0.0434  0.4444 -0.0206
   29MOL   C213 7549   5.602   4.256   0.122 -1.0774  0.9034 -0.0219
   29MOL   C214 7550   5.554   4.120   0.058 -0.3046  0.2165 -0.7209
   29MOL   H215 7551   5.598   4.549   0.078 -0.1466  3.2498 -0.0065
   29MOL   H216 7552   5.454   4.570   0.158  1.0589  0.2332 -0.6811
   29MOL   H217 7553   5.672   4.423   0.295 -0.0875 -0.4863 -0.8123
   29MOL   H218 7554   5.703   4.241   0.161 -0.3311 -0.3886 -2.3043
   29MOL   H219 7555   5.605   4.328   0.041 -1.0472  0.6021 -0.2914
   29MOL   H220 7556   5.534   4.053   0.142 -1.4833  1.2419 -0.1536
   29MOL   H221 7557   5.455   4.140   0.016 -1.0168 -2.9846 -0.6764
   29MOL   H222 7558   5.620   4.070   7.831  1.0861 -1.6524  1.8344
   29MOL   C223 7559   5.487   4.454   0.405  0.4932  0.5520  0.2641
   29MOL   C224 7560   5.537   4.375   0.529  0.3136  0.1322 -0.7801
   29MOL   O225 7561   5.440   4.412   0.626 -0.2467  0.4182 -0.0838
   29MOL   C226 7562   5.382   4.297   0.686  0.1022 -0.1329 -0.5032
   29MOL   C227 7563   5.278   4.337   0.788 -0.1718  0.3401  0.2229
   29MOL   H228 7564   5.382   4.427   0.396  0.6331 -0.5365  1.6503
   29MOL   H229 7565   5.490   4.557   0.440 -2.7497  0.4597  0.9255
   29MOL   H230 7566   5.543   4.270   0.499 -1.8348 -0.3558  0.3465
   29MOL   H231 7567   5.456   4.236   0.737 -0.3977 -1.0129 -0.8211
   29MOL   H232 7568   5.330   4.235   0.613  0.7029 -2.0126  0.6357
   29MOL   H233 7569   5.243   4.249   0.842  0.6322  0.5807  1.1614
   29MOL   H234 7570   5.306   4.403   0.870 -1.3119  1.9860 -0.6850
   29MOL   H235 7571   5.191   4.387   0.746 -0.3508  0.9971  1.3619
   29MOL   C236 7572   5.666   4.436   0.579  0.6410 -0.3815 -0.2200
   29MOL   C237 7573   5.739   4.364   0.691 -0.3946  0.4336  0.8321
   29MOL   O238 7574   5.849   4.446   0.743  0.0846 -0.0451  0.2771
   29MOL   C239 7575   5.813   4.532   0.849  0.4446  0.9114  0.2410
   29MOL   C240 7576   5.946   4.579   0.904  0.5845  0.5960 -0.2161
   29MOL   H241 7577   5.644   4.533   0.624 -0.2279 -1.1292  1.0218
   29MOL   H242 7578   5.737   4.452   0.498  1.4600 -2.3711  0.0740
   29MOL   H243 7579   5.674   4.345   0.776 -0.8737  3.5503  1.2133
   29MOL   H244 7580   5.767   4.478   0.931 -0.1581  0.0277 -0.6663
   29MOL   H245 7581   5.761   4.616   0.804 -1.5362 -0.5184 -0.1890
   29MOL   H246 7582   5.998   4.495   0.950  1.4574  0.4149 -1.5137
   29MOL   H247 7583   6.016   4.632   0.840  0.8264  0.1857 -0.2891
   29MOL   H248 7584   5.927   4.654   0.981 -1.6407 -0.9523  0.8114
   29MOL   C249 7585   5.801   4.234   0.634  0.2942  0.4266  0.1255
   29MOL   C250 7586   5.865   4.144   0.739 -0.2120 -0.7346 -0.0290
   29MOL   O251 7587   5.920   4.026   0.689  0.2074 -0.6794  0.1392
   29MOL   C252 7588   5.986   3.952   0.786 -0.4310 -0.0466 -0.4436
   29MOL   C253 7589   6.118   3.889   0.733  0.5368 -0.4248  0.4141
   29MOL   H254 7590   5.878   4.262   0.562 -0.1753  0.6169 -0.3113
   29MOL   H255 7591   5.726   4.174   0.583 -0.4321  0.3787  1.2413
   29MOL   H256 7592   5.941   4.204   0.789 -0.6874 -1.0019  1.0376
   29MOL   H257 7593   5.920   3.890   0.847 -0.4417 -0.7771 -1.1830
   29MOL   H258 7594   6.012   4.017   0.870  1.3193 -0.1541 -0.8797
   29MOL   H259 7595   6.119   3.793   0.680  2.4651 -0.0971 -0.1837
   29MOL   H260 7596   6.174   3.954   0.666  2.2315 -1.3691  0.8893
   29MOL   H261 7597   6.186   3.884   0.817  2.0043 -1.0750 -0.7929
   29MOL   H262 7598   5.791   4.111   0.813 -2.1630  1.3663 -0.9830
   30MOL     C1 7599   3.266   3.654   4.325  0.0331 -0.7556  0.1766
   30MOL     C2 7600   3.408   3.623   4.291  0.4039 -0.7189 -0.3188
   30MOL     O3 7601   3.457   3.510   4.356  0.2869  0.2055 -0.3448
   30MOL     C4 7602   3.400   3.390   4.310  0.0421 -0.1582  0.4845
   30MOL     C5 7603   3.473   3.270   4.372 -0.1194 -0.2810 -0.4829
   30MOL     H6 7604   3.243   3.758   4.298 -1.7871 -1.4117 -0.9346
   30MOL     H7 7605   3.186   3.598   4.275 -1.7801  1.0011  1.0199
   30MOL     H8 7606   3.409   3.608   4.183  0.4900 -0.6297 -0.3304
   30MOL     H9 7607   3.405   3.383   4.202  1.1895 -1.7819  0.6235
   30MOL    H10 7608   3.292   3.395   4.327 -0.0454 -0.9435  0.1808
   30MOL    H11 7609   3.576   3.262   4.338 -0.3180 -0.1392 -1.1275
   30MOL    H12 7610   3.456   3.289   4.478 -1.7693 -3.4614 -0.1107
   30MOL    H13 7611   3.423   3.177   4.344  1.7440 -1.1782 -0.8744
   30MOL    H14 7612   3.254   3.636   4.431  0.9085 -1.6546  0.1239
   30MOL    C15 7613   3.504   3.729   4.337 -0.2615  0.3542 -0.0003
   30MOL    C16 7614   3.632   3.744   4.257  0.1177 -0.4935  0.5228
   30MOL    O17 7615   3.704   3.626   4.278  0.0286  0.5971  0.1928
   30MOL    C18 7616   3.740   3.556   4.157 -0.1312 -0.5433 -0.2638
   30MOL    C19 7617   3.811   3.428   4.195 -0.3105 -0.5542  0.4299
   30MOL    H20 7618   3.544   3.711   4.436 -0.4258  0.7980  0.1481
   30MOL    H21 7619   3.447   3.822   4.340 -1.6169 -0.4719  0.3062
   30MOL    H22 7620   3.613   3.761   4.151  0.1913  0.0160  0.5894
   30MOL    H23 7621   3.798   3.624   4.095  0.1561 -0.2139  0.3648
   30MOL    H24 7622   3.653   3.531   4.097 -1.5818 -0.7052  1.8376
   30MOL    H25 7623   3.902   3.455   4.250  0.3504 -1.6266 -0.1134
   30MOL    H26 7624   3.838   3.366   4.110 -3.5239 -1.1223 -0.2423
   30MOL    H27 7625   3.743   3.376   4.262 -0.9687 -0.8331 -0.4504
   30MOL    C28 7626   3.727   3.857   4.306 -0.3205  0.6464  0.0034
   30MOL    C29 7627   3.856   3.877   4.225  0.1040  0.4644 -0.4620
   30MOL    O30 7628   3.926   3.981   4.289 -0.2845  0.0309  0.0391
   30MOL    C31 7629   4.007   3.945   4.400  0.2213  0.3442  0.8858
   30MOL    C32 7630   3.963   4.026   4.521 -0.1101 -0.2495 -0.3749
   30MOL    H33 7631   3.740   3.850   4.414  1.4526  2.5737 -0.0346
   30MOL    H34 7632   3.659   3.942   4.302  0.1088  0.9546 -1.2530
   30MOL    H35 7633   3.913   3.784   4.227  0.2974  0.6167  1.3543
   30MOL    H36 7634   4.111   3.971   4.379  0.3032 -0.8474 -0.2654
   30MOL    H37 7635   4.005   3.842   4.435 -1.3417 -0.3357 -1.1080
   30MOL    H38 7636   3.856   4.003   4.530 -0.3083 -0.1938 -2.3730
   30MOL    H39 7637   4.010   3.986   4.611 -1.1248 -2.0703 -0.6350
   30MOL    H40 7638   3.996   4.130   4.513  0.4538 -0.2374  1.7642
   30MOL    C41 7639   3.832   3.918   4.076  0.7693  0.8881  0.4987
   30MOL    C42 7640   3.954   3.984   4.002 -0.9486  0.2569  0.5133
   30MOL    O43 7641   3.902   4.035   3.878 -0.1628  0.3068 -0.1642
   30MOL    C44 7642   3.857   4.165   3.885  0.9433  0.3158  0.3776
   30MOL    C45 7643   3.769   4.194   3.764 -0.5848  0.5253 -0.5095
   30MOL    H46 7644   3.741   3.977   4.063  0.2226 -0.2940 -1.1876
   30MOL    H47 7645   3.817   3.826   4.021 -1.7508  1.9757 -0.7267
   30MOL    H48 7646   3.997   4.066   4.059 -0.7926 -0.3662  1.3031
   30MOL    H49 7647   3.941   4.235   3.884  0.3972  1.0335  2.5014
   30MOL    H50 7648   3.803   4.186   3.977  1.7259 -0.6702  1.0747
   30MOL    H51 7649   3.828   4.191   3.672  0.7893  0.3268  0.3543
   30MOL    H52 7650   3.680   4.132   3.753 -1.5512  1.7887  0.0339
   30MOL    H53 7651   3.730   4.295   3.767  0.3608  0.9600 -2.1253
   30MOL    C54 7652   4.075   3.893   3.965  0.7078 -0.3396  0.7845
   30MOL    C55 7653   4.044   3.784   3.850  0.1064  0.4218 -0.0842
   30MOL    O56 7654   4.134   3.676   3.879  0.6494  0.3941  0.3433
   30MOL    C57 7655   4.079   3.577   3.971 -0.3492  0.2020 -0.7543
   30MOL    C58 7656   4.189   3.473   3.983 -0.5027  0.1030  0.2293
   30MOL    H59 7657   4.113   3.854   4.059 -0.5865 -0.8800  1.0999
   30MOL    H60 7658   4.166   3.940   3.928 -0.2370  0.4975 -0.5235
   30MOL    H61 7659   3.943   3.750   3.874 -0.1984  1.4406  0.0961
   30MOL    H62 7660   4.001   3.520   3.922 -0.6399 -2.5466  2.7128
   30MOL    H63 7661   4.052   3.613   4.071  2.4575  0.5085 -0.0583
   30MOL    H64 7662   4.266   3.533   4.031 -0.0968 -1.2482  1.2836
   30MOL    H65 7663   4.164   3.388   4.047  0.2392  0.1192  0.5442
   30MOL    H66 7664   4.234   3.440   3.890 -1.2988  1.5940 -0.7037
   30MOL    C67 7665   4.065   3.831   3.705  0.0510 -0.3553  0.0160
   30MOL    C68 7666   3.985   3.749   3.602 -0.2524 -0.0940 -0.4197
   30MOL    O69 7667   3.845   3.756   3.638 -0.4714  0.0494  0.3631
   30MOL    C70 7668   3.770   3.868   3.605  0.5245 -0.6423  0.0968
   30MOL    C71 7669   3.628   3.864   3.658  0.5706  0.8030  0.3077
   30MOL    H72 7670   4.166   3.856   3.674 -0.4173  0.6643 -0.7295
   30MOL    H73 7671   4.019   3.930   3.704 -2.2279 -1.3856  0.2125
   30MOL    H74 7672   3.984   3.802   3.507 -4.4446 -1.5535 -1.3098
   30MOL    H75 7673   3.758   3.879   3.497  0.2024  0.6428  0.2612
   30MOL    H76 7674   3.825   3.958   3.631 -1.9286  0.1665  2.6725
   30MOL    H77 7675   3.587   3.763   3.648 -0.5846  1.1694  1.2038
   30MOL    H78 7676   3.642   3.896   3.761 -0.2860 -1.4887  1.1616
   30MOL    H79 7677   3.561   3.937   3.612 -1.2877 -0.4248  0.9843
   30MOL    C80 7678   4.038   3.604   3.590  0.1472 -0.5961  0.4088
   30MOL    C81 7679   4.040   3.552   3.442 -0.2803 -0.5834 -0.0533
   30MOL    O82 7680   3.902   3.549   3.392  0.0699 -0.0110 -0.2679
   30MOL    C83 7681   3.886   3.646   3.292  0.2229 -0.2301 -0.2209
   30MOL    C84 7682   3.737   3.655   3.256 -0.9960 -0.3300 -0.0618
   30MOL    H85 7683   3.985   3.540   3.661  0.6857  0.0931  1.4335
   30MOL    H86 7684   4.139   3.599   3.630 -0.1718 -0.0584  1.3041
   30MOL    H87 7685   4.113   3.607   3.383  0.4790 -0.4432  1.0131
   30MOL    H88 7686   3.928   3.603   3.201  1.0222  1.6857 -0.7860
   30MOL    H89 7687   3.940   3.739   3.311  1.2444 -0.6935 -0.8135
   30MOL    H90 7688   3.718   3.561   3.204 -2.2095  1.4163 -2.9233
   30MOL    H91 7689   3.677   3.676   3.344  1.0997 -1.1790  1.6075
   30MOL    H92 7690   3.721   3.734   3.182 -2.1659  0.2221  0.7686
   30MOL    C93 7691   4.098   3.408   3.453 -0.0828  0.5734 -0.4661
   30MOL    C94 7692   4.139   3.335   3.316  0.7822  0.4512  0.5204
   30MOL    O95 7693   4.196   3.211   3.359  0.2466 -0.6662 -0.5349
   30MOL    C96 7694   4.109   3.103   3.369 -0.1409  0.7329 -0.1788
   30MOL    C97 7695   4.202   2.985   3.380 -0.0829 -0.3343  0.2039
   30MOL    H98 7696   4.022   3.356   3.512  0.6052  0.3230  0.2162
   30MOL    H99 7697   4.184   3.410   3.520  0.8451 -1.2115 -1.5605
   30MOL   H100 7698   4.053   3.321   3.250  0.8294  1.6417  0.1944
   30MOL   H101 7699   4.037   3.094   3.288 -2.1751  1.4195  1.4948
   30MOL   H102 7700   4.042   3.110   3.455  2.0493 -0.1945  1.6736
   30MOL   H103 7701   4.138   2.897   3.379 -0.0613 -0.3701 -2.3352
   30MOL   H104 7702   4.274   2.989   3.298 -1.1588 -2.3757 -0.8916
   30MOL   H105 7703   4.251   2.994   3.477  0.5987  0.7414 -0.2301
   30MOL   C106 7704   4.257   3.394   3.232  0.5120 -0.4137 -0.4499
   30MOL   C107 7705   4.301   3.320   3.098 -0.1709  0.8369  0.2390
   30MOL   O108 7706   4.436   3.363   3.068  0.0553 -0.1980 -0.1942
   30MOL   C109 7707   4.534   3.266   3.106  0.5896  0.2018 -0.3988
   30MOL   C110 7708   4.671   3.326   3.120 -0.3196 -0.1842  0.1887
   30MOL   H111 7709   4.352   3.396   3.287  1.1990 -4.3650 -1.3464
   30MOL   H112 7710   4.223   3.495   3.210  0.7928  0.0506  1.1705
   30MOL   H113 7711   4.297   3.215   3.124  1.3235 -0.1893 -3.4294
   30MOL   H114 7712   4.527   3.182   3.038  0.8107  1.8192 -2.4523
   30MOL   H115 7713   4.503   3.229   3.204  2.2174 -0.2884 -0.0524
   30MOL   H116 7714   4.666   3.421   3.173 -0.4222  0.0895 -0.3091
   30MOL   H117 7715   4.734   3.257   3.176 -1.0918 -0.2316  1.0205
   30MOL   H118 7716   4.723   3.353   3.028  0.7437  0.0217  0.8438
   30MOL   C119 7717   4.204   3.356   2.985  0.6466  0.7725  0.6126
   30MOL   C120 7718   4.240   3.286   2.854 -0.2068 -0.0424  0.3001
   30MOL   O121 7719   4.164   3.345   2.750 -0.5159  0.0539 -0.5709
   30MOL   C122 7720   4.239   3.439   2.668 -0.3376 -0.1905  0.4889
   30MOL   C123 7721   4.169   3.483   2.539  0.1777 -0.1824  0.6656
   30MOL   H124 7722   4.212   3.463   2.964  2.2419  0.8456  1.4855
   30MOL   H125 7723   4.101   3.335   3.013  0.2237 -1.2955 -2.1956
   30MOL   H126 7724   4.345   3.308   2.839  0.2133 -0.9036  1.8925
   30MOL   H127 7725   4.336   3.395   2.644  1.2933  1.8955  3.0372
   30MOL   H128 7726   4.261   3.524   2.731 -3.5087 -1.1291  2.9858
   30MOL   H129 7727   4.076   3.539   2.550 -0.2428 -0.1418 -2.6226
   30MOL   H130 7728   4.230   3.541   2.469  1.1906  2.1560  3.3284
   30MOL   H131 7729   4.146   3.395   2.480  1.0944  0.8816 -1.3217
   30MOL   C132 7730   4.218   3.132   2.852  0.0235  0.0640  0.2047
   30MOL   C133 7731   4.228   3.054   2.716 -0.1056  0.2841  0.0068
   30MOL   O134 7732   4.184   2.925   2.731  0.4052 -0.3092  0.5871
   30MOL   C135 7733   4.046   2.902   2.706 -0.3359 -0.2682  0.3055
   30MOL   C136 7734   4.023   2.751   2.717 -0.6299 -0.2977  0.3552
   30MOL   H137 7735   4.118   3.107   2.888 -0.1478  0.3901 -0.0467
   30MOL   H138 7736   4.288   3.087   2.923  0.2835 -2.2275 -1.4589
   30MOL   H139 7737   4.165   3.108   2.646  0.2539 -0.5637 -0.9821
   30MOL   H140 7738   4.035   2.925   2.600 -1.7045  2.4099  0.9695
   30MOL   H141 7739   3.975   2.949   2.774 -0.3084 -0.7095  0.6418
   30MOL   H142 7740   4.103   2.690   2.675 -1.5428 -1.3659  0.1689
   30MOL   H143 7741   4.020   2.723   2.822 -1.7744  1.1627  0.7216
   30MOL   H144 7742   3.931   2.726   2.665 -0.4869  0.4715 -0.2889
   30MOL   C145 7743   4.371   3.048   2.660  0.3931  0.0306 -0.0082
   30MOL   C146 7744   4.372   3.018   2.510 -0.5781 -0.8791 -0.5570
   30MOL   O147 7745   4.502   2.991   2.471  0.1274  0.7510  0.2844
   30MOL   C148 7746   4.555   2.861   2.509 -0.1532 -0.6818 -0.4977
   30MOL   C149 7747   4.704   2.859   2.488  0.5323  0.3351 -0.2798
   30MOL   H150 7748   4.422   2.967   2.712 -0.6049  1.1245  2.7360
   30MOL   H151 7749   4.420   3.140   2.691  1.6378 -0.5852 -0.1002
   30MOL   H152 7750   4.314   2.928   2.489  0.6410 -2.4789  2.6741
   30MOL   H153 7751   4.509   2.795   2.436 -2.3236  0.9557 -0.6543
   30MOL   H154 7752   4.513   2.830   2.605  1.4311  1.2822  0.8951
   30MOL   H155 7753   4.765   2.917   2.557 -1.0482  1.9846 -0.2403
   30MOL   H156 7754   4.731   2.754   2.500 -1.8117 -0.3553 -0.7139
   30MOL   H157 7755   4.726   2.889   2.385 -2.2359  3.2196 -0.1136
   30MOL   C158 7756   4.313   3.131   2.424 -0.2134  0.3681  0.2734
   30MOL   C159 7757   4.316   3.104   2.272 -0.2442  0.4451 -0.1374
   30MOL   O160 7758   4.269   3.215   2.193 -0.6665 -0.1812  0.1400
   30MOL   C161 7759   4.373   3.305   2.154  0.3979  0.0807  0.3168
   30MOL   C162 7760   4.315   3.412   2.056  0.2898 -0.5265 -0.1676
   30MOL   H163 7761   4.368   3.222   2.447 -1.9952  2.0022 -1.6499
   30MOL   H164 7762   4.210   3.160   2.448 -0.2235 -0.0373  0.7197
   30MOL   H165 7763   4.420   3.078   2.251 -0.7248 -2.1078  0.4474
   30MOL   H166 7764   4.457   3.251   2.110  0.8531  0.0753  1.1668
   30MOL   H167 7765   4.415   3.347   2.246  0.2112  0.7612  0.0926
   30MOL   H168 7766   4.228   3.464   2.096 -0.3400 -2.0408  0.4571
   30MOL   H169 7767   4.388   3.491   2.035  1.7929 -0.7902  3.7443
   30MOL   H170 7768   4.279   3.362   1.966 -1.4807  0.8109 -0.2325
   30MOL   C171 7769   4.233   2.984   2.232  0.0406  0.4468 -0.1913
   30MOL   C172 7770   4.212   2.958   2.081  0.0377 -0.9456 -0.2991
   30MOL   O173 7771   4.106   2.866   2.070 -0.4195  0.6588  0.2564
   30MOL   C174 7772   4.024   2.877   1.949 -0.1161 -0.2412  0.0933
   30MOL   C175 7773   3.967   2.749   1.905  0.0075  0.9636  0.7408
   30MOL   H176 7774   4.130   3.000   2.263  0.6755  0.2337  2.1323
   30MOL   H177 7775   4.260   2.889   2.278  0.1712  0.4760 -0.2085
   30MOL   H178 7776   4.190   3.058   2.045  0.4213  0.2407  2.5942
   30MOL   H179 7777   4.078   2.920   1.864 -0.7952  2.5812  1.0424
   30MOL   H180 7778   3.945   2.951   1.961  1.6694  2.0504 -1.6158
   30MOL   H181 7779   4.042   2.670   1.905  1.0989  1.9991 -0.0652
   30MOL   H182 7780   3.889   2.713   1.973  0.6920  0.8894  1.4856
   30MOL   H183 7781   3.937   2.758   1.800 -1.1226 -1.6116  0.7757
   30MOL   C184 7782   4.330   2.915   1.995  0.3090 -0.2740  0.1082
   30MOL   C185 7783   4.398   2.787   2.037  0.6997 -0.5244  0.1424
   30MOL   O186 7784   4.530   2.800   1.996  0.4959  0.1689 -0.0713
   30MOL   C187 7785   4.617   2.876   2.082  0.5169 -0.1495  0.8434
   30MOL   C188 7786   4.745   2.799   2.120 -0.2013 -0.1910  0.6992
   30MOL   H189 7787   4.397   3.000   1.989 -1.7875  1.3422 -1.0790
   30MOL   H190 7788   4.300   2.900   1.891  1.0523  0.8505 -0.2757
   30MOL   H191 7789   4.391   2.765   2.144  0.5652 -0.5356  0.1309
   30MOL   H192 7790   4.563   2.909   2.171  3.9171  0.6636  2.6836
   30MOL   H193 7791   4.646   2.969   2.034  0.8304 -0.7455 -0.1442
   30MOL   H194 7792   4.722   2.694   2.138  0.5108 -0.7413 -1.4553
   30MOL   H195 7793   4.811   2.780   2.035 -0.8400  0.1052  0.1373
   30MOL   H196 7794   4.808   2.846   2.196  0.8045  0.5183 -0.5438
   30MOL   C197 7795   4.350   2.656   1.969 -0.0781  0.7348  0.0386
   30MOL   C198 7796   4.431   2.525   2.011  0.1899 -0.3548  0.0332
   30MOL   O199 7797   4.381   2.414   1.945  0.1569 -0.8665 -0.1814
   30MOL   C200 7798   4.433   2.400   1.812 -0.3523 -0.1996 -0.1589
   30MOL   C201 7799   4.350   2.291   1.736 -1.0374  0.1971  0.2265
   30MOL   H202 7800   4.364   2.676   1.863 -1.3702  0.8456 -0.1187
   30MOL   H203 7801   4.247   2.643   2.004 -0.2457 -0.7303 -0.9767
   30MOL   H204 7802   4.530   2.550   1.976  0.1035  0.6402  0.4891
   30MOL   H205 7803   4.535   2.365   1.797 -0.8199 -1.8075  0.2511
   30MOL   H206 7804   4.429   2.495   1.760 -3.1774 -0.9396 -1.4222
   30MOL   H207 7805   4.372   2.291   1.629  1.1004  2.2520  0.5979
   30MOL   H208 7806   4.354   2.192   1.781 -0.0603  0.9283  1.8032
   30MOL   H209 7807   4.245   2.320   1.730 -1.1696 -0.1597  0.8500
   30MOL   C210 7808   4.440   2.497   2.162 -0.2439  0.2094 -0.0836
   30MOL   C211 7809   4.309   2.487   2.239 -0.7784  0.4342 -0.4459
   30MOL   O212 7810   4.336   2.467   2.377  0.3011  0.7081  0.4558
   30MOL   C213 7811   4.299   2.570   2.468 -0.1389 -0.4232  0.2177
   30MOL   C214 7812   4.369   2.547   2.598  0.6635 -0.7062 -0.4291
   30MOL   H215 7813   4.513   2.571   2.195 -0.1507  0.1515 -0.1610
   30MOL   H216 7814   4.498   2.406   2.176 -0.1037  0.2679 -0.2761
   30MOL   H217 7815   4.273   2.590   2.239  1.4000  1.2130 -0.9277
   30MOL   H218 7816   4.190   2.572   2.481 -0.2415  0.0051 -0.6407
   30MOL   H219 7817   4.312   2.672   2.432  0.0276 -0.1884  0.9353
   30MOL   H220 7818   4.323   2.611   2.673  0.1488 -2.1984  0.5328
   30MOL   H221 7819   4.359   2.444   2.632 -1.3382 -0.1231  0.8186
   30MOL   H222 7820   4.477   2.560   2.595  0.4760  1.5470  1.5300
   30MOL   C223 7821   4.215   2.369   2.206 -0.0015  0.1258 -0.5421
   30MOL   C224 7822   4.079   2.363   2.269 -0.6169  0.8197 -0.0330
   30MOL   O225 7823   4.024   2.231   2.262 -0.0012 -0.0530 -0.0315
   30MOL   C226 7824   4.090   2.144   2.359 -0.3581 -0.6759 -0.6954
   30MOL   C227 7825   4.060   1.989   2.341 -0.1103 -0.0224  0.2910
   30MOL   H228 7826   4.279   2.281   2.220  0.9075  0.5376 -1.9170
   30MOL   H229 7827   4.185   2.370   2.101  1.2958 -1.5355 -0.9655
   30MOL   H230 7828   4.096   2.398   2.371  0.1085 -2.1970  0.9232
   30MOL   H231 7829   4.063   2.177   2.459  1.7104  0.9372 -0.6280
   30MOL   H232 7830   4.198   2.151   2.347 -0.7127  0.6659 -3.8256
   30MOL   H233 7831   4.114   1.935   2.419  0.2968  1.0762  0.7817
   30MOL   H234 7832   3.952   1.977   2.348  0.0468 -1.0864  1.0313
   30MOL   H235 7833   4.102   1.964   2.244  0.2929  1.9987 -0.0675
   30MOL   C236 7834   3.969   2.448   2.208 -0.4850  0.2505  0.4451
   30MOL   C237 7835   3.846   2.503   2.290 -0.6835 -0.8359 -0.6108
   30MOL   O238 7836   3.884   2.603   2.381 -0.8894  0.3413  0.1391
   30MOL   C239 7837   3.898   2.734   2.325  0.7244  0.0626 -0.0192
   30MOL   C240 7838   3.777   2.811   2.380  0.0613 -0.1125 -0.1019
   30MOL   H241 7839   3.931   2.397   2.120  0.6829  0.5572 -0.2407
   30MOL   H242 7840   4.015   2.536   2.164 -2.7297  0.9864 -0.5066
   30MOL   H243 7841   3.771   2.534   2.217  0.5802  1.0435 -1.1419
   30MOL   H244 7842   3.903   2.720   2.217 -0.3455 -0.1811 -0.0475
   30MOL   H245 7843   3.994   2.779   2.348 -0.2206  1.1962  1.8487
   30MOL   H246 7844   3.808   2.863   2.471  1.3052  0.7498 -1.0002
   30MOL   H247 7845   3.756   2.887   2.305  0.4464  0.0432 -0.0536
   30MOL   H248 7846   3.695   2.743   2.401  0.1763  0.0994  1.0473
   30MOL   C249 7847   3.775   2.397   2.377  0.2969  0.3621  0.2490
   30MOL   C250 7848   3.694   2.295   2.305 -0.0533 -0.0272  0.2256
   30MOL   O251 7849   3.659   2.188   2.392 -0.6995  0.2196 -0.1759
   30MOL   C252 7850   3.636   2.067   2.330  1.0791  0.4809 -0.1047
   30MOL   C253 7851   3.635   1.959   2.436 -0.8778 -0.3448 -0.9052
   30MOL   H254 7852   3.709   2.455   2.440 -0.1720 -1.6319  1.6368
   30MOL   H255 7853   3.852   2.356   2.443  0.5906 -0.4327 -0.5719
   30MOL   H256 7854   3.603   2.346   2.274  0.3759 -0.0863 -1.1707
   30MOL   H257 7855   3.717   2.049   2.260  0.0445 -0.5854 -1.0512
   30MOL   H258 7856   3.547   2.076   2.268 -0.8742 -0.5992  2.4432
   30MOL   H259 7857   3.568   1.985   2.518 -0.6063 -0.8191 -0.5247
   30MOL   H260 7858   3.613   1.865   2.385 -0.5579  0.5537 -2.7464
   30MOL   H261 7859   3.731   1.950   2.488 -1.6847 -1.2732  0.4675
   30MOL   H262 7860   3.761   2.250   2.232  0.1830 -0.7043  0.8546
   31MOL     C1 7861   3.702   6.115   6.027 -0.6681 -0.0783 -0.5997
   31MOL     C2 7862   3.727   5.996   5.933  0.4371  0.0001 -0.0702
   31MOL     O3 7863   3.602   5.947   5.877  0.1154  0.1777  0.0849
   31MOL     C4 7864   3.524   6.032   5.797  0.7812  0.4692 -0.1510
   31MOL     C5 7865   3.395   5.951   5.771  0.9843 -0.1924 -0.4691
   31MOL     H6 7866   3.796   6.137   6.079 -0.9027  2.5341 -1.2419
   31MOL     H7 7867   3.681   6.201   5.965  0.0120  0.9300  0.5400
   31MOL     H8 7868   3.782   6.036   5.848 -1.0794  0.5603 -0.8088
   31MOL     H9 7869   3.590   6.043   5.711  1.5282  3.3040  0.7465
   31MOL    H10 7870   3.513   6.131   5.842 -0.9338 -0.3908  1.4010
   31MOL    H11 7871   3.322   6.013   5.720  0.4871  0.2726  0.7807
   31MOL    H12 7872   3.396   5.851   5.726  2.0639 -1.2655  1.8483
   31MOL    H13 7873   3.353   5.944   5.871  0.3305 -0.9945 -0.7916
   31MOL    H14 7874   3.620   6.097   6.096  0.7535 -1.7605  0.7075
   31MOL    C15 7875   3.791   5.875   5.999  0.1207 -0.0347 -1.2595
   31MOL    C16 7876   3.800   5.740   5.914 -0.1823  1.2952 -0.2169
   31MOL    O17 7877   3.844   5.642   6.004 -0.0617  0.0493  0.3393
   31MOL    C18 7878   3.789   5.514   5.984 -0.0534 -0.0580  0.3775
   31MOL    C19 7879   3.869   5.420   6.079  0.5991 -0.2519  0.5310
   31MOL    H20 7880   3.740   5.853   6.092  2.4726 -1.6022 -0.2775
   31MOL    H21 7881   3.893   5.910   6.020 -0.5622  1.0968  0.2455
   31MOL    H22 7882   3.702   5.721   5.871 -0.5579  1.2855  0.6316
   31MOL    H23 7883   3.797   5.483   5.880 -0.0760 -1.7330  0.8524
   31MOL    H24 7884   3.686   5.526   6.020  0.1941  0.0104  1.0716
   31MOL    H25 7885   3.882   5.472   6.173  1.2079 -0.8860  0.8098
   31MOL    H26 7886   3.963   5.394   6.030 -0.3527  0.6290 -1.8226
   31MOL    H27 7887   3.812   5.329   6.101 -0.3082 -0.3096 -1.8919
   31MOL    C28 7888   3.922   5.737   5.817  1.2831 -0.2424 -0.7724
   31MOL    C29 7889   3.911   5.793   5.676 -0.3417  0.3747  0.3729
   31MOL    O30 7890   3.878   5.694   5.582 -0.7086  0.0600 -0.1104
   31MOL    C31 7891   3.798   5.719   5.470  0.0981  0.2107 -0.1505
   31MOL    C32 7892   3.650   5.724   5.501 -0.1379 -0.0791  0.1744
   31MOL    H33 7893   3.961   5.636   5.810  0.6338 -0.6320  0.9321
   31MOL    H34 7894   4.000   5.789   5.872 -0.5133  2.2904 -0.5209
   31MOL    H35 7895   3.834   5.871   5.671 -1.4264 -0.7548 -1.4048
   31MOL    H36 7896   3.809   5.644   5.393 -0.2509 -1.2936  1.2393
   31MOL    H37 7897   3.826   5.814   5.425  0.7253  0.2965  0.4081
   31MOL    H38 7898   3.612   5.626   5.530  0.1329 -0.6578 -1.3684
   31MOL    H39 7899   3.614   5.793   5.578  0.4830 -0.2817  0.6473
   31MOL    H40 7900   3.592   5.770   5.421 -1.0238  1.0736  1.4493
   31MOL    C41 7901   4.049   5.851   5.630 -0.6072 -0.4791  0.0122
   31MOL    C42 7902   4.173   5.765   5.580 -0.4345 -0.2705 -0.5796
   31MOL    O43 7903   4.215   5.677   5.687 -0.1728 -0.4019  0.5119
   31MOL    C44 7904   4.171   5.540   5.673 -0.1127  0.0617  0.2375
   31MOL    C45 7905   4.252   5.463   5.557  0.1860  0.2443  0.5418
   31MOL    H46 7906   4.079   5.927   5.703  0.2911 -1.1769  0.3773
   31MOL    H47 7907   4.023   5.917   5.547  1.6478  3.8617  2.5587
   31MOL    H48 7908   4.143   5.710   5.490  0.8789 -0.0370 -1.1741
   31MOL    H49 7909   4.065   5.536   5.649  0.0405 -1.0566 -0.2598
   31MOL    H50 7910   4.181   5.496   5.772  0.7358 -2.1251 -0.7929
   31MOL    H51 7911   4.245   5.509   5.459 -2.0828 -1.3151 -0.0648
   31MOL    H52 7912   4.357   5.450   5.584  0.4687  0.5895 -0.3722
   31MOL    H53 7913   4.205   5.365   5.552  0.4069  0.1123  0.9945
   31MOL    C54 7914   4.293   5.856   5.548 -0.7474  0.0881 -0.3430
   31MOL    C55 7915   4.424   5.777   5.502  0.3860 -0.2880  0.0332
   31MOL    O56 7916   4.543   5.836   5.542 -0.1699  0.1542 -0.1313
   31MOL    C57 7917   4.578   5.805   5.684 -0.2153  0.4946 -0.1957
   31MOL    C58 7918   4.711   5.870   5.707  0.0282  0.2843 -0.4116
   31MOL    H59 7919   4.323   5.915   5.634 -0.0367  0.1883 -0.6580
   31MOL    H60 7920   4.275   5.938   5.477  0.6503  0.0811 -0.7148
   31MOL    H61 7921   4.406   5.686   5.560  0.2811  0.7201  1.5930
   31MOL    H62 7922   4.588   5.699   5.704 -2.0404  0.3651  0.0781
   31MOL    H63 7923   4.514   5.855   5.756 -1.2342 -2.2862  0.8923
   31MOL    H64 7924   4.707   5.977   5.688  0.8778  0.7323  1.8074
   31MOL    H65 7925   4.753   5.850   5.806  0.2368  0.3783 -0.4820
   31MOL    H66 7926   4.785   5.839   5.634  2.0203 -2.5561  2.6362
   31MOL    C67 7927   4.413   5.753   5.352  0.1780 -0.4713 -0.3815
   31MOL    C68 7928   4.528   5.676   5.289  0.0318 -0.3136 -0.1129
   31MOL    O69 7929   4.514   5.686   5.142 -0.0158  0.0968  0.0469
   31MOL    C70 7930   4.564   5.811   5.097  0.4472 -0.5525 -0.4798
   31MOL    C71 7931   4.520   5.828   4.949 -0.0886 -0.3711 -0.7523
   31MOL    H72 7932   4.407   5.853   5.310  0.0825  0.9834  2.9064
   31MOL    H73 7933   4.315   5.706   5.344 -0.4942  0.9645 -0.7727
   31MOL    H74 7934   4.624   5.708   5.328 -1.4229  2.1281  1.6130
   31MOL    H75 7935   4.671   5.804   5.116  0.4368  2.8262  1.3443
   31MOL    H76 7936   4.534   5.899   5.154 -3.1965  1.3891 -5.1234
   31MOL    H77 7937   4.567   5.913   4.900 -2.0116  1.7993  1.0393
   31MOL    H78 7938   4.541   5.738   4.891  0.3497 -0.4430 -0.4855
   31MOL    H79 7939   4.411   5.837   4.950 -0.0123  0.4320  0.0142
   31MOL    C80 7940   4.499   5.525   5.320 -0.7699  0.3701  0.9418
   31MOL    C81 7941   4.601   5.417   5.268  0.3682  0.2928 -0.4896
   31MOL    O82 7942   4.591   5.307   5.359  0.3230 -0.6617 -0.7362
   31MOL    C83 7943   4.484   5.215   5.338 -0.1836  0.3152  0.3460
   31MOL    C84 7944   4.506   5.100   5.442  0.8756 -0.2431 -0.7899
   31MOL    H85 7945   4.394   5.508   5.296 -0.9676  2.8806 -0.0988
   31MOL    H86 7946   4.508   5.516   5.429 -1.9114  0.9027  1.0895
   31MOL    H87 7947   4.568   5.396   5.166 -0.3269  0.2719 -0.2639
   31MOL    H88 7948   4.490   5.179   5.235 -1.0294  1.7269 -0.2069
   31MOL    H89 7949   4.388   5.266   5.342 -0.4595 -0.0802 -1.0175
   31MOL    H90 7950   4.527   5.133   5.544 -0.8754 -0.1288 -0.4548
   31MOL    H91 7951   4.421   5.034   5.458  0.7525  0.2376  0.6903
   31MOL    H92 7952   4.582   5.028   5.413  0.0232 -1.4222 -0.1225
   31MOL    C93 7953   4.746   5.471   5.264 -0.5500  0.5177  0.1988
   31MOL    C94 7954   4.847   5.351   5.247  0.1428  0.6331  0.2519
   31MOL    O95 7955   4.967   5.420   5.231  0.0677 -0.2757  0.0557
   31MOL    C96 7956   5.072   5.379   5.320  0.1490  0.0968  0.1465
   31MOL    C97 7957   5.204   5.440   5.270 -0.9058  0.0148 -0.7885
   31MOL    H98 7958   4.769   5.512   5.363  3.3708  1.9642 -1.2031
   31MOL    H99 7959   4.752   5.547   5.187 -2.1768  0.2317 -0.2368
   31MOL   H100 7960   4.836   5.291   5.338 -0.4511  0.5611  0.1395
   31MOL   H101 7961   5.088   5.273   5.300 -0.1828  0.1131 -0.2288
   31MOL   H102 7962   5.043   5.409   5.421  1.6864 -1.7552  1.1558
   31MOL   H103 7963   5.282   5.420   5.342 -0.9865 -1.1987 -1.0163
   31MOL   H104 7964   5.226   5.405   5.169 -2.1683 -1.4473 -0.5774
   31MOL   H105 7965   5.194   5.549   5.270 -2.5438 -0.1144 -0.7337
   31MOL   C106 7966   4.826   5.272   5.111  0.2109 -0.0938 -0.3911
   31MOL   C107 7967   4.840   5.114   5.121 -0.4397  0.0513  0.1461
   31MOL   O108 7968   4.984   5.095   5.155  0.3524  0.2200  0.0236
   31MOL   C109 7969   5.017   4.965   5.196  0.3509 -0.5673  0.3826
   31MOL   C110 7970   5.159   4.968   5.256  0.7579  0.4483  0.7566
   31MOL   H111 7971   4.887   5.316   5.033 -1.2520  1.5173 -0.6376
   31MOL   H112 7972   4.728   5.289   5.068  0.9610  0.1455 -2.0603
   31MOL   H113 7973   4.783   5.069   5.201  2.4321 -1.2234  1.5382
   31MOL   H114 7974   5.012   4.895   5.112  0.2449 -0.4204  0.2676
   31MOL   H115 7975   4.951   4.930   5.276  0.9431 -2.1029  0.2273
   31MOL   H116 7976   5.192   4.868   5.281 -1.3836 -0.5884 -0.4273
   31MOL   H117 7977   5.231   5.000   5.180 -1.1224  2.2827 -0.3167
   31MOL   H118 7978   5.162   5.027   5.348 -0.7561  1.3630  0.2407
   31MOL   C119 7979   4.814   5.045   4.983  0.8932  0.1044 -0.6671
   31MOL   C120 7980   4.731   4.912   4.995  0.3585  0.1101  0.1238
   31MOL   O121 7981   4.723   4.874   4.857  0.6196 -0.1839  0.0230
   31MOL   C122 7982   4.843   4.802   4.809 -0.2769 -0.4246 -0.6757
   31MOL   C123 7983   4.840   4.648   4.838 -0.1094 -0.6514  0.7268
   31MOL   H124 7984   4.908   5.031   4.929  0.6067  1.6869 -1.6340
   31MOL   H125 7985   4.748   5.109   4.924  0.2463  0.6814  0.6819
   31MOL   H126 7986   4.785   4.835   5.049 -1.7744 -1.8512 -0.4475
   31MOL   H127 7987   4.937   4.838   4.850 -1.5572  1.1568  0.9558
   31MOL   H128 7988   4.836   4.809   4.700 -2.5774  0.4162 -0.4906
   31MOL   H129 7989   4.883   4.610   4.930  0.2571 -0.6117  0.5729
   31MOL   H130 7990   4.737   4.612   4.838 -0.2087 -0.3922  0.0218
   31MOL   H131 7991   4.884   4.590   4.757  0.0478 -1.6606  1.5262
   31MOL   C132 7992   4.584   4.934   5.061  0.0364  0.1895 -0.0514
   31MOL   C133 7993   4.493   4.812   5.087  1.2615 -0.0715 -0.1744
   31MOL   O134 7994   4.372   4.871   5.123  0.1290 -0.8449 -0.0726
   31MOL   C135 7995   4.279   4.878   5.014  0.5168  0.5081  0.6128
   31MOL   C136 7996   4.138   4.903   5.071 -0.7789 -0.2871 -0.6282
   31MOL   H137 7997   4.533   5.005   4.997  0.1414  1.0146  0.7848
   31MOL   H138 7998   4.610   4.975   5.158  0.7238 -2.7127  1.0590
   31MOL   H139 7999   4.488   4.738   5.006 -0.6758  2.4996 -2.4932
   31MOL   H140 8000   4.276   4.781   4.965 -1.9485  0.9384 -0.1899
   31MOL   H141 8001   4.311   4.966   4.958 -0.0026  1.9213  2.4900
   31MOL   H142 8002   4.066   4.895   4.990 -0.5729  1.6404 -1.0310
   31MOL   H143 8003   4.117   4.829   5.149  1.9527 -1.4576 -0.9356
   31MOL   H144 8004   4.141   5.002   5.117  0.1855 -1.6664  2.4234
   31MOL   C145 8005   4.530   4.720   5.211 -0.1834  0.1418  0.4651
   31MOL   C146 8006   4.631   4.607   5.191 -0.0047 -0.7711  0.4563
   31MOL   O147 8007   4.563   4.489   5.155  0.0742  0.3028  0.0463
   31MOL   C148 8008   4.541   4.450   5.019 -0.2763 -0.0184  0.0159
   31MOL   C149 8009   4.519   4.296   5.018  0.0196  0.5821 -0.8375
   31MOL   H150 8010   4.445   4.675   5.263 -0.8219  2.3713  1.4130
   31MOL   H151 8011   4.571   4.781   5.292 -1.7619  0.2126  1.2381
   31MOL   H152 8012   4.721   4.636   5.135 -0.6462  1.0460  0.3360
   31MOL   H153 8013   4.619   4.483   4.950  1.1462  0.0788  1.6474
   31MOL   H154 8014   4.462   4.498   4.961  2.2404  2.6831 -1.3427
   31MOL   H155 8015   4.425   4.278   5.069  0.6264  0.3753  0.2159
   31MOL   H156 8016   4.502   4.273   4.912 -2.5172 -0.0684 -0.3305
   31MOL   H157 8017   4.596   4.241   5.072 -0.1293  0.3993 -0.8120
   31MOL   C158 8018   4.695   4.574   5.329 -0.5648 -0.6432 -0.7045
   31MOL   C159 8019   4.794   4.450   5.330 -0.3211  0.8205 -0.2100
   31MOL   O160 8020   4.830   4.417   5.464  0.1404 -0.2896  0.4272
   31MOL   C161 8021   4.738   4.325   5.522 -0.0722  0.4247 -0.3062
   31MOL   C162 8022   4.779   4.320   5.672 -0.2892  0.2178  0.4486
   31MOL   H163 8023   4.617   4.554   5.402 -1.6510  1.9118 -1.1178
   31MOL   H164 8024   4.750   4.657   5.373  0.5977 -1.5896 -0.3289
   31MOL   H165 8025   4.743   4.364   5.287 -1.7197  1.6153 -0.1817
   31MOL   H166 8026   4.752   4.230   5.471  1.5537  0.3126  0.3078
   31MOL   H167 8027   4.637   4.363   5.512 -0.8228 -1.5945 -0.5234
   31MOL   H168 8028   4.791   4.425   5.699 -1.2626  1.5315 -3.8024
   31MOL   H169 8029   4.692   4.278   5.722 -0.1241 -0.6406  0.0367
   31MOL   H170 8030   4.874   4.267   5.679 -0.7104 -0.7056 -0.6532
   31MOL   C171 8031   4.936   4.478   5.272 -0.2133  0.9116 -0.6148
   31MOL   C172 8032   5.048   4.383   5.300  0.6624  0.0959 -0.4513
   31MOL   O173 8033   5.164   4.435   5.251 -0.1430  0.2400  0.7284
   31MOL   C174 8034   5.230   4.525   5.337 -0.2865  0.1936  0.5471
   31MOL   C175 8035   5.379   4.532   5.303  0.3641  0.2059  0.7779
   31MOL   H176 8036   4.965   4.577   5.308  1.5517  0.4299 -0.6526
   31MOL   H177 8037   4.941   4.500   5.165 -0.5456  1.9471 -0.4255
   31MOL   H178 8038   5.047   4.367   5.408  2.1497 -0.1169 -0.4684
   31MOL   H179 8039   5.228   4.476   5.435  1.1578 -0.8026  0.0925
   31MOL   H180 8040   5.187   4.625   5.343  0.8171  0.8024 -1.2664
   31MOL   H181 8041   5.423   4.433   5.301  1.4847  0.6316 -4.0632
   31MOL   H182 8042   5.397   4.579   5.206  0.3197 -1.2506  0.0587
   31MOL   H183 8043   5.424   4.597   5.378 -0.9754  2.6998 -0.4990
   31MOL   C184 8044   5.036   4.259   5.219 -0.2129  0.0799  0.2873
   31MOL   C185 8045   5.118   4.134   5.272  0.0926  0.4600  0.0495
   31MOL   O186 8046   5.080   4.035   5.180  0.1780  0.3320 -0.1263
   31MOL   C187 8047   5.189   3.979   5.115 -0.2044  0.3102  0.3476
   31MOL   C188 8048   5.137   3.881   5.013  0.3270 -0.1520 -0.1757
   31MOL   H189 8049   5.055   4.285   5.114  1.4013 -0.6088  0.4019
   31MOL   H190 8050   4.929   4.240   5.223 -0.3336  1.1167  2.5227
   31MOL   H191 8051   5.222   4.167   5.269  0.2321 -0.0983 -2.6892
   31MOL   H192 8052   5.268   3.934   5.176 -0.4253  0.4820  0.7592
   31MOL   H193 8053   5.244   4.054   5.058 -0.0138 -0.4862 -0.5295
   31MOL   H194 8054   5.070   3.936   4.947  2.3676  1.7872 -0.6931
   31MOL   H195 8055   5.217   3.837   4.954  0.3862  0.2293 -0.3814
   31MOL   H196 8056   5.086   3.808   5.076 -1.5063 -0.1785 -1.6689
   31MOL   C197 8057   5.073   4.100   5.419 -1.1170 -0.7583  0.2271
   31MOL   C198 8058   5.140   3.973   5.475  0.3678  0.1794  0.3793
   31MOL   O199 8059   5.070   3.863   5.417  0.3194  0.6054 -0.4881
   31MOL   C200 8060   5.133   3.742   5.406 -0.1987  0.9957  0.0250
   31MOL   C201 8061   5.042   3.630   5.468 -0.5893 -0.3639 -0.3983
   31MOL   H202 8062   4.965   4.088   5.420 -1.1267 -1.1814 -2.4923
   31MOL   H203 8063   5.103   4.186   5.480 -1.0118 -0.6918  0.0804
   31MOL   H204 8064   5.237   3.962   5.425 -0.3051 -1.4348 -0.6288
   31MOL   H205 8065   5.230   3.733   5.454  1.2662 -0.0360 -3.0264
   31MOL   H206 8066   5.151   3.722   5.301 -0.6427  3.7312 -0.6211
   31MOL   H207 8067   4.978   3.672   5.546  1.6745 -0.1854  1.3877
   31MOL   H208 8068   4.975   3.592   5.391 -3.3004  1.8239  0.7857
   31MOL   H209 8069   5.100   3.545   5.503 -0.4475 -0.1914 -0.2120
   31MOL   C210 8070   5.158   3.959   5.632 -0.6900 -0.2436  0.3022
   31MOL   C211 8071   5.247   4.056   5.701  0.1516 -0.0166 -0.3575
   31MOL   O212 8072   5.379   4.025   5.664 -0.0981  0.0339 -0.1452
   31MOL   C213 8073   5.462   4.132   5.637 -0.5487  0.2556  0.0642
   31MOL   C214 8074   5.612   4.087   5.638 -0.4018  0.3226 -0.1296
   31MOL   H215 8075   5.205   3.863   5.651 -0.9347 -0.2003  1.1629
   31MOL   H216 8076   5.060   3.959   5.681 -0.9833  2.1027 -0.2343
   31MOL   H217 8077   5.218   4.158   5.676 -3.2375  0.0434  3.4563
   31MOL   H218 8078   5.462   4.218   5.704 -0.3014  0.0648  0.3112
   31MOL   H219 8079   5.427   4.159   5.537 -1.0732 -1.0663 -0.1246
   31MOL   H220 8080   5.654   4.094   5.739 -0.8143 -0.9100  0.1383
   31MOL   H221 8081   5.629   3.988   5.597  0.6410  0.0752  0.8877
   31MOL   H222 8082   5.664   4.161   5.577 -0.0684  0.7421  0.6530
   31MOL   C223 8083   5.235   4.037   5.854  0.0092 -1.6024  0.7845
   31MOL   C224 8084   5.123   4.121   5.909  0.5151 -0.0397  0.3362
   31MOL   O225 8085   5.161   4.258   5.931  0.2236 -0.1338  0.1263
   31MOL   C226 8086   5.058   4.346   5.899  0.1064 -0.1116  0.0743
   31MOL   C227 8087   5.073   4.494   5.940  0.4739 -0.6435 -0.2818
   31MOL   H228 8088   5.332   4.053   5.901 -0.7729 -0.7276  2.1545
   31MOL   H229 8089   5.210   3.932   5.870 -0.2642 -1.3203  2.3204
   31MOL   H230 8090   5.046   4.123   5.832  1.3507 -0.2935 -0.5236
   31MOL   H231 8091   4.965   4.307   5.939  0.1499 -0.3255 -0.0313
   31MOL   H232 8092   5.033   4.341   5.793 -1.1926  1.3401  0.2970
   31MOL   H233 8093   4.989   4.545   5.893  1.8830  1.7078 -0.3046
   31MOL   H234 8094   5.066   4.511   6.048 -0.9970  1.3577 -0.6584
   31MOL   H235 8095   5.168   4.532   5.903 -0.3469 -0.6592 -2.4909
   31MOL   C236 8096   5.059   4.056   6.029  0.2759 -0.0159  0.0734
   31MOL   C237 8097   4.984   3.917   6.006 -0.1821  0.1645 -0.1157
   31MOL   O238 8098   4.918   3.902   5.883  0.1574  0.3633 -0.0582
   31MOL   C239 8099   4.797   3.971   5.855  0.0077  0.3348  0.4041
   31MOL   C240 8100   4.781   3.955   5.707  0.5069 -0.2379  0.2059
   31MOL   H241 8101   4.979   4.121   6.064  0.8909  1.4067 -1.0971
   31MOL   H242 8102   5.132   4.045   6.110 -0.6534 -1.7684  0.7002
   31MOL   H243 8103   5.063   3.842   6.010 -0.5802 -0.1915  1.8771
   31MOL   H244 8104   4.813   4.078   5.869  0.8395  0.2716 -0.0517
   31MOL   H245 8105   4.712   3.925   5.907  2.1975 -1.9452  2.0659
   31MOL   H246 8106   4.684   3.980   5.665  1.0137  0.1534 -0.7411
   31MOL   H247 8107   4.858   4.001   5.645 -0.7950  1.6423 -0.0332
   31MOL   H248 8108   4.788   3.853   5.670 -0.1261  0.3850 -1.6560
   31MOL   C249 8109   4.889   3.882   6.128 -0.1807 -0.9347  0.1407
   31MOL   C250 8110   4.949   3.830   6.257  0.2282 -0.2254  0.4342
   31MOL   O251 8111   4.993   3.696   6.246  1.0997  0.0514 -0.1372
   31MOL   C252 8112   4.926   3.606   6.331 -0.3588  0.4244  0.3363
   31MOL   C253 8113   4.950   3.456   6.304  0.4212 -0.1583 -0.5732
   31MOL   H254 8114   4.810   3.815   6.093 -0.8654 -1.2440  2.2196
   31MOL   H255 8115   4.851   3.977   6.166 -0.2334 -0.9316  0.0807
   31MOL   H256 8116   5.044   3.877   6.282  1.1050 -1.7488  0.0779
   31MOL   H257 8117   4.820   3.612   6.306 -0.6787 -0.2358  1.4840
   31MOL   H258 8118   4.950   3.626   6.436  0.3722 -0.8366  0.4161
   31MOL   H259 8119   5.045   3.424   6.346 -0.2403 -0.7113  0.5285
   31MOL   H260 8120   4.874   3.388   6.344  1.1019 -0.6879 -0.1745
   31MOL   H261 8121   4.941   3.440   6.196  0.5445  3.2099 -1.1404
   31MOL   H262 8122   4.881   3.829   6.342 -0.3313 -0.6956 -0.0142
   32MOL     C1 8123   1.653   0.813   7.238  1.0051 -0.1822 -0.0487
   32MOL     C2 8124   1.610   0.826   7.090  0.2170 -0.2321 -0.0140
   32MOL     O3 8125   1.648   0.967   7.071 -0.0897  0.4381 -0.6357
   32MOL     C4 8126   1.667   1.001   6.928  0.5256 -0.2367  0.2380
   32MOL     C5 8127   1.734   1.141   6.912  0.2789 -0.8143 -0.1453
   32MOL     H6 8128   1.590   0.870   7.307  0.5959  0.4370 -0.9189
   32MOL     H7 8129   1.657   0.708   7.267  1.8994  0.5285  2.5599
   32MOL     H8 8130   1.662   0.763   7.017 -2.4244 -3.5803  0.8736
   32MOL     H9 8131   1.581   0.978   6.866 -1.1404  1.1052  1.9921
   32MOL    H10 8132   1.746   0.935   6.892  3.3718  2.4161  1.3292
   32MOL    H11 8133   1.782   1.180   7.002 -2.2108 -0.1073  0.9043
   32MOL    H12 8134   1.808   1.140   6.832  1.2469  0.2564  0.7226
   32MOL    H13 8135   1.658   1.214   6.886 -0.1646 -0.4715  2.0153
   32MOL    H14 8136   1.751   0.856   7.258 -0.5855  4.2437 -1.0157
   32MOL    C15 8137   1.460   0.815   7.061 -0.1981 -0.0201 -0.5345
   32MOL    C16 8138   1.390   0.697   7.125 -0.1785 -0.3477  0.0659
   32MOL    O17 8139   1.450   0.575   7.066  0.7860 -0.7577  0.4196
   32MOL    C18 8140   1.461   0.464   7.149 -0.6518 -0.0735  0.4016
   32MOL    C19 8141   1.514   0.340   7.079  0.2975 -0.2967  0.3924
   32MOL    H20 8142   1.441   0.813   6.953 -0.9672 -0.2891 -0.3967
   32MOL    H21 8143   1.418   0.905   7.106  2.1189 -0.0297  1.7756
   32MOL    H22 8144   1.413   0.682   7.231 -2.9300  0.9952  0.9160
   32MOL    H23 8145   1.366   0.439   7.197 -1.2482 -0.1875 -0.8342
   32MOL    H24 8146   1.531   0.490   7.229  0.3382  2.2703 -1.1825
   32MOL    H25 8147   1.455   0.303   6.995  0.2014 -1.6044  1.0205
   32MOL    H26 8148   1.521   0.253   7.144  0.5935 -1.4485 -1.1389
   32MOL    H27 8149   1.616   0.355   7.045 -0.1709  2.0406 -0.0582
   32MOL    C28 8150   1.240   0.694   7.111  0.3253 -0.2272 -1.1107
   32MOL    C29 8151   1.158   0.790   7.201  0.0601  1.0601  0.8526
   32MOL    O30 8152   1.142   0.727   7.329  0.6885 -0.1446 -0.5058
   32MOL    C31 8153   1.139   0.819   7.438 -0.0161  0.4011 -0.0321
   32MOL    C32 8154   1.156   0.742   7.569 -0.5514  0.5167 -0.2438
   32MOL    H33 8155   1.201   0.593   7.118  2.9063 -1.1650  0.5290
   32MOL    H34 8156   1.224   0.718   7.006  1.3014  0.8611 -1.0200
   32MOL    H35 8157   1.204   0.889   7.201  1.1363  0.5832 -1.7740
   32MOL    H36 8158   1.056   0.889   7.439 -1.0268 -0.8061  0.8031
   32MOL    H37 8159   1.232   0.875   7.427  0.5646 -1.1933 -3.8621
   32MOL    H38 8160   1.171   0.803   7.658  1.2087 -0.0582 -0.1226
   32MOL    H39 8161   1.061   0.697   7.600  0.2595 -2.4095 -1.7915
   32MOL    H40 8162   1.232   0.664   7.559  0.8419  1.7875  0.3453
   32MOL    C41 8163   1.013   0.803   7.146 -0.0177  0.3079 -0.1989
   32MOL    C42 8164   0.954   0.948   7.129 -0.2377 -0.7082 -0.2473
   32MOL    O43 8165   0.811   0.944   7.130 -0.0848 -0.2855 -0.1633
   32MOL    C44 8166   0.750   0.962   7.254  0.0343 -0.3592  0.1381
   32MOL    C45 8167   0.595   0.963   7.229  0.0808  0.2718  0.6224
   32MOL    H46 8168   0.950   0.757   7.222 -0.9489  0.4680 -0.8609
   32MOL    H47 8169   0.994   0.733   7.064 -2.8989 -0.9674  1.4865
   32MOL    H48 8170   0.990   1.007   7.212  1.3606 -2.3360  0.2381
   32MOL    H49 8171   0.785   1.058   7.293 -0.0335  0.9101 -2.7371
   32MOL    H50 8172   0.776   0.878   7.317 -1.6217 -1.1545 -0.2233
   32MOL    H51 8173   0.550   0.879   7.176 -1.5933  0.1753  2.1628
   32MOL    H52 8174   0.541   0.975   7.323  1.5277 -1.9595  1.7720
   32MOL    H53 8175   0.578   1.053   7.170 -0.1524 -0.2036 -0.0495
   32MOL    C54 8176   0.993   1.004   6.989  0.0752  0.4488 -0.1914
   32MOL    C55 8177   0.931   1.132   6.942  0.2037  0.1457  0.3700
   32MOL    O56 8178   0.947   1.151   6.798  0.0448 -0.3337  0.1417
   32MOL    C57 8179   0.892   1.275   6.743  0.2733 -0.0299 -0.0809
   32MOL    C58 8180   0.885   1.246   6.595 -0.6256 -0.3039  0.0175
   32MOL    H59 8181   0.966   0.933   6.911 -1.3814  1.2250 -0.4129
   32MOL    H60 8182   1.101   1.014   6.983  0.2321 -1.5344 -0.9168
   32MOL    H61 8183   0.823   1.123   6.949  0.2214 -0.1886  0.1801
   32MOL    H62 8184   0.953   1.361   6.770  1.2114 -0.3194 -1.2578
   32MOL    H63 8185   0.798   1.307   6.787  0.7040 -0.6165  1.3094
   32MOL    H64 8186   0.838   1.331   6.546  1.5464  0.7745 -0.2519
   32MOL    H65 8187   0.991   1.251   6.568 -0.6092 -1.3769 -0.1660
   32MOL    H66 8188   0.866   1.142   6.565  1.5072 -0.2205 -1.7789
   32MOL    C67 8189   0.968   1.255   7.032 -0.3658 -0.1702  0.4205
   32MOL    C68 8190   1.121   1.303   7.023  0.4091  0.9784  0.8444
   32MOL    O69 8191   1.192   1.222   7.118 -0.0581 -0.3079  0.0531
   32MOL    C70 8192   1.331   1.193   7.092  0.9900 -0.3657  0.5778
   32MOL    C71 8193   1.410   1.166   7.221  0.1493 -0.1188  0.4030
   32MOL    H72 8194   0.927   1.231   7.130  0.2430 -1.0456  0.4700
   32MOL    H73 8195   0.904   1.339   7.005  0.3739  0.6194  1.1112
   32MOL    H74 8196   1.158   1.278   6.924  1.3721  2.5249  0.7996
   32MOL    H75 8197   1.374   1.275   7.035 -1.5868  0.1923 -0.6179
   32MOL    H76 8198   1.347   1.123   7.010 -2.4290  0.1546 -0.5992
   32MOL    H77 8199   1.416   1.255   7.284 -0.2777 -0.3036  0.7036
   32MOL    H78 8200   1.352   1.102   7.287 -1.1200  1.7085  1.0972
   32MOL    H79 8201   1.502   1.111   7.199 -1.2925 -2.2481 -0.4769
   32MOL    C80 8202   1.149   1.437   7.075 -0.3066  0.5396 -0.4299
   32MOL    C81 8203   1.118   1.568   6.986  0.7281  0.4793  0.4064
   32MOL    O82 8204   0.976   1.571   6.968  0.0825 -0.0896  0.0265
   32MOL    C83 8205   0.897   1.638   7.071  0.3223 -0.4248 -0.7692
   32MOL    C84 8206   0.753   1.601   7.041  0.0177  0.0353 -0.6839
   32MOL    H85 8207   1.247   1.437   7.122 -0.8865 -0.5920  0.8202
   32MOL    H86 8208   1.080   1.459   7.158 -0.6134  1.3619 -0.8940
   32MOL    H87 8209   1.142   1.654   7.048 -0.2334  1.1798 -0.1865
   32MOL    H88 8210   0.921   1.744   7.073 -0.6175 -0.1792 -1.9141
   32MOL    H89 8211   0.935   1.612   7.170  1.0022  1.8832 -0.3927
   32MOL    H90 8212   0.720   1.509   7.090 -2.4242  0.6170 -1.1962
   32MOL    H91 8213   0.687   1.680   7.077 -0.4499 -0.4795 -0.4046
   32MOL    H92 8214   0.741   1.590   6.934 -2.4010 -2.1820 -0.2331
   32MOL    C93 8215   1.185   1.563   6.845 -0.2515  0.2896  0.6866
   32MOL    C94 8216   1.322   1.634   6.842 -0.2316 -0.7906 -0.5903
   32MOL    O95 8217   1.353   1.679   6.711 -0.4191  0.1125 -0.1640
   32MOL    C96 8218   1.290   1.799   6.664  0.6074  0.1306 -0.1470
   32MOL    C97 8219   1.350   1.826   6.524 -1.3799 -0.4628  0.3623
   32MOL    H98 8220   1.125   1.629   6.782  1.7386  0.1020 -1.4818
   32MOL    H99 8221   1.173   1.467   6.794 -1.8796  0.9984 -0.3237
   32MOL   H100 8222   1.334   1.708   6.921  1.0473 -3.0050  1.3474
   32MOL   H101 8223   1.316   1.891   6.715 -0.6781  1.0726 -1.1615
   32MOL   H102 8224   1.182   1.785   6.660  0.4053  0.5950  2.8071
   32MOL   H103 8225   1.313   1.926   6.502  0.3445  0.5553  1.9052
   32MOL   H104 8226   1.458   1.840   6.522 -1.4810  0.4319  0.5961
   32MOL   H105 8227   1.330   1.753   6.446 -0.9490 -0.7567  0.5292
   32MOL   C106 8228   1.435   1.536   6.884 -0.7872  0.1233  0.3805
   32MOL   C107 8229   1.580   1.591   6.863  0.9261 -0.1101 -0.0465
   32MOL   O108 8230   1.661   1.500   6.795  0.2902  0.2913 -0.0705
   32MOL   C109 8231   1.662   1.506   6.652  0.8003 -0.5681 -0.1322
   32MOL   C110 8232   1.753   1.398   6.598 -0.9295  0.7207 -0.3894
   32MOL   H111 8233   1.417   1.448   6.822  0.1244  0.1918  0.0089
   32MOL   H112 8234   1.423   1.503   6.987  2.6552 -1.3287  0.3811
   32MOL   H113 8235   1.573   1.686   6.810 -4.6621 -0.0433  0.5943
   32MOL   H114 8236   1.680   1.606   6.613  1.1985  0.3311  2.3091
   32MOL   H115 8237   1.562   1.482   6.616  0.4728  1.4902 -0.6124
   32MOL   H116 8238   1.708   1.304   6.630 -0.8119  0.1788 -1.7734
   32MOL   H117 8239   1.764   1.412   6.491  0.7439 -0.0722 -0.3385
   32MOL   H118 8240   1.853   1.408   6.642 -0.6296 -0.4173 -0.8065
   32MOL   C119 8241   1.669   1.622   6.988 -0.7374 -0.3544  0.4125
   32MOL   C120 8242   1.606   1.723   7.084 -0.0852 -0.2718 -0.2460
   32MOL   O121 8243   1.583   1.845   7.014  0.0390 -0.1731  0.3108
   32MOL   C122 8244   1.478   1.926   7.067 -0.2462  0.1681 -0.0313
   32MOL   C123 8245   1.471   2.059   6.982 -0.0893 -0.5220 -0.3728
   32MOL   H124 8246   1.763   1.663   6.950 -2.6338  2.2989 -1.6438
   32MOL   H125 8247   1.680   1.526   7.038 -0.8134 -0.1520  0.8242
   32MOL   H126 8248   1.513   1.677   7.117  0.9236 -2.8745 -0.8869
   32MOL   H127 8249   1.490   1.960   7.170  0.6842  0.8748 -0.3692
   32MOL   H128 8250   1.378   1.892   7.040 -0.5159  0.9387 -0.0049
   32MOL   H129 8251   1.385   2.118   7.012  0.6506  1.4207 -1.9024
   32MOL   H130 8252   1.557   2.125   6.990 -1.2513  1.1515 -1.4019
   32MOL   H131 8253   1.456   2.048   6.874  0.1450  1.7187 -0.6440
   32MOL   C132 8254   1.700   1.748   7.203 -0.0120  0.4522 -0.5593
   32MOL   C133 8255   1.690   1.645   7.316  0.1605 -0.0069  0.1318
   32MOL   O134 8256   1.584   1.673   7.397  0.9332 -0.0084  0.1356
   32MOL   C135 8257   1.523   1.561   7.458  0.3432  0.1770 -0.3837
   32MOL   C136 8258   1.388   1.546   7.389  0.4779  0.9139 -0.1786
   32MOL   H137 8259   1.682   1.846   7.248 -1.6704 -0.5679  1.0643
   32MOL   H138 8260   1.804   1.744   7.172  0.8054 -0.7804  2.2294
   32MOL   H139 8261   1.675   1.544   7.279 -3.2218  0.1212  0.9872
   32MOL   H140 8262   1.509   1.584   7.564  0.3798  0.3172 -0.4096
   32MOL   H141 8263   1.586   1.472   7.456  1.1410  0.7570 -2.4547
   32MOL   H142 8264   1.320   1.468   7.423  0.9597  1.0919  1.2111
   32MOL   H143 8265   1.338   1.643   7.392  0.7142  1.0267  0.1518
   32MOL   H144 8266   1.410   1.516   7.287  0.3637 -0.8070  0.2849
   32MOL   C145 8267   1.819   1.633   7.401  0.1768 -0.3114  0.0269
   32MOL   C146 8268   1.927   1.542   7.340 -0.6701  0.1232  0.3565
   32MOL   O147 8269   1.887   1.414   7.373  0.8629 -0.1334  0.3464
   32MOL   C148 8270   1.853   1.330   7.257 -0.2853 -0.4002 -0.1055
   32MOL   C149 8271   1.779   1.201   7.297 -0.0669  0.6083  0.3717
   32MOL   H150 8272   1.787   1.597   7.499 -2.0538  2.5674  0.4305
   32MOL   H151 8273   1.861   1.730   7.426 -0.5517  0.1872 -0.6487
   32MOL   H152 8274   1.939   1.562   7.234  0.1607  0.7739  0.5624
   32MOL   H153 8275   1.949   1.304   7.212 -0.9472 -0.1884 -1.6627
   32MOL   H154 8276   1.801   1.389   7.182  2.2081  2.2918  0.1693
   32MOL   H155 8277   1.678   1.221   7.331 -0.0317  1.2408  0.1190
   32MOL   H156 8278   1.777   1.129   7.216  0.6605 -1.1526  1.8946
   32MOL   H157 8279   1.831   1.146   7.375 -0.2689 -0.4682 -0.2404
   32MOL   C158 8280   2.074   1.570   7.405 -0.3244 -0.3439  0.1544
   32MOL   C159 8281   2.186   1.488   7.344 -0.8530  0.2619  0.3906
   32MOL   O160 8282   2.253   1.409   7.444  0.1591  0.2211 -0.0923
   32MOL   C161 8283   2.200   1.286   7.487 -0.5738  0.6755 -0.0066
   32MOL   C162 8284   2.245   1.271   7.632 -0.4593 -0.1321 -0.1009
   32MOL   H163 8285   2.063   1.539   7.509  0.3162 -0.0599  0.3109
   32MOL   H164 8286   2.093   1.677   7.396 -1.2836 -0.3274 -2.2195
   32MOL   H165 8287   2.150   1.425   7.262  0.3959 -0.8623  0.6815
   32MOL   H166 8288   2.251   1.211   7.426 -0.0798  2.5323 -1.9432
   32MOL   H167 8289   2.091   1.280   7.485 -0.4259 -2.4115 -1.1922
   32MOL   H168 8290   2.353   1.255   7.639 -0.2106  1.5532  0.3071
   32MOL   H169 8291   2.223   1.359   7.692 -2.1083 -0.9367  0.4937
   32MOL   H170 8292   2.189   1.188   7.672 -2.4780  1.4404  0.3953
   32MOL   C171 8293   2.303   1.579   7.304  0.0389 -0.4372  0.1277
   32MOL   C172 8294   2.419   1.520   7.234 -0.4504 -0.3238 -0.3917
   32MOL   O173 8295   2.523   1.602   7.277 -0.3690 -0.0589 -0.0596
   32MOL   C174 8296   2.656   1.542   7.273  0.5318  0.1855 -0.0311
   32MOL   C175 8297   2.773   1.641   7.299  0.0480 -0.6646 -0.1717
   32MOL   H176 8298   2.337   1.621   7.399  0.5848 -1.2539  0.3026
   32MOL   H177 8299   2.270   1.669   7.253  3.0074  0.4503 -0.3123
   32MOL   H178 8300   2.437   1.419   7.271  0.8892 -0.2266 -0.7473
   32MOL   H179 8301   2.669   1.495   7.176  0.5488 -1.7759  0.8968
   32MOL   H180 8302   2.648   1.469   7.353 -0.0454  2.0763  1.6858
   32MOL   H181 8303   2.870   1.595   7.321  0.5338 -0.0614 -1.0085
   32MOL   H182 8304   2.768   1.710   7.215 -1.8832 -0.7285 -0.1304
   32MOL   H183 8305   2.759   1.717   7.376 -1.9029 -1.3404  0.1819
   32MOL   C184 8306   2.409   1.524   7.083 -0.4713 -0.3688 -0.6107
   32MOL   C185 8307   2.341   1.402   7.013  0.1099  0.4125 -0.0366
   32MOL   O186 8308   2.196   1.418   7.032 -0.3260 -0.1951 -0.0401
   32MOL   C187 8309   2.141   1.503   6.938  0.2193  0.1480 -0.2189
   32MOL   C188 8310   1.990   1.500   6.943  0.2306  0.0861 -0.0764
   32MOL   H189 8311   2.508   1.547   7.042 -1.1486  1.3037 -1.3544
   32MOL   H190 8312   2.357   1.616   7.056  2.2518  0.7363 -2.4203
   32MOL   H191 8313   2.363   1.403   6.906  1.6463 -0.9927  0.2415
   32MOL   H192 8314   2.165   1.465   6.839  0.0502 -0.2933 -0.0897
   32MOL   H193 8315   2.182   1.604   6.941  1.9568 -0.3944 -3.6062
   32MOL   H194 8316   1.965   1.558   6.853 -0.4708  0.6380  0.4676
   32MOL   H195 8317   1.939   1.404   6.933 -0.4598  0.2972  1.2507
   32MOL   H196 8318   1.954   1.550   7.033 -0.8107 -2.7943  1.1482
   32MOL   C197 8319   2.373   1.259   7.057  0.7189 -0.3322  0.7340
   32MOL   C198 8320   2.523   1.215   7.044 -0.0082  0.1156  0.0707
   32MOL   O199 8321   2.576   1.244   6.909 -0.1320  0.0101  0.4431
   32MOL   C200 8322   2.713   1.276   6.903  0.0444  0.1873  0.6707
   32MOL   C201 8323   2.743   1.324   6.756 -0.3949 -0.4483 -0.1672
   32MOL   H202 8324   2.322   1.185   6.995  1.6391 -0.1999 -0.2021
   32MOL   H203 8325   2.341   1.244   7.159  2.9901  0.4648  1.6032
   32MOL   H204 8326   2.580   1.250   7.129 -2.5821  0.1928  1.8057
   32MOL   H205 8327   2.759   1.182   6.933  2.2503  0.3523 -2.0133
   32MOL   H206 8328   2.743   1.358   6.968  0.6289  1.5000 -1.2101
   32MOL   H207 8329   2.712   1.427   6.740  1.3902  0.0026 -0.7946
   32MOL   H208 8330   2.845   1.319   6.718  0.0432  0.9700  0.8096
   32MOL   H209 8331   2.675   1.258   6.700  0.2498  0.6012 -2.2469
   32MOL   C210 8332   2.537   1.062   7.069  0.5233  0.0076  0.3069
   32MOL   C211 8333   2.515   1.017   7.210  0.4809  0.2730 -0.3122
   32MOL   O212 8334   2.638   1.046   7.274  0.2058  0.0634  0.9322
   32MOL   C213 8335   2.642   1.077   7.409 -0.4413 -0.0967 -0.3844
   32MOL   C214 8336   2.783   1.104   7.447 -0.5189  0.0339  0.3510
   32MOL   H215 8337   2.642   1.039   7.049  0.6414  0.6962  0.1200
   32MOL   H216 8338   2.469   1.013   6.999 -0.2342 -0.8496  1.6231
   32MOL   H217 8339   2.428   1.063   7.259  0.6952  0.8332 -0.4518
   32MOL   H218 8340   2.596   0.995   7.465  2.0380 -1.4105 -0.2421
   32MOL   H219 8341   2.592   1.174   7.416  1.1917  0.8152 -1.1017
   32MOL   H220 8342   2.821   1.194   7.399  1.4295 -1.7101 -1.4949
   32MOL   H221 8343   2.791   1.109   7.556 -0.0426  0.2852  0.3047
   32MOL   H222 8344   2.842   1.023   7.403 -0.2405  0.8671 -0.8088
   32MOL   C223 8345   2.491   0.864   7.231  0.6139  0.0390  0.4400
   32MOL   C224 8346   2.352   0.807   7.189  0.3896  1.3420  0.4837
   32MOL   O225 8347   2.252   0.906   7.209  0.0469 -0.1309  0.3482
   32MOL   C226 8348   2.159   0.910   7.099 -0.6376  0.0256 -0.5121
   32MOL   C227 8349   2.074   1.039   7.107 -0.7033  0.2115  0.0174
   32MOL   H228 8350   2.498   0.854   7.339 -2.7215  1.4533  0.8839
   32MOL   H229 8351   2.573   0.810   7.185 -1.1221 -0.2851 -2.3995
   32MOL   H230 8352   2.361   0.795   7.081  1.3461  2.9190  0.3717
   32MOL   H231 8353   2.102   0.818   7.095 -1.7935  0.7578 -0.9851
   32MOL   H232 8354   2.216   0.914   7.005 -1.3213 -0.5105 -0.9504
   32MOL   H233 8355   2.126   1.133   7.089 -0.1866  0.1048  0.9509
   32MOL   H234 8356   1.997   1.035   7.030  0.1186  3.1808 -1.0389
   32MOL   H235 8357   2.026   1.052   7.204 -0.8682  1.2682 -0.1987
   32MOL   C236 8358   2.306   0.671   7.248  0.4224 -0.4812  0.0648
   32MOL   C237 8359   2.407   0.549   7.233  0.0794 -0.3561 -0.6153
   32MOL   O238 8360   2.423   0.531   7.096  0.0213  0.2595  0.0870
   32MOL   C239 8361   2.556   0.506   7.057 -0.8930  0.2684  0.0149
   32MOL   C240 8362   2.560   0.452   6.910  0.2286  0.1983 -0.2542
   32MOL   H241 8363   2.218   0.652   7.186  0.0443  0.1394  0.4045
   32MOL   H242 8364   2.279   0.680   7.353  2.7417 -3.0169  0.9158
   32MOL   H243 8365   2.497   0.585   7.284 -0.5556  1.7204 -0.8902
   32MOL   H244 8366   2.606   0.438   7.127 -1.9857 -2.4009 -1.7356
   32MOL   H245 8367   2.608   0.602   7.062 -0.5637  0.0642  0.7286
   32MOL   H246 8368   2.505   0.358   6.902 -1.4256  0.7836  3.5139
   32MOL   H247 8369   2.504   0.516   6.842 -1.7959 -0.4710  0.7670
   32MOL   H248 8370   2.662   0.434   6.875  0.0948 -0.7486 -0.1727
   32MOL   C249 8371   2.352   0.428   7.301 -0.8539  0.1093  0.1496
   32MOL   C250 8372   2.467   0.325   7.326  0.1143  0.0955  0.4244
   32MOL   O251 8373   2.406   0.219   7.393 -0.0078 -0.5526 -0.2314
   32MOL   C252 8374   2.495   0.111   7.396 -0.1029  0.0725  0.1411
   32MOL   C253 8375   2.434   0.005   7.496  0.1792 -0.1518 -0.2122
   32MOL   H254 8376   2.275   0.388   7.235 -1.2023 -0.5519  0.9397
   32MOL   H255 8377   2.307   0.459   7.396  0.2288  1.4147  0.2481
   32MOL   H256 8378   2.514   0.287   7.235 -0.8003 -0.7473  0.2990
   32MOL   H257 8379   2.586   0.148   7.445 -0.6791  1.5981  0.0849
   32MOL   H258 8380   2.524   0.072   7.299 -5.3564  0.6798 -1.7886
   32MOL   H259 8381   2.412   0.060   7.587 -1.0999 -1.6693  0.4159
   32MOL   H260 8382   2.344   7.803   7.455 -0.6487  0.8467  0.4814
   32MOL   H261 8383   2.499   7.765   7.524  1.3049  0.2351 -1.5865
   32MOL   H262 8384   2.547   0.370   7.384  2.5575  0.0301 -2.7581
   33MOL     C1 8385   2.447   2.409   5.265 -0.2601 -0.8027  0.4410
   33MOL     C2 8386   2.564   2.398   5.372 -1.1387  0.5380 -0.3483
   33MOL     O3 8387   2.685   2.365   5.306  0.4848 -0.1091 -0.0233
   33MOL     C4 8388   2.796   2.454   5.324  0.2905 -0.3048 -0.4333
   33MOL     C5 8389   2.914   2.437   5.220 -0.0960 -0.1748 -0.3577
   33MOL     H6 8390   2.348   2.426   5.308 -0.1619  3.1983 -0.6935
   33MOL     H7 8391   2.461   2.499   5.206  2.2985  0.7856  3.3247
   33MOL     H8 8392   2.583   2.490   5.427 -2.2069 -0.3597  1.5805
   33MOL     H9 8393   2.833   2.443   5.426  0.2731 -3.6901 -0.7402
   33MOL    H10 8394   2.753   2.554   5.318  2.3341  0.5926 -0.4919
   33MOL    H11 8395   2.973   2.528   5.228  1.5635 -1.0978 -1.6322
   33MOL    H12 8396   2.987   2.358   5.237 -0.7748 -0.9310 -0.9108
   33MOL    H13 8397   2.882   2.422   5.117 -1.4095  0.8440 -0.1138
   33MOL    H14 8398   2.445   2.323   5.198 -0.1563  0.7863 -1.6601
   33MOL    C15 8399   2.521   2.300   5.476  0.0708 -0.3759 -0.4740
   33MOL    C16 8400   2.608   2.290   5.609 -0.3574 -0.6500  0.4891
   33MOL    O17 8401   2.562   2.178   5.693 -0.0098  0.0668  0.0868
   33MOL    C18 8402   2.610   2.046   5.668 -0.0188  0.0975 -0.5486
   33MOL    C19 8403   2.502   1.967   5.742 -0.1513 -0.1849 -0.4126
   33MOL    H20 8404   2.506   2.203   5.428  0.7309 -0.3626 -0.7041
   33MOL    H21 8405   2.419   2.321   5.509 -0.0539 -2.7372  0.7538
   33MOL    H22 8406   2.713   2.270   5.588 -0.4122 -0.1689 -0.3063
   33MOL    H23 8407   2.711   2.016   5.697 -0.3808 -0.7896 -0.1795
   33MOL    H24 8408   2.606   2.019   5.562  0.8319  0.8643 -0.7784
   33MOL    H25 8409   2.407   2.011   5.711 -0.2908  1.1366  1.7747
   33MOL    H26 8410   2.514   1.982   5.850  0.7688 -0.8896 -0.4152
   33MOL    H27 8411   2.507   1.861   5.720  0.0438  0.0790 -1.6806
   33MOL    C28 8412   2.599   2.406   5.711  0.3615 -0.1607 -0.4047
   33MOL    C29 8413   2.707   2.413   5.821 -0.3972  0.3966  0.4245
   33MOL    O30 8414   2.643   2.501   5.920  0.4065 -0.1925 -0.0440
   33MOL    C31 8415   2.576   2.432   6.025  0.0400 -1.3544  0.3522
   33MOL    C32 8416   2.500   2.540   6.104 -0.2502  0.8627 -0.4828
   33MOL    H33 8417   2.498   2.398   5.751  0.2076 -1.5456 -1.0509
   33MOL    H34 8418   2.599   2.501   5.657  1.1566 -0.0166 -0.1488
   33MOL    H35 8419   2.716   2.308   5.851 -0.6828 -0.4993 -2.5407
   33MOL    H36 8420   2.641   2.381   6.097  2.1107 -0.4593 -0.8515
   33MOL    H37 8421   2.517   2.356   5.974  4.2220 -3.1823 -2.1134
   33MOL    H38 8422   2.478   2.616   6.029  1.2046  1.2276 -0.5517
   33MOL    H39 8423   2.418   2.504   6.167  0.0354 -1.6327 -1.4866
   33MOL    H40 8424   2.572   2.577   6.177  0.3130 -1.9592  0.4587
   33MOL    C41 8425   2.847   2.475   5.778  0.4991  0.5465  0.0871
   33MOL    C42 8426   2.949   2.480   5.898 -0.0895  0.2477  0.2305
   33MOL    O43 8427   3.051   2.573   5.885  0.4497  0.3325  0.5177
   33MOL    C44 8428   3.024   2.700   5.953 -0.2069  0.4766  0.0062
   33MOL    C45 8429   3.150   2.773   5.942  0.3876  0.4280 -0.3114
   33MOL    H46 8430   2.844   2.570   5.726  0.6099  1.2220  1.2895
   33MOL    H47 8431   2.889   2.402   5.709  0.8010 -0.7075  1.5440
   33MOL    H48 8432   2.892   2.507   5.987 -3.2447 -1.5450 -1.1521
   33MOL    H49 8433   2.996   2.684   6.057 -0.8671 -1.7761 -0.4795
   33MOL    H50 8434   2.945   2.751   5.898  0.2103  1.9609  0.7635
   33MOL    H51 8435   3.179   2.772   5.837  1.1651  0.4740 -0.1030
   33MOL    H52 8436   3.137   2.876   5.972  2.0652  0.0423  1.9078
   33MOL    H53 8437   3.231   2.732   6.003 -0.4362 -0.2681  0.3321
   33MOL    C54 8438   3.029   2.339   5.926  0.0492 -0.4644 -0.0582
   33MOL    C55 8439   3.129   2.293   5.818  0.4481  0.2140  0.2777
   33MOL    O56 8440   3.057   2.248   5.703 -0.0475  0.6327 -0.3410
   33MOL    C57 8441   3.125   2.266   5.579 -0.5043 -0.7945 -0.6570
   33MOL    C58 8442   3.077   2.157   5.484  0.7324  0.6789  0.4379
   33MOL    H59 8443   2.959   2.258   5.949  0.3622 -0.7939 -0.2556
   33MOL    H60 8444   3.083   2.346   6.021  0.8939 -0.9484 -0.4932
   33MOL    H61 8445   3.195   2.376   5.794  1.7282 -0.9894 -0.4693
   33MOL    H62 8446   3.233   2.276   5.576 -0.5947  0.1201 -1.0129
   33MOL    H63 8447   3.092   2.364   5.544 -2.8191 -1.5925 -0.8143
   33MOL    H64 8448   2.972   2.154   5.457  0.8566  1.5502 -0.1496
   33MOL    H65 8449   3.142   2.152   5.397 -0.1077 -0.2345 -0.1450
   33MOL    H66 8450   3.082   2.059   5.531 -0.0290  0.1317 -0.6109
   33MOL    C67 8451   3.221   2.183   5.867 -0.7202  0.2818 -0.2522
   33MOL    C68 8452   3.325   2.197   5.975 -1.1103 -0.5019 -0.5900
   33MOL    O69 8453   3.409   2.303   5.934 -0.0022 -0.2883 -0.3641
   33MOL    C70 8454   3.399   2.432   5.991  0.2079 -0.1413  0.2053
   33MOL    C71 8455   3.514   2.521   5.945  0.4267 -0.5615 -0.0453
   33MOL    H72 8456   3.281   2.145   5.785 -0.4909  1.6346 -0.7097
   33MOL    H73 8457   3.169   2.090   5.889 -0.1905 -1.1451 -4.5416
   33MOL    H74 8458   3.282   2.220   6.072 -2.5988 -0.4748 -1.2416
   33MOL    H75 8459   3.408   2.418   6.099  0.5808 -1.7480 -0.0171
   33MOL    H76 8460   3.308   2.489   5.974  1.1114  1.5735  0.9203
   33MOL    H77 8461   3.616   2.486   5.955  0.9498  0.2236 -2.3274
   33MOL    H78 8462   3.500   2.545   5.839 -0.8321  0.2464  0.2816
   33MOL    H79 8463   3.511   2.611   6.006  0.5189  1.0675 -2.3716
   33MOL    C80 8464   3.423   2.074   6.001 -0.3787  0.3558 -0.3693
   33MOL    C81 8465   3.374   1.942   6.053 -0.3339 -0.5234 -0.5030
   33MOL    O82 8466   3.288   1.884   5.955 -0.5496 -0.1691  0.1398
   33MOL    C83 8467   3.343   1.789   5.863 -0.3638  0.1343  0.2981
   33MOL    C84 8468   3.235   1.766   5.757 -0.3711 -0.6498 -0.1535
   33MOL    H85 8469   3.505   2.102   6.067  1.0376 -1.1393 -1.4213
   33MOL    H86 8470   3.478   2.056   5.908  0.0637  0.9875 -0.2306
   33MOL    H87 8471   3.449   1.864   6.066 -1.5108 -1.4959  0.5943
   33MOL    H88 8472   3.387   1.710   5.924 -0.5495 -0.8375 -0.7903
   33MOL    H89 8473   3.429   1.822   5.805 -1.7832 -0.2499 -2.0842
   33MOL    H90 8474   3.263   1.687   5.688  0.3589  0.7646 -1.4855
   33MOL    H91 8475   3.139   1.745   5.803  0.1036 -3.7620 -0.4492
   33MOL    H92 8476   3.219   1.853   5.694 -0.3977 -1.1018 -0.7722
   33MOL    C93 8477   3.299   1.951   6.186  0.6128  0.1176  0.5133
   33MOL    C94 8478   3.377   2.022   6.302  0.5221  0.4304  0.0875
   33MOL    O95 8479   3.492   1.945   6.340 -0.4989  0.3699 -0.2861
   33MOL    C96 8480   3.597   2.014   6.407 -0.4661 -0.5964 -0.0756
   33MOL    C97 8481   3.699   1.907   6.452  0.2594 -0.7679 -0.3323
   33MOL    H98 8482   3.270   1.851   6.218 -0.7700 -0.2777 -1.8394
   33MOL    H99 8483   3.210   2.010   6.165  0.8259  0.4070  0.4185
   33MOL   H100 8484   3.423   2.115   6.267  0.0259 -0.2521 -2.5000
   33MOL   H101 8485   3.563   2.076   6.490  0.8048 -1.0303  0.7830
   33MOL   H102 8486   3.640   2.086   6.336  1.4362 -2.5256 -0.9207
   33MOL   H103 8487   3.654   1.830   6.514  0.0204 -0.6066 -0.3053
   33MOL   H104 8488   3.746   1.844   6.377  0.5303 -0.2461 -0.6027
   33MOL   H105 8489   3.785   1.957   6.498 -0.4252 -0.2168  0.3736
   33MOL   C106 8490   3.289   2.046   6.430  0.4397  0.0785  0.1274
   33MOL   C107 8491   3.190   2.165   6.419 -0.0441 -0.1230 -0.0350
   33MOL   O108 8492   3.272   2.280   6.421 -0.0326  0.7047 -0.2275
   33MOL   C109 8493   3.227   2.404   6.363  0.3168  0.5112 -0.2875
   33MOL   C110 8494   3.307   2.520   6.429  0.0885 -0.0547 -0.1425
   33MOL   H111 8495   3.348   2.069   6.519  1.3967  0.1480 -0.5170
   33MOL   H112 8496   3.232   1.954   6.448 -1.0399  1.1557  1.1270
   33MOL   H113 8497   3.135   2.168   6.325  0.4041  1.1838 -0.2560
   33MOL   H114 8498   3.119   2.409   6.378  0.5129 -1.2530  1.9184
   33MOL   H115 8499   3.246   2.401   6.256 -1.2358 -0.9025 -0.5325
   33MOL   H116 8500   3.414   2.503   6.419  0.0488 -1.0719  1.0509
   33MOL   H117 8501   3.283   2.621   6.395  1.1528  0.3710  0.3634
   33MOL   H118 8502   3.300   2.517   6.537  2.1509  0.9792  0.0340
   33MOL   C119 8503   3.103   2.172   6.539  0.4082  0.8216 -0.0335
   33MOL   C120 8504   2.994   2.060   6.534  0.2192 -0.4921 -0.5072
   33MOL   O121 8505   2.891   2.078   6.437  0.1483  0.1014 -0.1382
   33MOL   C122 8506   2.861   1.959   6.356  0.0501 -0.4397 -0.8484
   33MOL   C123 8507   2.747   1.998   6.264 -0.2405 -0.4629  0.0914
   33MOL   H124 8508   3.045   2.264   6.543 -1.8641 -0.5734  0.0134
   33MOL   H125 8509   3.160   2.168   6.632 -0.7164  0.5147  0.6501
   33MOL   H126 8510   3.047   1.966   6.518 -1.5558 -1.9635  1.9863
   33MOL   H127 8511   2.829   1.874   6.416 -0.7481 -0.1286 -0.8226
   33MOL   H128 8512   2.951   1.945   6.296 -0.5140  0.5935 -1.9619
   33MOL   H129 8513   2.660   2.046   6.308  0.8735  2.0036 -0.2460
   33MOL   H130 8514   2.788   2.063   6.186  2.5938  0.4923  2.2994
   33MOL   H131 8515   2.714   1.904   6.220  0.2628 -0.4233 -0.3896
   33MOL   C132 8516   2.918   2.050   6.673 -0.2737  0.7821  0.0388
   33MOL   C133 8517   3.012   1.991   6.780 -0.7243 -0.2479 -0.2135
   33MOL   O134 8518   2.960   1.866   6.838 -0.0071  0.5118 -0.0941
   33MOL   C135 8519   2.922   1.766   6.738 -0.4089 -0.0359  0.0969
   33MOL   C136 8520   2.949   1.624   6.806  0.1998 -0.1520 -0.6075
   33MOL   H137 8521   2.823   1.997   6.661  1.4057 -1.9598 -1.7236
   33MOL   H138 8522   2.893   2.153   6.695  0.8642  1.2015 -0.6080
   33MOL   H139 8523   3.099   1.944   6.735 -0.3566 -1.2057  1.4319
   33MOL   H140 8524   2.987   1.774   6.651 -0.7160 -2.1119 -0.3291
   33MOL   H141 8525   2.818   1.778   6.707  0.2945  0.4250 -2.1506
   33MOL   H142 8526   3.038   1.624   6.868  0.0276  0.1632 -0.3553
   33MOL   H143 8527   2.868   1.595   6.873 -1.2295  0.5515 -1.9994
   33MOL   H144 8528   2.956   1.541   6.736  0.7420 -1.3851  0.9054
   33MOL   C145 8529   3.043   2.084   6.900 -0.7073  0.1724 -0.2958
   33MOL   C146 8530   3.165   2.056   6.988 -0.4485 -0.1173  0.0563
   33MOL   O147 8531   3.278   2.082   6.902 -0.1966 -0.3239 -0.7367
   33MOL   C148 8532   3.395   2.125   6.977  0.6256  0.0236 -0.6257
   33MOL   C149 8533   3.493   2.170   6.876 -0.4433 -0.2479  0.0805
   33MOL   H150 8534   2.954   2.093   6.961 -1.0353 -0.1796 -0.7223
   33MOL   H151 8535   3.059   2.185   6.862 -0.3902  0.3441  0.2811
   33MOL   H152 8536   3.167   2.139   7.059  2.1611  1.2767 -1.5528
   33MOL   H153 8537   3.432   2.040   7.035  1.5395  0.3045 -0.8024
   33MOL   H154 8538   3.371   2.203   7.049  1.5324 -0.0053 -0.2867
   33MOL   H155 8539   3.547   2.089   6.827 -0.9657 -0.7207  0.2854
   33MOL   H156 8540   3.438   2.242   6.815 -0.8292  0.8282  1.6697
   33MOL   H157 8541   3.571   2.222   6.931 -2.6113  2.0850  1.0361
   33MOL   C158 8542   3.177   1.915   7.057  0.4025  0.1304 -0.4146
   33MOL   C159 8543   3.066   1.901   7.159  0.3192 -0.0110  0.2199
   33MOL   O160 8544   3.098   2.001   7.254 -0.1660 -0.3671 -0.5030
   33MOL   C161 8545   2.998   2.051   7.339 -0.1195  0.6014  0.2344
   33MOL   C162 8546   3.046   2.189   7.393  0.4944  0.5186 -0.0005
   33MOL   H163 8547   3.278   1.899   7.094  0.9272  0.8263 -1.5212
   33MOL   H164 8548   3.155   1.841   6.979  0.1768 -0.5152  0.2561
   33MOL   H165 8549   2.971   1.913   7.107  1.7249  2.2675 -1.9404
   33MOL   H166 8550   2.969   1.978   7.415 -0.2132 -0.0938 -0.4605
   33MOL   H167 8551   2.907   2.071   7.281 -1.3699 -1.3307  1.4736
   33MOL   H168 8552   3.062   2.258   7.310 -0.1239 -0.6301 -1.0853
   33MOL   H169 8553   2.974   2.241   7.457 -1.1112 -1.2446 -0.3439
   33MOL   H170 8554   3.137   2.183   7.453  0.3419  1.0827  0.2960
   33MOL   C171 8555   3.050   1.768   7.222 -0.2437  0.6594 -0.0487
   33MOL   C172 8556   3.181   1.687   7.276 -0.0756 -0.2161 -0.7698
   33MOL   O173 8557   3.122   1.565   7.323  0.0941 -0.0783 -0.3361
   33MOL   C174 8558   3.118   1.461   7.232 -0.2032  0.7432 -0.9793
   33MOL   C175 8559   3.037   1.341   7.282  0.5645  0.7375 -0.2920
   33MOL   H176 8560   3.018   1.706   7.138  2.4031 -0.9110  0.0342
   33MOL   H177 8561   2.974   1.772   7.299 -0.1031  0.8334  0.0833
   33MOL   H178 8562   3.261   1.666   7.206  1.3137  1.9780  0.1018
   33MOL   H179 8563   3.224   1.443   7.220 -0.0587  1.9695 -1.5477
   33MOL   H180 8564   3.074   1.496   7.138 -2.4889 -1.4700 -0.8017
   33MOL   H181 8565   3.095   1.284   7.354  1.0831  0.8618 -0.6108
   33MOL   H182 8566   2.941   1.357   7.332 -0.7372 -2.5448 -1.6282
   33MOL   H183 8567   3.015   1.272   7.201  0.6779 -1.8256  1.7839
   33MOL   C184 8568   3.243   1.761   7.405  0.3855 -0.0807 -0.3096
   33MOL   C185 8569   3.372   1.708   7.466 -0.0274 -0.1456 -0.6205
   33MOL   O186 8570   3.416   1.804   7.559 -0.0019  0.2220  0.0960
   33MOL   C187 8571   3.354   1.799   7.687  0.4462  0.4057 -0.1173
   33MOL   C188 8572   3.432   1.879   7.796 -0.0649 -0.0826  0.5170
   33MOL   H189 8573   3.167   1.792   7.477  0.3020 -0.3009 -0.3026
   33MOL   H190 8574   3.273   1.854   7.357  1.9071 -0.9923 -1.1703
   33MOL   H191 8575   3.347   1.608   7.499 -0.6023  0.9567  2.4747
   33MOL   H192 8576   3.353   1.698   7.729 -0.8784  1.4260  2.4061
   33MOL   H193 8577   3.252   1.836   7.680 -0.0568 -0.6751  1.2644
   33MOL   H194 8578   3.519   1.832   7.841  0.0417  0.0289  0.4286
   33MOL   H195 8579   3.471   1.969   7.750 -1.1886  1.8125  3.1437
   33MOL   H196 8580   3.366   1.906   0.034  1.5822 -0.0348  1.8535
   33MOL   C197 8581   3.488   1.680   7.367 -0.1573 -0.4791  0.5255
   33MOL   C198 8582   3.622   1.645   7.443 -0.4039 -0.0725 -0.2087
   33MOL   O199 8583   3.725   1.637   7.343 -0.1520  0.1941 -0.1638
   33MOL   C200 8584   3.862   1.649   7.384 -0.5972  0.1662 -0.0768
   33MOL   C201 8585   3.966   1.634   7.268  0.3064  0.5296 -0.9217
   33MOL   H202 8586   3.501   1.776   7.316 -1.0627 -0.4497  0.3508
   33MOL   H203 8587   3.459   1.612   7.288  1.2617  0.3997 -0.7821
   33MOL   H204 8588   3.634   1.735   7.504 -2.1565  0.7593 -1.0746
   33MOL   H205 8589   3.877   1.572   7.460  2.4620  0.9438  0.2059
   33MOL   H206 8590   3.884   1.747   7.428 -1.2948  0.4519 -0.3737
   33MOL   H207 8591   3.967   1.532   7.230  0.4151  1.2998 -2.9947
   33MOL   H208 8592   3.937   1.695   7.183  0.5147  0.0747 -1.3194
   33MOL   H209 8593   4.067   1.658   7.300  0.9321 -0.8815 -1.7894
   33MOL   C210 8594   3.608   1.525   7.545  0.0499  0.3673  0.2906
   33MOL   C211 8595   3.550   1.395   7.501  0.1335 -0.3587  0.1300
   33MOL   O212 8596   3.517   1.320   7.622  0.3441 -0.2474  0.4315
   33MOL   C213 8597   3.373   1.323   7.650 -0.1752  0.5512 -0.0493
   33MOL   C214 8598   3.337   1.261   7.788 -0.0071  0.0439 -0.5558
   33MOL   H215 8599   3.545   1.570   7.621  0.4308  0.9165  0.2891
   33MOL   H216 8600   3.702   1.496   7.593 -0.5556 -0.7489  0.8397
   33MOL   H217 8601   3.456   1.406   7.447 -0.4438  0.8557  1.3623
   33MOL   H218 8602   3.318   1.282   7.566  1.9825 -1.2172 -0.6477
   33MOL   H219 8603   3.359   1.431   7.649 -0.0458  0.5845  0.9574
   33MOL   H220 8604   3.383   1.304   0.033 -1.0956 -0.5303  0.3123
   33MOL   H221 8605   3.230   1.278   7.801 -0.2221 -1.8523  0.3691
   33MOL   H222 8606   3.356   1.153   7.792 -0.5271 -0.1776 -3.0415
   33MOL   C223 8607   3.643   1.323   7.404  0.1576  0.1317 -0.1504
   33MOL   C224 8608   3.580   1.233   7.299  0.1130  0.1412  0.2998
   33MOL   O225 8609   3.679   1.149   7.247  0.5517  0.2177 -0.3943
   33MOL   C226 8610   3.732   1.036   7.319 -0.1684  0.6491 -0.0558
   33MOL   C227 8611   3.824   0.955   7.238  0.3217  1.1919 -0.0448
   33MOL   H228 8612   3.720   1.272   7.461  0.0569  1.2654  1.0319
   33MOL   H229 8613   3.711   1.396   7.360 -0.5769  1.9862  1.7100
   33MOL   H230 8614   3.497   1.171   7.334  1.1021 -1.2142  0.2629
   33MOL   H231 8615   3.650   0.967   7.342 -0.6140  0.7342 -1.3455
   33MOL   H232 8616   3.770   1.065   7.417 -2.2782 -1.0286  1.3312
   33MOL   H233 8617   3.926   0.993   7.239  0.0633  1.9275 -0.8191
   33MOL   H234 8618   3.838   0.859   7.287 -0.8738  1.2989  0.5169
   33MOL   H235 8619   3.800   0.948   7.132 -2.2588 -1.3331  0.6504
   33MOL   C236 8620   3.515   1.310   7.176  0.6320 -0.5069  0.0334
   33MOL   C237 8621   3.427   1.238   7.072  0.1920 -0.3963 -0.0056
   33MOL   O238 8622   3.368   1.350   7.006  0.3464 -0.0977  0.1289
   33MOL   C239 8623   3.447   1.393   6.899  0.0748 -0.1842 -0.3035
   33MOL   C240 8624   3.380   1.515   6.835  0.1174  0.6593  0.1482
   33MOL   H241 8625   3.585   1.381   7.130  0.2783 -0.9262 -1.1613
   33MOL   H242 8626   3.450   1.383   7.225  2.8621  1.1495  0.6063
   33MOL   H243 8627   3.495   1.178   7.010  0.5134 -2.2392  2.0660
   33MOL   H244 8628   3.473   1.317   6.825  1.9413 -0.9993  1.1343
   33MOL   H245 8629   3.542   1.433   6.935 -0.2602  1.5904 -1.3597
   33MOL   H246 8630   3.373   1.598   6.905 -1.1575 -1.2620  2.3726
   33MOL   H247 8631   3.441   1.547   6.751 -0.3276  1.5654  0.1682
   33MOL   H248 8632   3.282   1.481   6.799 -0.6500  1.7746  1.1385
   33MOL   C249 8633   3.314   1.139   7.124  0.2595  0.0948 -0.4071
   33MOL   C250 8634   3.256   1.053   7.017  0.4325  0.5885 -0.2189
   33MOL   O251 8635   3.121   1.028   7.050 -0.3881  0.1941  0.5673
   33MOL   C252 8636   3.058   0.950   6.960  0.2862  0.2526 -0.6682
   33MOL   C253 8637   2.929   0.899   7.032  0.1394 -0.2435 -0.5127
   33MOL   H254 8638   3.232   1.198   7.163  1.2527  0.5672  1.0104
   33MOL   H255 8639   3.350   1.078   7.207  0.3359  0.4990 -0.1442
   33MOL   H256 8640   3.252   1.099   6.918 -0.9374  1.4561  0.2168
   33MOL   H257 8641   3.108   0.861   6.921 -0.8255 -0.2320 -1.0268
   33MOL   H258 8642   3.035   1.005   6.869  2.0161 -0.5630 -1.6169
   33MOL   H259 8643   2.845   0.875   6.967 -0.7957  0.2395  0.5086
   33MOL   H260 8644   2.955   0.825   7.107 -0.3131  1.3901  1.2975
   33MOL   H261 8645   2.892   0.987   7.085 -1.7610  1.0459 -3.8060
   33MOL   H262 8646   3.304   0.958   6.996  1.4880  0.9803  0.3964
   34MOL     C1 8647   4.326   4.367   2.824 -0.1564  0.4230 -0.8940
   34MOL     C2 8648   4.212   4.359   2.929  0.3134  0.2457 -0.4370
   34MOL     O3 8649   4.261   4.287   3.041 -0.5278  0.0461  0.6578
   34MOL     C4 8650   4.348   4.369   3.121  0.4404 -0.0424 -0.2915
   34MOL     C5 8651   4.343   4.328   3.272 -0.4530  0.3415 -0.0135
   34MOL     H6 8652   4.384   4.457   2.845 -1.1255  0.5455  1.3817
   34MOL     H7 8653   4.388   4.278   2.816  0.3927  0.6755  0.4248
   34MOL     H8 8654   4.169   4.453   2.961  2.2697  0.0478  3.0697
   34MOL     H9 8655   4.322   4.475   3.117 -3.0391 -0.9103 -2.2398
   34MOL    H10 8656   4.448   4.347   3.084  0.3056 -0.7235 -0.2558
   34MOL    H11 8657   4.362   4.224   3.300  0.1882  0.1584 -1.1465
   34MOL    H12 8658   4.423   4.382   3.322  0.5785 -1.3406  0.2071
   34MOL    H13 8659   4.250   4.359   3.320  0.1703  0.2730  1.2855
   34MOL    H14 8660   4.282   4.386   2.726 -0.8315 -1.0451 -0.8878
   34MOL    C15 8661   4.096   4.271   2.870 -0.2201  0.0035 -1.3168
   34MOL    C16 8662   4.017   4.305   2.745  0.1504  0.0737  0.0629
   34MOL    O17 8663   3.904   4.379   2.770  0.4691  0.2140  0.0656
   34MOL    C18 8664   3.912   4.523   2.780  0.2480 -0.4371 -0.0049
   34MOL    C19 8665   3.774   4.591   2.764 -0.6309 -0.8064  0.5455
   34MOL    H20 8666   4.026   4.262   2.953 -0.3592  1.5706 -1.2453
   34MOL    H21 8667   4.145   4.174   2.867 -1.2220 -0.5319 -0.5897
   34MOL    H22 8668   4.075   4.358   2.670  1.5469  0.7064  1.5881
   34MOL    H23 8669   3.985   4.557   2.707  0.2634 -1.0528 -0.2810
   34MOL    H24 8670   3.954   4.547   2.878  0.9359 -1.5052 -0.0229
   34MOL    H25 8671   3.736   4.580   2.662  1.2837  0.4508 -0.3328
   34MOL    H26 8672   3.797   4.696   2.782  1.0158 -1.0516 -0.0291
   34MOL    H27 8673   3.711   4.556   2.845  1.0745 -1.7176  1.5029
   34MOL    C28 8674   3.951   4.195   2.665  0.3071  0.4121 -0.0953
   34MOL    C29 8675   4.055   4.085   2.618 -0.3110  0.0498 -0.1834
   34MOL    O30 8676   4.169   4.140   2.544 -0.0992  0.0100 -0.0376
   34MOL    C31 8677   4.288   4.070   2.564 -0.0809 -0.1630 -0.5707
   34MOL    C32 8678   4.403   4.155   2.499 -0.0456 -0.2753  0.0605
   34MOL    H33 8679   3.911   4.229   2.570 -1.2641  2.1211  1.1497
   34MOL    H34 8680   3.874   4.155   2.731 -0.1265 -0.3206 -1.0470
   34MOL    H35 8681   4.093   4.034   2.707 -0.2802 -1.2195 -0.9183
   34MOL    H36 8682   4.283   3.965   2.536  2.4171 -0.0428 -1.6196
   34MOL    H37 8683   4.317   4.067   2.669 -0.8791  0.3670 -0.3328
   34MOL    H38 8684   4.362   4.184   2.402 -1.6981 -2.3856  0.0885
   34MOL    H39 8685   4.410   4.251   2.549 -1.1546  0.1424 -0.5646
   34MOL    H40 8686   4.500   4.103   2.499 -1.4591 -3.0362 -0.5097
   34MOL    C41 8687   3.984   3.996   2.516 -0.0899 -0.2056 -0.6723
   34MOL    C42 8688   3.880   3.897   2.575 -0.0335 -0.3381 -0.0617
   34MOL    O43 8689   3.954   3.794   2.639  0.3144 -0.1244  0.0413
   34MOL    C44 8690   3.904   3.773   2.770  0.3121 -0.3062  0.1594
   34MOL    C45 8691   3.933   3.631   2.814  0.6985  0.2598 -0.1324
   34MOL    H46 8692   4.052   3.948   2.445 -0.5254  0.5955 -1.6505
   34MOL    H47 8693   3.940   4.063   2.442  1.2764 -0.3977 -1.6993
   34MOL    H48 8694   3.812   3.950   2.642  1.4053  0.8368  0.4876
   34MOL    H49 8695   3.796   3.789   2.777 -0.2795 -1.7483 -4.1896
   34MOL    H50 8696   3.958   3.843   2.835 -0.5664  1.2815 -0.8022
   34MOL    H51 8697   3.888   3.553   2.753 -0.8187  1.1832 -0.2221
   34MOL    H52 8698   4.037   3.607   2.796  0.6289  0.3083 -0.6078
   34MOL    H53 8699   3.911   3.619   2.921  0.0067 -1.2045 -0.4229
   34MOL    C54 8700   3.797   3.840   2.460  0.2747  0.3990 -0.5580
   34MOL    C55 8701   3.697   3.946   2.416  0.6144  0.1888  0.8880
   34MOL    O56 8702   3.618   3.980   2.523  0.8845 -0.1237  0.2629
   34MOL    C57 8703   3.601   4.117   2.539 -0.1678 -0.0250 -0.6947
   34MOL    C58 8704   3.518   4.148   2.671 -0.5689  0.3260  0.8635
   34MOL    H59 8705   3.744   3.749   2.490 -2.7211  1.9674 -0.8971
   34MOL    H60 8706   3.862   3.808   2.378  0.4254  2.0658 -1.0956
   34MOL    H61 8707   3.751   4.028   2.367 -0.4777  0.0116 -0.6566
   34MOL    H62 8708   3.542   4.141   2.450 -0.7333 -0.6696 -0.4979
   34MOL    H63 8709   3.698   4.166   2.538 -0.2094  0.0867  0.1142
   34MOL    H64 8710   3.498   4.252   2.696 -0.8438 -0.1223  2.5382
   34MOL    H65 8711   3.431   4.083   2.681  0.5933 -1.0931  1.8876
   34MOL    H66 8712   3.578   4.118   2.757 -0.0175  0.8274  0.6562
   34MOL    C67 8713   3.602   3.883   2.308 -1.0208  0.0855  0.6946
   34MOL    C68 8714   3.672   3.866   2.167 -0.9195  0.2284  0.1006
   34MOL    O69 8715   3.701   3.996   2.123 -0.3883 -0.9992 -0.3271
   34MOL    C70 8716   3.812   4.006   2.038 -0.2419  0.7183 -0.1776
   34MOL    C71 8717   3.818   4.150   1.987  0.5587 -0.4194 -0.1784
   34MOL    H72 8718   3.516   3.948   2.294 -0.5487  0.4635 -0.5008
   34MOL    H73 8719   3.571   3.783   2.339 -1.5581  0.1406  0.3512
   34MOL    H74 8720   3.754   3.796   2.185 -1.3040 -0.1153  0.5055
   34MOL    H75 8721   3.792   3.941   1.952 -2.5476  0.3330  0.5947
   34MOL    H76 8722   3.906   3.974   2.082 -0.2170 -2.0292 -2.0144
   34MOL    H77 8723   3.891   4.162   1.907 -0.2329  0.1679 -0.8081
   34MOL    H78 8724   3.720   4.180   1.952  0.7813  0.6302  0.0853
   34MOL    H79 8725   3.837   4.226   2.063  2.8345 -0.9947 -0.1271
   34MOL    C80 8726   3.570   3.811   2.065 -0.0421  0.8465  0.5227
   34MOL    C81 8727   3.542   3.662   2.065 -0.3215 -0.2116 -0.0365
   34MOL    O82 8728   3.665   3.592   2.041 -0.6329 -0.3348  0.0382
   34MOL    C83 8729   3.678   3.462   2.094 -0.1000  0.2942 -0.8520
   34MOL    C84 8730   3.823   3.425   2.058  0.5274  0.3437  0.0232
   34MOL    H85 8731   3.609   3.833   1.966 -0.2258 -0.7087  0.0980
   34MOL    H86 8732   3.473   3.861   2.071 -1.3865 -1.5604 -0.4194
   34MOL    H87 8733   3.490   3.635   2.158 -0.2294  1.6107  0.5592
   34MOL    H88 8734   3.605   3.398   2.046  0.4686 -0.7178 -0.3806
   34MOL    H89 8735   3.656   3.468   2.200  0.4778  0.0589 -0.7153
   34MOL    H90 8736   3.883   3.495   2.116  1.4146 -1.0932  0.8846
   34MOL    H91 8737   3.850   3.322   2.081  0.6722  0.5229  0.6592
   34MOL    H92 8738   3.838   3.423   1.950  2.0865 -1.4466  0.2466
   34MOL    C93 8739   3.441   3.619   1.958  0.2138 -0.5386 -0.1293
   34MOL    C94 8740   3.287   3.652   1.981 -0.2066 -0.5263  0.1617
   34MOL    O95 8741   3.257   3.586   2.107 -0.2078 -0.4036  0.0221
   34MOL    C96 8742   3.145   3.627   2.176 -0.7824  0.3823 -0.8083
   34MOL    C97 8743   3.102   3.509   2.263  1.1677 -0.1071 -0.5733
   34MOL    H98 8744   3.452   3.512   1.938 -1.0173 -0.1928 -2.7650
   34MOL    H99 8745   3.466   3.662   1.861  1.9409 -1.2142 -0.0062
   34MOL   H100 8746   3.279   3.759   2.000 -1.0865 -0.6933  0.7889
   34MOL   H101 8747   3.061   3.643   2.108  0.2761  0.4790 -2.1119
   34MOL   H102 8748   3.182   3.724   2.209 -0.3376 -0.4052  1.0524
   34MOL   H103 8749   3.189   3.497   2.327  0.8636  0.7774  0.0268
   34MOL   H104 8750   3.016   3.518   2.329  0.8009 -1.8750 -0.7866
   34MOL   H105 8751   3.077   3.422   2.203 -0.7075  0.3786 -0.5352
   34MOL   C106 8752   3.207   3.598   1.867 -0.1614  0.4801  0.2439
   34MOL   C107 8753   3.223   3.683   1.737  0.1750  0.2095 -0.2732
   34MOL   O108 8754   3.162   3.803   1.760  0.3853 -0.0503  0.4665
   34MOL   C109 8755   3.227   3.930   1.716  0.5555  1.3327  0.3062
   34MOL   C110 8756   3.309   3.994   1.835  0.1576  0.4958 -0.5209
   34MOL   H111 8757   3.103   3.594   1.901 -0.0746 -1.3834  0.3687
   34MOL   H112 8758   3.241   3.497   1.842 -0.9800  0.6818 -1.8410
   34MOL   H113 8759   3.325   3.694   1.700 -0.3935 -1.7214 -2.5989
   34MOL   H114 8760   3.141   3.989   1.682  2.1170  1.8690 -2.8367
   34MOL   H115 8761   3.297   3.913   1.634 -0.9398 -3.6562 -0.0497
   34MOL   H116 8762   3.405   3.944   1.842 -0.9256 -1.4555  0.8837
   34MOL   H117 8763   3.316   4.099   1.806 -0.3654  0.0542 -2.3339
   34MOL   H118 8764   3.257   3.997   1.931 -0.9906 -1.5155 -1.0486
   34MOL   C119 8765   3.158   3.608   1.619 -0.5130 -0.7512  0.1644
   34MOL   C120 8766   3.263   3.512   1.546 -0.3108 -0.4567  0.6623
   34MOL   O121 8767   3.347   3.440   1.640 -0.6793 -0.3806 -0.2103
   34MOL   C122 8768   3.397   3.310   1.602 -0.1644 -0.0429  0.0244
   34MOL   C123 8769   3.434   3.231   1.726 -0.8008  0.1357  1.4103
   34MOL   H124 8770   3.114   3.676   1.546  0.3519 -2.1150 -1.6593
   34MOL   H125 8771   3.067   3.555   1.650 -1.1344 -0.1531 -0.6129
   34MOL   H126 8772   3.207   3.440   1.487  1.9835 -2.3155  0.6956
   34MOL   H127 8773   3.484   3.323   1.536  1.8032 -1.7813  2.2040
   34MOL   H128 8774   3.318   3.250   1.556 -0.6022 -1.4082  2.5090
   34MOL   H129 8775   3.353   3.225   1.799 -0.7793  0.2764  1.4456
   34MOL   H130 8776   3.473   3.133   1.699  0.5188  1.0842 -0.2506
   34MOL   H131 8777   3.521   3.278   1.772 -0.4872  1.8330 -0.8199
   34MOL   C132 8778   3.350   3.596   1.445  0.0674  0.5316 -0.4090
   34MOL   C133 8779   3.272   3.631   1.311 -0.0334 -0.2788  0.3491
   34MOL   O134 8780   3.252   3.513   1.227  0.1379  0.2225 -0.6187
   34MOL   C135 8781   3.153   3.518   1.121  0.5799 -1.2006  0.3159
   34MOL   C136 8782   3.219   3.457   0.997  0.5054 -0.0342 -0.5271
   34MOL   H137 8783   3.435   3.535   1.415 -0.4591 -1.3075  1.6593
   34MOL   H138 8784   3.400   3.679   1.496  1.7093 -1.1776  0.8299
   34MOL   H139 8785   3.169   3.654   1.339 -0.2813 -0.6577 -0.2457
   34MOL   H140 8786   3.132   3.623   1.104 -2.1633 -1.5264  1.4854
   34MOL   H141 8787   3.058   3.471   1.147 -0.3085  0.0376 -0.6596
   34MOL   H142 8788   3.168   3.485   0.905 -0.9551 -2.1198 -0.3814
   34MOL   H143 8789   3.325   3.479   0.985  0.9284 -1.1229  1.0281
   34MOL   H144 8790   3.211   3.348   0.997 -0.1588 -0.0050  1.0863
   34MOL   C145 8791   3.338   3.756   1.245  0.1861 -0.7474  0.2684
   34MOL   C146 8792   3.296   3.895   1.306 -0.4272 -0.6631 -0.0065
   34MOL   O147 8793   3.157   3.898   1.280 -0.2963 -0.0237 -0.3967
   34MOL   C148 8794   3.075   3.998   1.335  0.5560 -0.1743  0.7167
   34MOL   C149 8795   2.929   3.954   1.322 -0.2272 -0.6684 -0.4195
   34MOL   H150 8796   3.305   3.762   1.142  0.9387  1.3527  0.1279
   34MOL   H151 8797   3.444   3.739   1.232 -0.3434 -2.0985 -2.6332
   34MOL   H152 8798   3.316   3.901   1.413 -0.0314  2.2467 -0.2055
   34MOL   H153 8799   3.096   4.092   1.286 -0.4783 -0.3973 -0.1637
   34MOL   H154 8800   3.098   3.998   1.442 -1.5292 -2.1558  1.2065
   34MOL   H155 8801   2.870   4.044   1.341  1.6413  0.6591 -0.8420
   34MOL   H156 8802   2.902   3.915   1.224  0.1535  1.0500 -1.2306
   34MOL   H157 8803   2.909   3.873   1.393 -2.7171 -0.2667 -0.6233
   34MOL   C158 8804   3.372   4.015   1.237  0.4313 -0.0825  0.4829
   34MOL   C159 8805   3.514   4.042   1.275 -0.0537  0.3668 -0.1431
   34MOL   O160 8806   3.505   4.096   1.406  0.3286 -0.2439 -0.4961
   34MOL   C161 8807   3.592   4.041   1.508 -0.7695 -0.3361  0.4581
   34MOL   C162 8808   3.584   4.144   1.623  0.2224 -0.2087  0.0230
   34MOL   H163 8809   3.313   4.107   1.235 -0.8508 -0.9131 -0.3165
   34MOL   H164 8810   3.379   3.994   1.130  0.8266  1.5991  0.1552
   34MOL   H165 8811   3.570   3.949   1.269 -2.0160 -0.8416 -0.4125
   34MOL   H166 8812   3.697   4.047   1.477 -0.6360 -0.8682  0.8074
   34MOL   H167 8813   3.558   3.944   1.543  0.6053 -0.1496  2.3982
   34MOL   H168 8814   3.479   4.148   1.651  0.0119  1.7475 -0.9260
   34MOL   H169 8815   3.634   4.115   1.715  0.2149 -0.0281  0.0835
   34MOL   H170 8816   3.624   4.238   1.584  0.9827 -0.4634  0.1868
   34MOL   C171 8817   3.574   4.148   1.177  0.3233 -0.4321 -0.3453
   34MOL   C172 8818   3.712   4.191   1.218  1.1262 -0.3359  0.2450
   34MOL   O173 8819   3.739   4.311   1.150  0.4110 -0.0769  0.4416
   34MOL   C174 8820   3.713   4.429   1.224 -0.2868  0.0557  0.1787
   34MOL   C175 8821   3.578   4.493   1.186  0.4458 -0.6070  0.0411
   34MOL   H176 8822   3.517   4.240   1.167 -1.5858 -1.5061  0.2490
   34MOL   H177 8823   3.562   4.119   1.072  0.0478  0.5746 -0.6000
   34MOL   H178 8824   3.717   4.215   1.324 -1.6984 -0.5821  0.4702
   34MOL   H179 8825   3.794   4.499   1.204 -0.8611  0.8599  0.6264
   34MOL   H180 8826   3.702   4.414   1.331 -0.1448 -0.8260  0.0798
   34MOL   H181 8827   3.558   4.477   1.080  0.6993 -2.1643  0.2231
   34MOL   H182 8828   3.496   4.449   1.242 -0.2723 -0.8490 -1.1641
   34MOL   H183 8829   3.575   4.600   1.206 -1.3960 -0.8177  0.9769
   34MOL   C184 8830   3.819   4.088   1.183 -0.4299  0.3053  0.3093
   34MOL   C185 8831   3.958   4.106   1.257  0.0488  0.2651 -0.5736
   34MOL   O186 8832   3.933   4.131   1.390  0.4521  0.5049 -0.8828
   34MOL   C187 8833   4.041   4.076   1.474  0.1002 -0.1130  0.3160
   34MOL   C188 8834   4.013   4.078   1.620  0.7695 -0.1552  0.0847
   34MOL   H189 8835   3.835   4.069   1.077 -1.3766 -0.1022  0.2357
   34MOL   H190 8836   3.771   3.995   1.215  1.1477 -1.3417 -1.9978
   34MOL   H191 8837   4.004   4.008   1.247  0.5143  0.2863  1.2673
   34MOL   H192 8838   4.127   4.140   1.458 -0.4127  0.1437 -1.5993
   34MOL   H193 8839   4.067   3.973   1.447  0.3170  0.3327 -1.2274
   34MOL   H194 8840   4.019   4.179   1.659  0.8721 -0.5258  1.0456
   34MOL   H195 8841   3.917   4.030   1.640  0.6380  0.8389  1.9741
   34MOL   H196 8842   4.093   4.022   1.670  1.7204 -0.0397 -1.2627
   34MOL   C197 8843   4.037   4.223   1.200 -0.2155  0.2821  0.8226
   34MOL   C198 8844   4.109   4.210   1.057  0.3967 -0.0712  0.0186
   34MOL   O199 8845   4.014   4.195   0.957  0.0096 -0.3888  0.1685
   34MOL   C200 8846   3.982   4.310   0.883 -0.1706  0.4316 -0.4243
   34MOL   C201 8847   3.846   4.294   0.816 -0.1513 -0.1060  0.3957
   34MOL   H202 8848   4.109   4.259   1.274 -1.2724 -0.0351  2.0189
   34MOL   H203 8849   3.969   4.308   1.197 -1.6056 -0.8671 -0.3531
   34MOL   H204 8850   4.154   4.307   1.037 -0.1421  0.0378 -0.6460
   34MOL   H205 8851   4.058   4.332   0.808 -2.7658  2.4089 -2.5924
   34MOL   H206 8852   3.970   4.393   0.953 -0.0806 -2.2012  2.7890
   34MOL   H207 8853   3.869   4.221   0.738 -1.0604 -2.3567  2.1728
   34MOL   H208 8854   3.774   4.242   0.880 -0.0140 -1.3040 -0.4193
   34MOL   H209 8855   3.808   4.387   0.772 -0.4841  0.5807  2.0802
   34MOL   C210 8856   4.224   4.097   1.048 -0.6457 -0.0946 -0.2793
   34MOL   C211 8857   4.362   4.153   1.083  0.3666 -0.4496  0.4761
   34MOL   O212 8858   4.347   4.242   1.191  0.4107 -0.1510  0.1976
   34MOL   C213 8859   4.450   4.230   1.291  0.0720  0.2457 -0.0671
   34MOL   C214 8860   4.430   4.329   1.404  0.2202 -0.1184  0.1703
   34MOL   H215 8861   4.243   4.053   0.950  0.9025 -0.1122  0.0172
   34MOL   H216 8862   4.193   4.008   1.104 -2.8634  0.0245 -1.2885
   34MOL   H217 8863   4.416   4.063   1.115  1.6054  0.4825  1.0602
   34MOL   H218 8864   4.549   4.236   1.246  0.2605  1.0378  0.4520
   34MOL   H219 8865   4.437   4.137   1.345  0.3150  0.9184  1.1741
   34MOL   H220 8866   4.434   4.434   1.375 -0.5974 -0.6005 -1.7421
   34MOL   H221 8867   4.329   4.311   1.441  0.7845  0.8121  2.2517
   34MOL   H222 8868   4.500   4.304   1.483 -0.2152 -2.7732 -0.2222
   34MOL   C223 8869   4.440   4.219   0.972  0.1245 -0.1872  0.9642
   34MOL   C224 8870   4.487   4.114   0.861 -0.2229  0.1391  0.5491
   34MOL   O225 8871   4.566   4.012   0.924  0.2267 -0.2097 -0.0861
   34MOL   C226 8872   4.517   3.885   0.909  0.2918 -0.4731 -0.2817
   34MOL   C227 8873   4.593   3.777   0.985  0.2574 -0.0692 -0.7343
   34MOL   H228 8874   4.528   4.269   1.013 -1.1084  1.9273  1.1001
   34MOL   H229 8875   4.374   4.293   0.927  0.8687  0.4262  0.8719
   34MOL   H230 8876   4.403   4.073   0.804 -0.9145 -0.2218  1.8166
   34MOL   H231 8877   4.518   3.858   0.804  1.9077 -1.9283  0.0739
   34MOL   H232 8878   4.412   3.880   0.937 -0.8671 -1.0415 -4.4693
   34MOL   H233 8879   4.583   3.798   1.091 -2.9297  2.6581 -1.4839
   34MOL   H234 8880   4.553   3.677   0.971  0.2001 -0.4155  1.6520
   34MOL   H235 8881   4.700   3.770   0.967  0.3535  0.3867 -0.3566
   34MOL   C236 8882   4.591   4.182   0.755  0.9350 -0.3308 -0.3328
   34MOL   C237 8883   4.519   4.271   0.658 -0.1305 -0.9784 -0.2961
   34MOL   O238 8884   4.409   4.205   0.603 -0.2918  0.3354 -1.3210
   34MOL   C239 8885   4.291   4.283   0.621  0.5814  0.4786 -0.5354
   34MOL   C240 8886   4.173   4.191   0.588 -0.1432 -0.6690  0.2080
   34MOL   H241 8887   4.640   4.106   0.695 -0.3957  0.2487 -2.1704
   34MOL   H242 8888   4.676   4.231   0.804 -0.5014  0.9621  0.8980
   34MOL   H243 8889   4.497   4.359   0.719 -0.1993 -1.0817 -0.1724
   34MOL   H244 8890   4.292   4.358   0.541  1.0932  1.4213  0.3530
   34MOL   H245 8891   4.277   4.338   0.714 -0.7325 -1.7422  0.6245
   34MOL   H246 8892   4.173   4.157   0.484 -1.6696 -0.3206  0.0690
   34MOL   H247 8893   4.169   4.108   0.658 -0.9373 -1.0052 -0.2173
   34MOL   H248 8894   4.077   4.242   0.591 -1.0587 -2.2457 -1.1729
   34MOL   C249 8895   4.602   4.315   0.533  0.2389  0.3842 -0.5153
   34MOL   C250 8896   4.726   4.393   0.570 -0.0487  0.0447 -0.3601
   34MOL   O251 8897   4.780   4.458   0.457 -0.3038 -0.2459 -0.0344
   34MOL   C252 8898   4.913   4.511   0.479 -0.4470  0.2063 -0.3343
   34MOL   C253 8899   4.958   4.581   0.354 -0.2211  0.3183  1.0169
   34MOL   H254 8900   4.533   4.379   0.479 -2.1996 -0.8573  1.0677
   34MOL   H255 8901   4.627   4.233   0.466 -2.7338 -1.4867  0.5606
   34MOL   H256 8902   4.699   4.471   0.641  0.0326  0.1986 -0.4954
   34MOL   H257 8903   4.984   4.433   0.507  1.2419  2.6795  2.5243
   34MOL   H258 8904   4.900   4.588   0.555  0.7612  0.7654 -0.6741
   34MOL   H259 8905   4.928   4.534   0.260 -0.6872  0.7920  0.9283
   34MOL   H260 8906   4.913   4.680   0.343 -1.9948 -0.8097 -2.6300
   34MOL   H261 8907   5.066   4.599   0.361 -0.2786  1.0030  0.2747
   34MOL   H262 8908   4.795   4.327   0.623 -0.6385 -2.2084 -2.3091
   35MOL     C1 8909   1.179   5.907   2.100 -0.5801 -0.0661 -0.3125
   35MOL     C2 8910   1.182   5.947   1.950 -0.5242 -0.9595 -0.0044
   35MOL     O3 8911   1.312   5.912   1.898  0.6778  0.3640 -0.5981
   35MOL     C4 8912   1.306   5.869   1.764  0.2568  0.0973  0.2761
   35MOL     C5 8913   1.437   5.905   1.709 -0.0808 -0.5051  0.7309
   35MOL     H6 8914   1.178   5.798   2.104 -0.6861 -0.1162 -1.7568
   35MOL     H7 8915   1.259   5.955   2.157 -0.4488 -0.0702 -0.4933
   35MOL     H8 8916   1.096   5.900   1.901 -0.0852 -1.4614 -0.2926
   35MOL     H9 8917   1.229   5.918   1.703 -0.4830  0.3968  1.4403
   35MOL    H10 8918   1.293   5.761   1.753  4.2143 -0.4911  0.6697
   35MOL    H11 8919   1.521   5.862   1.764  2.4438  1.7945 -1.1940
   35MOL    H12 8920   1.455   5.876   1.606  3.5910 -0.6566  1.3703
   35MOL    H13 8921   1.449   6.013   1.715 -2.6391 -0.1250 -0.3655
   35MOL    H14 8922   1.080   5.930   2.139 -0.7594 -1.2453 -0.0604
   35MOL    C15 8923   1.177   6.106   1.947  0.9950  0.0345 -0.5076
   35MOL    C16 8924   1.036   6.157   1.956  0.1670  0.2563  0.9342
   35MOL    O17 8925   0.988   6.145   1.819  0.0170  0.6282 -0.2659
   35MOL    C18 8926   0.847   6.149   1.829 -0.4697  0.1088  0.1597
   35MOL    C19 8927   0.793   6.157   1.685  0.0540  0.7963  1.0520
   35MOL    H20 8928   1.219   6.140   1.852  1.4517  0.7401 -0.0645
   35MOL    H21 8929   1.247   6.154   2.016  0.1379 -2.2166  1.9815
   35MOL    H22 8930   0.976   6.099   2.026  1.1654 -0.9150  0.8358
   35MOL    H23 8931   0.810   6.239   1.877 -0.6380  0.4659 -0.6238
   35MOL    H24 8932   0.803   6.062   1.879 -2.2333  0.8499 -0.0357
   35MOL    H25 8933   0.790   6.261   1.650 -3.0022  0.1202 -0.9340
   35MOL    H26 8934   0.694   6.116   1.701  0.9622 -0.9555  2.2812
   35MOL    H27 8935   0.842   6.097   1.609  1.1383  0.8241  1.7202
   35MOL    C28 8936   1.025   6.305   2.000  0.0091  0.6202  0.4891
   35MOL    C29 8937   1.102   6.404   1.904  0.3678  0.5200 -0.8046
   35MOL    O30 8938   1.241   6.402   1.924  0.6397  0.5290  0.5108
   35MOL    C31 8939   1.330   6.413   1.811  0.3242 -0.1160 -0.4714
   35MOL    C32 8940   1.478   6.400   1.851 -0.2054 -0.7693  0.4047
   35MOL    H33 8941   1.080   6.312   2.094 -0.5670 -1.0492  0.9703
   35MOL    H34 8942   0.925   6.344   2.015 -0.1930 -0.2641  1.4943
   35MOL    H35 8943   1.085   6.373   1.801  1.1825 -3.2423  0.1309
   35MOL    H36 8944   1.314   6.502   1.750 -0.0297  0.4363  0.4178
   35MOL    H37 8945   1.313   6.333   1.739 -1.6868  0.9094 -1.1894
   35MOL    H38 8946   1.517   6.497   1.879  0.0563 -1.1311  1.3272
   35MOL    H39 8947   1.483   6.323   1.928 -0.9756 -2.7071 -1.4349
   35MOL    H40 8948   1.543   6.370   1.768 -1.0762 -2.3152  0.2617
   35MOL    C41 8949   1.056   6.550   1.918  0.2514  0.0750 -0.1455
   35MOL    C42 8950   1.096   6.626   2.047 -0.4603  0.2478 -0.1853
   35MOL    O43 8951   1.017   6.574   2.152 -0.0706 -0.4311 -0.3297
   35MOL    C44 8952   1.071   6.599   2.281 -0.1709 -0.1358 -0.7665
   35MOL    C45 8953   0.980   6.542   2.383  0.1388  0.5392  0.2873
   35MOL    H46 8954   0.949   6.547   1.897  0.3090 -1.3042 -0.3130
   35MOL    H47 8955   1.111   6.599   1.837  1.1150  0.2823  0.5562
   35MOL    H48 8956   1.198   6.610   2.083 -0.8482 -2.1940 -0.1254
   35MOL    H49 8957   1.082   6.704   2.310 -0.6324 -0.0174 -1.0175
   35MOL    H50 8958   1.166   6.547   2.297 -0.4402 -0.4323 -0.1251
   35MOL    H51 8959   0.899   6.614   2.367  0.1202 -0.1942 -3.4676
   35MOL    H52 8960   0.957   6.436   2.377 -0.9471  0.6434  2.2269
   35MOL    H53 8961   1.013   6.573   2.482 -0.0252 -1.8840  1.1159
   35MOL    C54 8962   1.103   6.781   2.023  0.3855  0.1786  0.1941
   35MOL    C55 8963   0.970   6.850   2.034  0.1195  0.1087 -0.2111
   35MOL    O56 8964   0.888   6.802   1.925 -0.2161  0.2374  0.3709
   35MOL    C57 8965   0.744   6.803   1.956  0.5688  0.6912  0.2074
   35MOL    C58 8966   0.703   6.673   2.027  0.0985 -0.0967  0.7121
   35MOL    H59 8967   1.142   6.809   1.925  1.0442  4.3309  1.5580
   35MOL    H60 8968   1.157   6.829   2.104  1.1882  0.4667 -0.5039
   35MOL    H61 8969   0.921   6.828   2.129  0.7548  0.7171  0.2633
   35MOL    H62 8970   0.692   6.815   1.861  1.0219 -0.4710 -0.1947
   35MOL    H63 8971   0.715   6.881   2.026 -3.7474 -1.0254  0.4842
   35MOL    H64 8972   0.713   6.582   1.967 -2.7973 -0.8949  1.3459
   35MOL    H65 8973   0.772   6.670   2.111 -0.4611  1.4375  1.2609
   35MOL    H66 8974   0.602   6.656   2.066 -0.7623  0.0676 -1.3606
   35MOL    C67 8975   0.994   7.003   2.012 -0.2563 -0.3387  0.7207
   35MOL    C68 8976   1.060   7.080   2.132  0.0733  0.2130  0.0712
   35MOL    O69 8977   0.977   7.040   2.245  0.1051 -0.3379 -0.0160
   35MOL    C70 8978   1.031   7.067   2.365  0.0860  0.5868 -0.1706
   35MOL    C71 8979   0.941   7.006   2.474 -0.8565  0.4721 -0.1282
   35MOL    H72 8980   0.896   7.043   1.987 -0.3377  0.1091  1.7342
   35MOL    H73 8981   1.061   7.014   1.927  0.1478 -3.3560  0.6058
   35MOL    H74 8982   1.157   7.035   2.153 -1.4390 -2.4651  1.5781
   35MOL    H75 8983   1.023   7.174   2.385 -2.6243  0.5969 -1.1089
   35MOL    H76 8984   1.131   7.026   2.366 -0.6523 -1.4522 -3.8349
   35MOL    H77 8985   0.996   7.006   2.569 -1.8789 -2.3759  0.5141
   35MOL    H78 8986   0.843   7.052   2.476 -0.5850  1.2963 -3.1740
   35MOL    H79 8987   0.936   6.898   2.458 -0.7897  0.1764  1.7058
   35MOL    C80 8988   1.070   7.230   2.108  0.0752  0.0068 -0.6357
   35MOL    C81 8989   1.202   7.256   2.022  0.0833 -0.0284  0.1654
   35MOL    O82 8990   1.321   7.231   2.098  0.0607  0.9999  0.1408
   35MOL    C83 8991   1.353   7.327   2.200 -0.4488  0.0499  0.3814
   35MOL    C84 8992   1.469   7.295   2.287 -0.3687 -0.2587 -0.1329
   35MOL    H85 8993   1.063   7.283   2.202  0.6832 -0.4938 -0.3036
   35MOL    H86 8994   0.979   7.254   2.054  0.2581  0.9162 -0.5442
   35MOL    H87 8995   1.211   7.177   1.948 -0.0349  0.8958 -0.8478
   35MOL    H88 8996   1.269   7.346   2.268 -0.7009  0.1053  0.0563
   35MOL    H89 8997   1.373   7.420   2.147  2.7618 -1.2582 -0.7776
   35MOL    H90 8998   1.482   7.367   2.367  1.3300 -0.3519 -0.2925
   35MOL    H91 8999   1.446   7.201   2.337  0.7055  1.2332  3.2980
   35MOL    H92 9000   1.562   7.278   2.232  0.1940 -1.3630  1.1344
   35MOL    C93 9001   1.201   7.393   1.936  0.3132  0.5663 -0.1234
   35MOL    C94 9002   1.327   7.415   1.844  0.2919  0.7948  0.2032
   35MOL    O95 9003   1.316   7.549   1.793  0.1781 -0.3668 -0.2573
   35MOL    C96 9004   1.381   7.653   1.869 -0.0044  0.5913 -0.0818
   35MOL    C97 9005   1.383   7.776   1.777 -0.0214 -0.0744  1.1856
   35MOL    H98 9006   1.183   7.480   1.999 -2.0097  0.9723 -1.3185
   35MOL    H99 9007   1.117   7.397   1.867  0.0559 -0.5560  0.1173
   35MOL   H100 9008   1.415   7.412   1.908  0.1885  0.9493  0.3553
   35MOL   H101 9009   1.480   7.610   1.884 -0.3554 -2.0358 -4.2898
   35MOL   H102 9010   1.337   7.676   1.966  1.3083  0.4946  0.5470
   35MOL   H103 9011   1.456   0.006   1.811  1.3236 -0.6015 -0.5152
   35MOL   H104 9012   1.399   7.751   1.672  1.1696 -0.5047  1.4680
   35MOL   H105 9013   1.287   7.829   1.773  0.6918  1.6249  4.5738
   35MOL   C106 9014   1.346   7.314   1.742  0.5101  0.0499  0.7187
   35MOL   C107 9015   1.473   7.339   1.658 -0.4378 -0.1738  0.7886
   35MOL   O108 9016   1.439   7.357   1.519 -0.1903  0.2801 -0.0985
   35MOL   C109 9017   1.388   7.489   1.491  0.2545 -0.1302  0.1480
   35MOL   C110 9018   1.413   7.524   1.341  0.2821 -0.2805  0.5571
   35MOL   H111 9019   1.253   7.304   1.685  1.3720 -1.5876 -0.4272
   35MOL   H112 9020   1.357   7.216   1.789  0.9007 -0.7463 -1.0051
   35MOL   H113 9021   1.538   7.423   1.681  1.7187 -1.1837 -1.5329
   35MOL   H114 9022   1.449   7.561   1.545 -0.8468  0.8756  0.0799
   35MOL   H115 9023   1.282   7.495   1.516  0.4413  2.8552  0.3993
   35MOL   H116 9024   1.374   7.624   1.322 -1.3245 -1.0612 -0.4505
   35MOL   H117 9025   1.517   7.525   1.310 -0.0524  1.1621 -0.5704
   35MOL   H118 9026   1.368   7.444   1.281  1.5855 -1.3382  0.9644
   35MOL   C119 9027   1.560   7.211   1.646 -0.1259 -0.5649 -0.2845
   35MOL   C120 9028   1.652   7.182   1.768 -0.3032 -0.2181  0.0707
   35MOL   O121 9029   1.741   7.290   1.792 -0.0339 -0.0649 -0.5627
   35MOL   C122 9030   1.770   7.334   1.933 -0.1486  1.0256  0.5187
   35MOL   C123 9031   1.854   7.457   1.946  0.5982 -0.0945 -0.4615
   35MOL   H124 9032   1.634   7.223   1.567  0.6427 -0.8188  0.3943
   35MOL   H125 9033   1.497   7.123   1.632 -0.7317 -0.4455  1.5199
   35MOL   H126 9034   1.579   7.181   1.850 -0.3549  0.4955  0.0417
   35MOL   H127 9035   1.819   7.248   1.977 -0.7102  1.7067  2.5069
   35MOL   H128 9036   1.673   7.348   1.981  0.2377  0.0242  1.6063
   35MOL   H129 9037   1.807   7.550   1.912  4.2800  1.2460 -2.1988
   35MOL   H130 9038   1.868   7.474   2.053  0.0850  0.9076 -0.5476
   35MOL   H131 9039   1.948   7.443   1.892  0.6521  0.3731 -0.4946
   35MOL   C132 9040   1.720   7.044   1.753 -0.5899  0.0805 -0.3108
   35MOL   C133 9041   1.628   6.928   1.780  0.1666 -0.4197 -0.8412
   35MOL   O134 9042   1.602   6.935   1.922  0.3017 -0.5507 -0.2122
   35MOL   C135 9043   1.466   6.916   1.956 -0.0094  0.4255  0.8204
   35MOL   C136 9044   1.465   6.921   2.110 -0.2571  0.2671  0.1680
   35MOL   H137 9045   1.806   7.027   1.819  0.0280 -1.5297 -1.5045
   35MOL   H138 9046   1.769   7.028   1.657 -1.2144 -2.0693 -0.2962
   35MOL   H139 9047   1.533   6.948   1.730 -0.0890  0.2026 -0.1144
   35MOL   H140 9048   1.426   6.820   1.924 -1.6132  0.8914  1.3999
   35MOL   H141 9049   1.394   6.993   1.927 -1.7475 -1.2313  0.6756
   35MOL   H142 9050   1.523   6.838   2.150  0.4409  0.7614  0.1859
   35MOL   H143 9051   1.477   7.021   2.152  0.1493 -0.7880  2.6534
   35MOL   H144 9052   1.367   6.889   2.146 -0.4570  0.1876 -0.4291
   35MOL   C145 9053   1.677   6.788   1.736 -0.2228 -0.8460 -0.2606
   35MOL   C146 9054   1.646   6.753   1.583  0.1466  0.4291  0.7516
   35MOL   O147 9055   1.510   6.732   1.586  0.7445 -0.0501 -1.1574
   35MOL   C148 9056   1.450   6.757   1.461  0.7523  0.0981  0.1617
   35MOL   C149 9057   1.308   6.732   1.491  0.6313 -0.5517 -0.2846
   35MOL   H150 9058   1.651   6.709   1.807 -1.3847 -1.4356 -1.3050
   35MOL   H151 9059   1.784   6.798   1.753  0.2843 -0.9836 -3.0175
   35MOL   H152 9060   1.668   6.840   1.522 -0.6890 -0.1444 -0.3930
   35MOL   H153 9061   1.470   6.679   1.388 -0.4980 -0.6136  0.5625
   35MOL   H154 9062   1.470   6.853   1.413 -0.1596 -0.0061 -0.4333
   35MOL   H155 9063   1.285   6.770   1.590 -0.7816 -0.6762 -0.5529
   35MOL   H156 9064   1.241   6.774   1.416  0.4087  1.2138  0.8854
   35MOL   H157 9065   1.304   6.623   1.497 -0.4232 -0.6095 -1.7666
   35MOL   C158 9066   1.707   6.621   1.538 -0.1638  0.2765  0.5201
   35MOL   C159 9067   1.857   6.604   1.562 -1.0465 -0.0943 -0.1270
   35MOL   O160 9068   1.934   6.678   1.467  0.5237 -0.1082  0.0911
   35MOL   C161 9069   2.070   6.720   1.496 -0.3875  0.2434 -0.2192
   35MOL   C162 9070   2.078   6.862   1.430  0.2266 -0.3384  0.4981
   35MOL   H163 9071   1.684   6.607   1.433 -2.7062  1.3085  0.9135
   35MOL   H164 9072   1.653   6.534   1.576  2.3815 -1.5436  0.1454
   35MOL   H165 9073   1.882   6.637   1.663 -2.5248  1.2842 -0.2022
   35MOL   H166 9074   2.130   6.647   1.442 -1.7272 -0.0506 -1.3538
   35MOL   H167 9075   2.090   6.714   1.603 -0.1996 -1.1197 -0.3283
   35MOL   H168 9076   2.182   6.895   1.431  0.0001  0.4172 -0.3894
   35MOL   H169 9077   2.038   6.851   1.329  0.2387  0.8558  0.3638
   35MOL   H170 9078   2.019   6.939   1.479  0.2960  0.8833 -1.2888
   35MOL   C171 9079   1.914   6.462   1.552  0.4682 -0.9425  0.0060
   35MOL   C172 9080   1.859   6.374   1.657  0.0807  0.6636 -0.5400
   35MOL   O173 9081   1.911   6.429   1.773 -0.6343 -0.8122  0.6403
   35MOL   C174 9082   1.845   6.430   1.898 -0.2783  0.4768 -0.2551
   35MOL   C175 9083   1.931   6.500   2.002  0.3182  0.2507  0.2151
   35MOL   H176 9084   2.023   6.463   1.556  0.5414  2.5637 -0.7104
   35MOL   H177 9085   1.889   6.424   1.453  1.0231  3.4881 -1.9530
   35MOL   H178 9086   1.750   6.382   1.662 -0.0684 -0.3417 -1.8424
   35MOL   H179 9087   1.831   6.327   1.932  0.7608  0.9705  1.7504
   35MOL   H180 9088   1.751   6.483   1.880  0.8101  3.3563  2.1665
   35MOL   H181 9089   1.878   6.513   2.096 -0.1782 -1.1591  0.1464
   35MOL   H182 9090   2.029   6.458   2.027  1.0468 -0.8464 -4.0140
   35MOL   H183 9091   1.966   6.596   1.964  1.7009 -0.6138 -0.7575
   35MOL   C184 9092   1.894   6.226   1.655  0.2470 -0.3052 -0.2910
   35MOL   C185 9093   1.833   6.144   1.541 -0.2019 -0.1669 -0.0637
   35MOL   O186 9094   1.697   6.140   1.556  0.1232  0.2911  0.4148
   35MOL   C187 9095   1.614   6.123   1.434  0.4392 -0.0333 -0.0080
   35MOL   C188 9096   1.653   6.212   1.318 -0.3298 -0.2765  0.5220
   35MOL   H189 9097   1.849   6.186   1.746 -1.6090  2.0385 -0.1593
   35MOL   H190 9098   2.002   6.212   1.666 -0.0777 -1.0452  2.3067
   35MOL   H191 9099   1.864   6.195   1.450 -0.9844 -0.4237 -0.4762
   35MOL   H192 9100   1.514   6.159   1.459  1.5149  3.4556 -0.3723
   35MOL   H193 9101   1.605   6.017   1.412  1.4541 -0.1713  0.2021
   35MOL   H194 9102   1.738   6.172   1.262 -2.0784  0.4427 -2.7337
   35MOL   H195 9103   1.575   6.230   1.244  0.3748 -0.3413 -0.2534
   35MOL   H196 9104   1.685   6.309   1.355 -0.4485 -0.6816  1.6969
   35MOL   C197 9105   1.883   5.999   1.538  0.4221 -0.1602  0.5522
   35MOL   C198 9106   2.019   5.986   1.483 -0.5789  0.0524 -0.1268
   35MOL   O199 9107   2.011   6.010   1.339  0.4858  0.3714  0.0730
   35MOL   C200 9108   2.123   6.079   1.288  0.3503 -0.1037  0.0364
   35MOL   C201 9109   2.101   6.106   1.139  0.9109 -0.2590  0.8008
   35MOL   H202 9110   1.821   5.929   1.482  0.2160  0.3076  0.1881
   35MOL   H203 9111   1.870   5.967   1.641 -0.9653  1.2613  0.8380
   35MOL   H204 9112   2.084   6.063   1.523  1.6043 -0.6676 -2.1391
   35MOL   H205 9113   2.213   6.024   1.317  0.5884  2.2487  4.0986
   35MOL   H206 9114   2.128   6.179   1.331  0.1990 -0.9080  1.9476
   35MOL   H207 9115   2.185   6.167   1.106 -0.7882  1.6861 -0.0491
   35MOL   H208 9116   2.094   6.012   1.083  0.4089 -0.7914  1.7573
   35MOL   H209 9117   2.010   6.164   1.124  0.3810 -1.1689  0.4323
   35MOL   C210 9118   2.093   5.856   1.520 -0.1981  0.4348  0.2369
   35MOL   C211 9119   2.097   5.803   1.672  1.1645 -0.4239 -0.0780
   35MOL   O212 9120   2.138   5.912   1.754  0.2426  0.0715  0.3533
   35MOL   C213 9121   2.119   5.893   1.890  0.8250  0.5384  0.2321
   35MOL   C214 9122   2.152   6.020   1.970  0.6786  0.1573  0.4076
   35MOL   H215 9123   2.192   5.851   1.475  0.5840 -0.3244  2.0461
   35MOL   H216 9124   2.034   5.783   1.464 -1.3540 -0.5534  2.6953
   35MOL   H217 9125   1.995   5.767   1.689  1.0581 -0.1031 -0.0376
   35MOL   H218 9126   2.184   5.819   1.936  1.1146  1.5701  1.5276
   35MOL   H219 9127   2.020   5.860   1.920  0.7534 -0.0460 -0.6405
   35MOL   H220 9128   2.259   6.037   1.957  0.4156  2.1592  0.8397
   35MOL   H221 9129   2.104   6.111   1.934  0.5735  0.1876  0.6255
   35MOL   H222 9130   2.120   6.010   2.074 -0.4230 -1.8419 -0.0986
   35MOL   C223 9131   2.184   5.677   1.679  0.9002  0.2724  0.1983
   35MOL   C224 9132   2.121   5.540   1.703  0.2175  0.2575  0.2685
   35MOL   O225 9133   2.016   5.513   1.604  0.1474  0.1432 -0.1682
   35MOL   C226 9134   2.059   5.483   1.473 -0.5651 -0.2015  0.1007
   35MOL   C227 9135   1.944   5.471   1.379  0.1113 -0.1202 -0.3776
   35MOL   H228 9136   2.254   5.697   1.760  0.0874 -0.7523  1.1647
   35MOL   H229 9137   2.254   5.667   1.596 -0.1684  1.0972 -0.8269
   35MOL   H230 9138   2.198   5.463   1.698 -1.0100 -0.8101 -2.6567
   35MOL   H231 9139   2.120   5.393   1.484 -1.6402 -0.7817  1.3622
   35MOL   H232 9140   2.121   5.566   1.438 -2.0033  1.5252  1.5428
   35MOL   H233 9141   1.889   5.383   1.412 -0.6865  0.5830  0.1982
   35MOL   H234 9142   1.879   5.558   1.386  0.1351 -0.3125  2.8963
   35MOL   H235 9143   1.983   5.448   1.280 -0.4539  2.1182 -1.1528
   35MOL   C236 9144   2.056   5.539   1.847  0.0287 -0.9361 -0.1797
   35MOL   C237 9145   1.990   5.404   1.890  0.2940 -0.2916  0.1878
   35MOL   O238 9146   1.955   5.409   2.026  0.2852 -0.6058 -0.5062
   35MOL   C239 9147   1.859   5.515   2.050 -0.4501  0.4179 -0.4214
   35MOL   C240 9148   1.806   5.488   2.194  0.2767  0.1313 -0.1698
   35MOL   H241 9149   1.984   5.621   1.842  3.1037  1.9768  1.1437
   35MOL   H242 9150   2.124   5.570   1.926 -0.2239 -0.3814 -0.1741
   35MOL   H243 9151   1.898   5.388   1.834 -0.4360 -0.3581  1.3849
   35MOL   H244 9152   1.777   5.511   1.978 -1.8721  1.7048  1.0792
   35MOL   H245 9153   1.904   5.614   2.061  0.7525 -0.0231 -1.3251
   35MOL   H246 9154   1.890   5.496   2.263 -0.4630  0.8624  0.6605
   35MOL   H247 9155   1.723   5.556   2.216 -0.4293 -0.4434 -1.0310
   35MOL   H248 9156   1.769   5.386   2.195 -0.3461  0.3410 -1.1525
   35MOL   C249 9157   2.081   5.283   1.863 -0.0756 -0.2837  0.0856
   35MOL   C250 9158   2.198   5.266   1.954 -0.4561  0.1046  0.0652
   35MOL   O251 9159   2.305   5.201   1.892 -0.0449 -0.0478 -0.0378
   35MOL   C252 9160   2.401   5.165   1.986 -0.3871  0.0388  0.4987
   35MOL   C253 9161   2.517   5.091   1.906  0.2832 -0.2702  0.3217
   35MOL   H254 9162   2.114   5.294   1.760 -0.1515  1.2928  0.2143
   35MOL   H255 9163   2.019   5.194   1.874 -0.0691 -0.3285 -0.2255
   35MOL   H256 9164   2.221   5.360   2.005 -2.4912  0.8855 -0.4036
   35MOL   H257 9165   2.362   5.103   2.067 -1.4472 -0.8536 -0.6790
   35MOL   H258 9166   2.436   5.257   2.032 -0.2161  0.5727 -0.6856
   35MOL   H259 9167   2.568   5.141   1.824  1.1111  0.0048  0.9867
   35MOL   H260 9168   2.603   5.069   1.969  1.3395  1.5465 -0.4486
   35MOL   H261 9169   2.483   4.994   1.872  0.3868  0.3268 -1.5288
   35MOL   H262 9170   2.161   5.205   2.037 -0.0617 -1.6875 -1.0630
   36MOL     C1 9171   4.282   6.057   1.110  0.5249  0.5526 -0.2499
   36MOL     C2 9172   4.423   6.089   1.062  0.3217  0.6935 -0.7584
   36MOL     O3 9173   4.439   6.077   0.923 -0.0713  0.8742 -0.7279
   36MOL     C4 9174   4.361   6.165   0.844  0.1956 -0.4475 -0.2602
   36MOL     C5 9175   4.416   6.149   0.701  0.0534 -0.0254  0.1497
   36MOL     H6 9176   4.245   5.965   1.064  1.1152 -0.0056  0.3775
   36MOL     H7 9177   4.265   6.036   1.216 -2.3433 -1.3906 -1.0141
   36MOL     H8 9178   4.457   6.187   1.094  0.7793  0.4543 -0.4995
   36MOL     H9 9179   4.397   6.265   0.872  2.3476 -1.2380 -0.0889
   36MOL    H10 9180   4.253   6.150   0.847 -0.5448  4.0378 -0.0092
   36MOL    H11 9181   4.356   6.211   0.633  1.3933  1.5265  0.3658
   36MOL    H12 9182   4.524   6.155   0.688  0.1430 -2.5585 -0.6535
   36MOL    H13 9183   4.382   6.049   0.674  1.4717 -0.0941 -1.4581
   36MOL    H14 9184   4.207   6.133   1.090 -0.5799 -0.4467  0.0320
   36MOL    C15 9185   4.516   5.983   1.116 -0.6615 -0.2777  0.2116
   36MOL    C16 9186   4.558   6.011   1.268  0.5548  0.4459 -0.2404
   36MOL    O17 9187   4.635   6.131   1.256  0.2739  0.4437  0.0507
   36MOL    C18 9188   4.608   6.239   1.348 -0.3057 -0.6851  0.6906
   36MOL    C19 9189   4.667   6.370   1.287  0.1718  0.4175 -0.0337
   36MOL    H20 9190   4.610   5.995   1.061 -0.9598  0.3927 -0.1549
   36MOL    H21 9191   4.476   5.882   1.114 -1.1776 -0.0611 -0.2336
   36MOL    H22 9192   4.472   6.036   1.330  1.5909  1.8201  0.6603
   36MOL    H23 9193   4.656   6.219   1.444 -0.7558  0.0712  1.0825
   36MOL    H24 9194   4.502   6.244   1.374 -0.3406  0.3628  0.3622
   36MOL    H25 9195   4.660   6.451   1.360  2.2228  0.4109  0.2198
   36MOL    H26 9196   4.606   6.407   1.205 -0.9565  3.0258  1.9111
   36MOL    H27 9197   4.772   6.364   1.258 -0.5023 -0.5327 -2.4009
   36MOL    C28 9198   4.642   5.897   1.334  0.7444  0.0502 -0.8024
   36MOL    C29 9199   4.559   5.765   1.342 -0.1629  0.4576  0.1727
   36MOL    O30 9200   4.439   5.787   1.420 -0.1284 -0.6398  0.1729
   36MOL    C31 9201   4.319   5.723   1.386 -0.4386 -0.4325  0.8927
   36MOL    C32 9202   4.228   5.739   1.501  0.2450  0.0390 -0.1046
   36MOL    H33 9203   4.695   5.920   1.425  0.3459 -1.5533 -0.1449
   36MOL    H34 9204   4.723   5.880   1.263  2.5152 -0.2756  1.2599
   36MOL    H35 9205   4.541   5.729   1.241  1.7879 -2.7480  0.8919
   36MOL    H36 9206   4.342   5.618   1.370 -1.9340 -0.6185 -0.1384
   36MOL    H37 9207   4.275   5.759   1.294 -0.4984 -1.3683  0.5494
   36MOL    H38 9208   4.123   5.727   1.473  0.5783  0.6385 -1.6759
   36MOL    H39 9209   4.271   5.669   1.572 -0.0031  0.6833  0.6803
   36MOL    H40 9210   4.243   5.841   1.535 -0.2866  0.8486 -2.2012
   36MOL    C41 9211   4.637   5.647   1.410  0.1092  0.2072  0.3627
   36MOL    C42 9212   4.761   5.609   1.337 -0.3146 -0.5164  0.3207
   36MOL    O43 9213   4.783   5.472   1.372 -0.0467 -0.3196 -0.3333
   36MOL    C44 9214   4.742   5.376   1.276 -0.1614  0.1840 -0.4854
   36MOL    C45 9215   4.812   5.241   1.306  0.3856  0.0365 -0.3419
   36MOL    H46 9216   4.572   5.559   1.409 -1.7157  1.5460 -1.6015
   36MOL    H47 9217   4.659   5.665   1.516  1.5929  0.8163 -0.0334
   36MOL    H48 9218   4.739   5.615   1.230  0.5839  0.5675  0.1960
   36MOL    H49 9219   4.770   5.402   1.173  0.9180  0.4296 -0.1413
   36MOL    H50 9220   4.635   5.361   1.283 -0.4583  2.3625  0.0679
   36MOL    H51 9221   4.775   5.172   1.231  0.7255  0.6467 -1.0791
   36MOL    H52 9222   4.919   5.252   1.291  0.5040 -0.0326  0.4389
   36MOL    H53 9223   4.799   5.208   1.409  3.3359 -0.6960 -0.1618
   36MOL    C54 9224   4.884   5.677   1.392 -0.3364 -0.0604 -0.0522
   36MOL    C55 9225   5.003   5.645   1.313 -0.1993 -0.3184  0.5458
   36MOL    O56 9226   5.114   5.635   1.400  0.1707 -0.0902 -0.1092
   36MOL    C57 9227   5.143   5.507   1.446  0.2948 -0.2694 -0.0013
   36MOL    C58 9228   5.267   5.519   1.537  0.5145 -0.4000  0.4729
   36MOL    H59 9229   4.899   5.636   1.492 -1.2723  1.0433  0.5625
   36MOL    H60 9230   4.874   5.784   1.411 -0.5746 -0.0525 -0.2175
   36MOL    H61 9231   4.999   5.557   1.249  0.1560 -1.3501  1.9297
   36MOL    H62 9232   5.178   5.446   1.363 -3.2592  0.2724 -1.9860
   36MOL    H63 9233   5.057   5.465   1.499  0.1716  0.0504  0.0546
   36MOL    H64 9234   5.332   5.432   1.534  2.1871  0.7894  1.2368
   36MOL    H65 9235   5.332   5.599   1.503  0.1637  0.1204  1.0131
   36MOL    H66 9236   5.240   5.527   1.643 -1.8611 -3.2112  0.1289
   36MOL    C67 9237   5.031   5.760   1.208  0.2223  0.2691 -0.5989
   36MOL    C68 9238   5.168   5.766   1.136 -0.1932  0.4969 -0.2467
   36MOL    O69 9239   5.172   5.879   1.055  0.2916 -0.0215  0.2135
   36MOL    C70 9240   5.203   6.002   1.113  0.0979 -0.7680 -0.2932
   36MOL    C71 9241   5.102   6.113   1.073 -0.6421  0.1007  0.8932
   36MOL    H72 9242   5.025   5.855   1.262 -0.3699 -1.2114  2.0583
   36MOL    H73 9243   4.951   5.765   1.134 -0.0166 -2.9800 -0.6269
   36MOL    H74 9244   5.255   5.774   1.201  0.2846 -2.0288 -0.5093
   36MOL    H75 9245   5.300   6.039   1.080 -0.6707 -0.0582 -1.7952
   36MOL    H76 9246   5.205   6.009   1.222 -2.4988  0.7815 -0.3082
   36MOL    H77 9247   5.083   6.129   0.967  0.3033 -0.9414  0.5551
   36MOL    H78 9248   5.009   6.084   1.122 -0.6019  1.5562  1.8578
   36MOL    H79 9249   5.133   6.210   1.110  1.1159  0.8862 -2.4054
   36MOL    C80 9250   5.202   5.639   1.052 -0.2291 -0.0888 -0.0110
   36MOL    C81 9251   5.356   5.616   1.055 -0.3735 -0.5127 -0.5789
   36MOL    O82 9252   5.400   5.599   0.918  0.1412  0.7618 -0.2507
   36MOL    C83 9253   5.445   5.722   0.861 -0.5453  0.2174  0.0272
   36MOL    C84 9254   5.596   5.733   0.893 -0.0207  0.6319  0.1016
   36MOL    H85 9255   5.170   5.646   0.948 -1.5490 -1.3898  0.3065
   36MOL    H86 9256   5.151   5.553   1.093 -1.3552 -0.4019 -2.0063
   36MOL    H87 9257   5.412   5.702   1.091 -0.3512 -1.4256  1.6086
   36MOL    H88 9258   5.384   5.803   0.901 -0.1134  0.0900  0.9739
   36MOL    H89 9259   5.431   5.722   0.753  3.0281 -1.5801 -0.5208
   36MOL    H90 9260   5.621   5.722   0.999 -0.3570  1.0507  0.2292
   36MOL    H91 9261   5.656   5.660   0.840  0.4338  2.0543 -1.3933
   36MOL    H92 9262   5.630   5.833   0.865  0.1038  0.2257 -1.2075
   36MOL    C93 9263   5.390   5.493   1.142  0.3323  0.3253 -0.2425
   36MOL    C94 9264   5.542   5.464   1.164 -0.3997  0.0994 -0.0129
   36MOL    O95 9265   5.558   5.337   1.233  0.2653  0.1602 -0.2435
   36MOL    C96 9266   5.537   5.222   1.147 -0.2670 -0.1893 -0.0989
   36MOL    C97 9267   5.482   5.106   1.234  0.1348 -0.5821 -0.8131
   36MOL    H98 9268   5.328   5.412   1.103 -1.1149  0.9987  0.6303
   36MOL    H99 9269   5.355   5.512   1.243  3.2458  1.6794  0.5503
   36MOL   H100 9270   5.596   5.452   1.070  2.8589 -1.3829  2.0008
   36MOL   H101 9271   5.637   5.208   1.107  0.6763  0.7157  1.8804
   36MOL   H102 9272   5.476   5.244   1.060 -1.6711 -1.3613  0.5666
   36MOL   H103 9273   5.394   5.128   1.294  0.4214  0.7249 -0.8506
   36MOL   H104 9274   5.464   5.014   1.180  1.0376 -0.2900 -1.6269
   36MOL   H105 9275   5.555   5.080   1.312  1.6849  3.4037 -0.7774
   36MOL   C106 9276   5.603   5.564   1.262 -0.4423  0.3190 -0.6575
   36MOL   C107 9277   5.758   5.538   1.290  0.8305  0.2368 -0.2065
   36MOL   O108 9278   5.798   5.614   1.405 -0.1133 -0.2586 -0.4208
   36MOL   C109 9279   5.761   5.553   1.535 -0.0550 -0.1751 -0.3936
   36MOL   C110 9280   5.786   5.646   1.649 -0.5417 -0.7373  0.1385
   36MOL   H111 9281   5.541   5.560   1.351 -1.5745  1.0059 -1.3980
   36MOL   H112 9282   5.590   5.661   1.215  1.4972  0.1694 -1.5566
   36MOL   H113 9283   5.765   5.432   1.316 -0.2187  0.4225  0.8722
   36MOL   H114 9284   5.806   5.455   1.552 -0.3859  0.0145  1.7405
   36MOL   H115 9285   5.654   5.530   1.535 -0.3684  1.1731  1.3026
   36MOL   H116 9286   5.890   5.679   1.651 -0.3176 -1.5060  2.3394
   36MOL   H117 9287   5.723   5.734   1.640  0.8747  0.3250  0.3801
   36MOL   H118 9288   5.778   5.601   1.748  0.7643 -0.4580  0.3917
   36MOL   C119 9289   5.853   5.574   1.174 -0.1617  0.2239 -0.6846
   36MOL   C120 9290   5.997   5.552   1.211  0.2519  0.5828  0.6437
   36MOL   O121 9291   6.070   5.580   1.095 -0.6275  0.1190 -0.2048
   36MOL   C122 9292   6.196   5.649   1.116  0.1394 -0.0085 -0.2921
   36MOL   C123 9293   6.249   5.688   0.978  0.9216  0.3150  0.0553
   36MOL   H124 9294   5.829   5.677   1.146  0.2644  0.1470 -1.3322
   36MOL   H125 9295   5.823   5.527   1.081 -2.0171  0.5468 -0.2795
   36MOL   H126 9296   6.024   5.626   1.286  0.5289 -2.7331  3.9615
   36MOL   H127 9297   6.259   5.575   1.167  0.9362  2.0800  1.8234
   36MOL   H128 9298   6.185   5.731   1.186  0.7946 -1.1534  1.1978
   36MOL   H129 9299   6.354   5.708   0.999  0.9771 -2.6209  2.8632
   36MOL   H130 9300   6.238   5.617   0.897 -0.9515 -0.0463  0.5904
   36MOL   H131 9301   6.199   5.774   0.933 -0.1312  0.2676  1.1032
   36MOL   C132 9302   6.046   5.415   1.268 -0.2213  0.1612  0.8071
   36MOL   C133 9303   6.010   5.292   1.187 -0.0466  0.3333  0.5959
   36MOL   O134 9304   6.029   5.181   1.276  0.0234  0.2913  0.3467
   36MOL   C135 9305   5.919   5.124   1.330 -0.0935  0.3584  0.0800
   36MOL   C136 9306   5.968   4.995   1.395 -0.0756  0.1849 -0.3977
   36MOL   H137 9307   6.011   5.409   1.371  0.4406 -0.4565  1.0013
   36MOL   H138 9308   6.152   5.409   1.295  0.1274  1.5054 -0.1574
   36MOL   H139 9309   5.907   5.308   1.155  0.7375  2.4196 -0.9603
   36MOL   H140 9310   5.842   5.098   1.257 -0.4407  3.1031 -0.5791
   36MOL   H141 9311   5.874   5.192   1.403 -2.6473 -0.0800 -1.0398
   36MOL   H142 9312   5.886   4.929   1.421  1.0297 -1.0015  0.1354
   36MOL   H143 9313   6.032   4.941   1.325  0.3969  0.3833 -0.1146
   36MOL   H144 9314   6.034   5.025   1.476 -0.3327  0.6049 -0.3432
   36MOL   C145 9315   6.096   5.279   1.059 -0.4604  0.7006 -0.2499
   36MOL   C146 9316   6.076   5.144   0.980 -0.6004 -0.0592 -0.3985
   36MOL   O147 9317   6.179   5.137   0.883 -0.0924  0.2328 -0.1889
   36MOL   C148 9318   6.291   5.052   0.922  0.1316  0.5492 -0.0352
   36MOL   C149 9319   6.396   5.041   0.811 -0.2892 -0.4518  0.0277
   36MOL   H150 9320   6.199   5.274   1.094 -0.9335 -1.6439  0.8870
   36MOL   H151 9321   6.098   5.356   0.981 -0.6412 -1.9173 -2.9291
   36MOL   H152 9322   6.076   5.056   1.044  0.5033  0.4647  0.3343
   36MOL   H153 9323   6.252   4.955   0.953  1.4451 -0.1852 -0.6086
   36MOL   H154 9324   6.355   5.081   1.006 -0.3568 -0.6494  0.7599
   36MOL   H155 9325   6.450   5.132   0.786  0.1624 -0.3689  1.3011
   36MOL   H156 9326   6.471   4.965   0.835  1.2819  0.2937 -2.3385
   36MOL   H157 9327   6.349   5.004   0.720  1.6592  0.4035 -1.3730
   36MOL   C158 9328   5.947   5.140   0.904 -0.2692 -0.7973 -0.3513
   36MOL   C159 9329   5.931   5.015   0.815  0.0395  0.0369  0.1278
   36MOL   O160 9330   5.867   5.043   0.685  0.3630 -0.2597  0.3740
   36MOL   C161 9331   5.953   5.100   0.589  0.2931 -0.6411 -0.1607
   36MOL   C162 9332   5.866   5.164   0.476 -0.3146  0.9507 -0.8722
   36MOL   H163 9333   5.935   5.232   0.846 -1.3999 -2.3173 -2.5776
   36MOL   H164 9334   5.864   5.150   0.975 -1.0693 -1.1163 -1.2296
   36MOL   H165 9335   6.030   4.982   0.785  0.5657  1.0720  0.7192
   36MOL   H166 9336   6.012   5.021   0.543 -2.2597 -1.5545 -1.9928
   36MOL   H167 9337   6.012   5.178   0.637 -0.8950 -0.3208  0.8131
   36MOL   H168 9338   5.941   5.216   0.416 -0.5968  2.3352 -0.0394
   36MOL   H169 9339   5.815   5.082   0.425  0.9098 -0.7536  0.5804
   36MOL   H170 9340   5.802   5.230   0.534 -1.2123 -2.5545  2.3719
   36MOL   C171 9341   5.856   4.900   0.883 -0.8825  1.0065 -0.0136
   36MOL   C172 9342   5.708   4.903   0.929 -0.0588 -0.0259 -0.5180
   36MOL   O173 9343   5.679   4.786   1.013 -0.3046  0.3164  0.1736
   36MOL   C174 9344   5.720   4.810   1.146  0.5856 -0.1336 -0.0223
   36MOL   C175 9345   5.692   4.674   1.215 -0.3634  0.3390 -0.4437
   36MOL   H176 9346   5.915   4.880   0.973 -1.8369  1.7539  0.7988
   36MOL   H177 9347   5.883   4.816   0.819 -1.3072  2.6010 -2.3181
   36MOL   H178 9348   5.680   4.991   0.986 -3.1770 -1.7914  0.8310
   36MOL   H179 9349   5.672   4.892   1.201  1.4056 -0.8754  1.8423
   36MOL   H180 9350   5.826   4.833   1.154 -0.1593  2.4619  3.7354
   36MOL   H181 9351   5.757   4.596   1.176 -0.1724  0.5420 -0.5348
   36MOL   H182 9352   5.713   4.689   1.321 -0.1406 -1.7810 -0.1567
   36MOL   H183 9353   5.586   4.653   1.206 -0.6400  1.8870 -0.8172
   36MOL   C184 9354   5.619   4.886   0.805  0.5866 -0.5126  0.4010
   36MOL   C185 9355   5.457   4.878   0.825 -0.5536 -0.1332 -0.8461
   36MOL   O186 9356   5.391   4.860   0.700  0.8462 -0.3176  0.0990
   36MOL   C187 9357   5.388   4.729   0.655 -0.3065 -0.0153  0.3759
   36MOL   C188 9358   5.278   4.715   0.555 -0.4334  0.1391 -0.5604
   36MOL   H189 9359   5.656   4.798   0.753  0.4283 -1.3667  1.7100
   36MOL   H190 9360   5.633   4.973   0.742  1.0108 -0.4829  0.5382
   36MOL   H191 9361   5.425   4.794   0.887 -1.5811 -0.1342 -1.3693
   36MOL   H192 9362   5.362   4.663   0.738  0.5693 -3.1337 -1.7430
   36MOL   H193 9363   5.485   4.691   0.623 -0.6050 -1.5460  1.2649
   36MOL   H194 9364   5.299   4.763   0.459  1.0153  2.2398  0.7559
   36MOL   H195 9365   5.240   4.615   0.533  0.3611 -0.4240  0.5828
   36MOL   H196 9366   5.190   4.765   0.596 -0.5381 -0.1537 -0.4295
   36MOL   C197 9367   5.392   5.006   0.871  0.4848 -0.6487 -0.3085
   36MOL   C198 9368   5.245   4.991   0.918  0.9430 -0.4649  0.1701
   36MOL   O199 9369   5.186   5.120   0.939 -0.4754  0.4969 -0.7864
   36MOL   C200 9370   5.155   5.196   0.826  0.1287  0.0253  0.2022
   36MOL   C201 9371   5.171   5.343   0.853 -0.3567  0.4091 -0.0757
   36MOL   H202 9372   5.410   5.081   0.794 -1.2103  0.8733  0.7286
   36MOL   H203 9373   5.447   5.042   0.959  0.0900 -2.2576  0.6173
   36MOL   H204 9374   5.190   4.951   0.833 -0.6712  0.5239  0.7432
   36MOL   H205 9375   5.055   5.173   0.792  0.1437  0.6023 -0.2402
   36MOL   H206 9376   5.220   5.180   0.740  0.7144  0.4885  0.5446
   36MOL   H207 9377   5.131   5.389   0.763  0.4844 -2.0438 -1.7672
   36MOL   H208 9378   5.109   5.374   0.937 -2.7145  0.8583 -1.9244
   36MOL   H209 9379   5.277   5.361   0.866  0.0747 -2.4047  0.6978
   36MOL   C210 9380   5.229   4.899   1.042  0.0471 -0.1197  0.2068
   36MOL   C211 9381   5.081   4.854   1.070 -0.4405  0.2459 -0.4394
   36MOL   O212 9382   5.081   4.800   1.202  0.2028  0.3781 -0.3637
   36MOL   C213 9383   5.025   4.889   1.304 -0.1293  0.1303  0.5339
   36MOL   C214 9384   5.025   4.816   1.431  0.5955  0.1136 -0.1040
   36MOL   H215 9385   5.269   4.944   1.133 -1.5369  1.2232  0.2783
   36MOL   H216 9386   5.272   4.800   1.033  0.7130  0.3077 -1.4427
   36MOL   H217 9387   5.010   4.935   1.056 -2.5399 -1.6424 -0.8138
   36MOL   H218 9388   4.923   4.924   1.284  0.2130  1.1448  0.5150
   36MOL   H219 9389   5.088   4.976   1.321  0.8136 -0.5268  0.4237
   36MOL   H220 9390   5.008   4.874   1.522 -1.5284  0.1609 -0.5020
   36MOL   H221 9391   4.948   4.740   1.426  0.4847  0.3025 -1.4432
   36MOL   H222 9392   5.119   4.764   1.448 -0.3734 -0.9555  2.0755
   36MOL   C223 9393   5.052   4.742   0.967 -0.3606 -0.1515 -0.8137
   36MOL   C224 9394   4.910   4.697   0.976  0.1746 -0.0715  0.6002
   36MOL   O225 9395   4.892   4.593   0.874 -0.4834 -0.1728  0.0582
   36MOL   C226 9396   4.911   4.464   0.922  0.4198  0.4418  0.1367
   36MOL   C227 9397   4.789   4.422   1.001  0.1150 -0.2316  0.2767
   36MOL   H228 9398   5.119   4.656   0.969 -0.2545 -0.0679 -0.6629
   36MOL   H229 9399   5.059   4.773   0.863 -0.0890  0.5822 -0.5835
   36MOL   H230 9400   4.886   4.647   1.070 -0.6509  1.0341  0.9909
   36MOL   H231 9401   5.004   4.450   0.977  0.7218 -0.4631 -0.6080
   36MOL   H232 9402   4.914   4.396   0.838 -0.9055 -2.4926  2.3646
   36MOL   H233 9403   4.697   4.429   0.943 -0.4240  2.4650  1.4111
   36MOL   H234 9404   4.795   4.316   1.027  1.5309  0.0132  0.9978
   36MOL   H235 9405   4.781   4.463   1.101  0.1385  0.9448 -0.1968
   36MOL   C236 9406   4.805   4.813   0.955  0.5187 -0.6119  0.0007
   36MOL   C237 9407   4.819   4.905   0.837 -0.1649  0.2624 -0.2628
   36MOL   O238 9408   4.718   5.006   0.847 -0.0432  0.0515 -0.3838
   36MOL   C239 9409   4.749   5.126   0.918 -0.0472 -0.1520 -0.1522
   36MOL   C240 9410   4.630   5.217   0.928  0.3413  0.1915  0.3500
   36MOL   H241 9411   4.802   4.865   1.051 -1.1225 -2.0598  0.7565
   36MOL   H242 9412   4.710   4.760   0.951  0.0453  0.2920 -1.0758
   36MOL   H243 9413   4.917   4.951   0.840 -0.2568  0.3613  2.7140
   36MOL   H244 9414   4.821   5.182   0.858 -1.1143 -0.4459 -1.7430
   36MOL   H245 9415   4.785   5.098   1.017  0.4728 -1.2085 -0.6335
   36MOL   H246 9416   4.648   5.298   0.998 -0.7320  2.0448 -1.4419
   36MOL   H247 9417   4.584   5.252   0.835  1.0231  0.9975  0.3094
   36MOL   H248 9418   4.554   5.155   0.975 -1.2654  2.1005  0.3482
   36MOL   C249 9419   4.803   4.829   0.700 -0.5705 -0.8358 -0.4813
   36MOL   C250 9420   4.817   4.910   0.573 -0.3255 -0.4100  0.3669
   36MOL   O251 9421   4.947   4.970   0.572 -0.0177 -0.0845  0.0715
   36MOL   C252 9422   4.960   5.068   0.476 -0.7753  0.0589 -0.0759
   36MOL   C253 9423   5.070   5.172   0.503 -0.1505  0.1581 -0.2919
   36MOL   H254 9424   4.709   4.775   0.698 -1.1698  0.2018 -0.4489
   36MOL   H255 9425   4.890   4.763   0.690  0.5121  0.4744  0.0606
   36MOL   H256 9426   4.803   4.849   0.483  1.2683  1.0345 -0.8895
   36MOL   H257 9427   4.869   5.122   0.448 -0.2307  2.0934  1.9773
   36MOL   H258 9428   4.981   5.015   0.382 -1.0225  1.4568 -0.9268
   36MOL   H259 9429   5.033   5.239   0.580  1.6161  1.6741 -0.7229
   36MOL   H260 9430   5.167   5.126   0.521  0.1986  0.2588 -1.8328
   36MOL   H261 9431   5.077   5.218   0.405  1.0696  0.3869 -0.1113
   36MOL   H262 9432   4.733   4.979   0.582 -0.9187 -1.2211  1.1312
   37MOL     C1 9433   4.230   3.323   7.480 -0.1770 -0.1810  0.1103
   37MOL     C2 9434   4.190   3.203   7.397  0.0018 -0.8154 -0.7283
   37MOL     O3 9435   4.100   3.125   7.462 -0.4647  0.1269 -0.2031
   37MOL     C4 9436   3.968   3.178   7.457 -0.4148 -0.8255 -0.5304
   37MOL     C5 9437   3.884   3.067   7.524 -0.0337  0.4293  0.4953
   37MOL     H6 9438   4.300   3.384   7.423  3.6003 -2.4597  2.1082
   37MOL     H7 9439   4.147   3.391   7.499  1.5782  2.3072 -0.8021
   37MOL     H8 9440   4.155   3.246   7.304  0.8278 -0.0602 -0.6982
   37MOL     H9 9441   3.923   3.180   7.358 -2.4054 -0.5007  0.3597
   37MOL    H10 9442   3.953   3.262   7.524  1.5034 -0.4185 -0.5793
   37MOL    H11 9443   3.953   3.016   7.593 -1.5697 -2.5678 -0.1164
   37MOL    H12 9444   3.808   3.128   7.572 -1.1250 -1.3711  1.1100
   37MOL    H13 9445   3.857   2.986   7.457 -0.5910  1.3563 -0.3991
   37MOL    H14 9446   4.273   3.303   7.578  1.0953  0.2028 -0.3542
   37MOL    C15 9447   4.306   3.103   7.372 -0.5901  0.0223 -0.6886
   37MOL    C16 9448   4.375   3.112   7.229 -0.3212 -0.2360  0.2338
   37MOL    O17 9449   4.468   3.002   7.226  0.2188  0.1438  0.2927
   37MOL    C18 9450   4.414   2.875   7.181 -0.6785  0.2011 -0.3913
   37MOL    C19 9451   4.520   2.764   7.189  0.7247 -0.0227  0.1126
   37MOL    H20 9452   4.272   3.001   7.389 -1.2714  0.6025  1.7113
   37MOL    H21 9453   4.381   3.117   7.451 -1.5184  0.1841  0.1755
   37MOL    H22 9454   4.290   3.103   7.160 -1.3632 -0.5996  1.5455
   37MOL    H23 9455   4.382   2.899   7.080 -2.6536  1.0852  0.4350
   37MOL    H24 9456   4.330   2.863   7.249 -0.0483  2.1533  0.7844
   37MOL    H25 9457   4.584   2.785   7.274  0.3768  2.0560 -0.1031
   37MOL    H26 9458   4.575   2.768   7.095  1.1348  0.2563  0.3652
   37MOL    H27 9459   4.466   2.670   7.201 -0.7284  0.3881 -2.6707
   37MOL    C28 9460   4.441   3.245   7.201  0.0228  0.7881  0.0014
   37MOL    C29 9461   4.488   3.264   7.059  0.4368  0.2625 -0.1946
   37MOL    O30 9462   4.582   3.368   7.054  0.0887 -0.3950  0.2832
   37MOL    C31 9463   4.717   3.321   7.062  0.2545 -0.7822 -0.5133
   37MOL    C32 9464   4.806   3.441   7.090 -0.2508 -0.6953 -0.5916
   37MOL    H33 9465   4.524   3.250   7.272 -0.5438  0.8314  0.6654
   37MOL    H34 9466   4.377   3.331   7.218  0.8855  1.8702 -2.1300
   37MOL    H35 9467   4.534   3.169   7.032  0.8575  0.8146 -1.4636
   37MOL    H36 9468   4.746   3.278   6.966 -0.4345 -0.9317 -0.6554
   37MOL    H37 9469   4.719   3.244   7.140 -2.0331  1.0960  1.4701
   37MOL    H38 9470   4.773   3.506   7.171 -1.6378 -0.3164 -1.4287
   37MOL    H39 9471   4.902   3.415   7.135 -1.1966 -2.0948  0.6765
   37MOL    H40 9472   4.810   3.511   7.007 -1.5311  1.5250  1.1732
   37MOL    C41 9473   4.371   3.304   6.965  0.0686  0.3689 -0.2295
   37MOL    C42 9474   4.394   3.283   6.807 -0.2216 -0.0640 -0.0303
   37MOL    O43 9475   4.274   3.311   6.729 -0.2636  0.0179  0.0405
   37MOL    C44 9476   4.233   3.445   6.724  0.7042  0.1979 -0.0466
   37MOL    C45 9477   4.094   3.455   6.661  0.4453 -1.0520 -0.0792
   37MOL    H46 9478   4.361   3.408   6.996  2.8843  0.5305  0.2027
   37MOL    H47 9479   4.276   3.256   6.986 -1.0972  1.5446 -2.5518
   37MOL    H48 9480   4.462   3.359   6.769 -0.2310  0.1226  0.3252
   37MOL    H49 9481   4.312   3.499   6.672  1.2553 -1.4154 -0.9162
   37MOL    H50 9482   4.234   3.487   6.825  1.0536 -1.5424  0.6880
   37MOL    H51 9483   4.071   3.560   6.642  1.1394 -0.1474  3.7444
   37MOL    H52 9484   4.077   3.404   6.566 -0.1608 -1.6119  0.3302
   37MOL    H53 9485   4.021   3.408   6.726 -1.9581  0.5199 -1.5462
   37MOL    C54 9486   4.439   3.139   6.765 -0.3583  0.4488  0.1698
   37MOL    C55 9487   4.451   3.101   6.616 -0.4779 -0.1983 -0.0744
   37MOL    O56 9488   4.490   2.961   6.616  0.6433 -0.3464  0.0355
   37MOL    C57 9489   4.383   2.877   6.568  0.3658  0.3015  0.6324
   37MOL    C58 9490   4.447   2.735   6.572  0.1904  0.9092  0.2535
   37MOL    H59 9491   4.359   3.073   6.801 -0.0143  0.3496  0.7652
   37MOL    H60 9492   4.533   3.119   6.816 -0.6599 -0.2434  0.4698
   37MOL    H61 9493   4.354   3.127   6.574 -1.9282 -0.8743  2.7100
   37MOL    H62 9494   4.365   2.906   6.465 -1.9405 -1.3170  0.5282
   37MOL    H63 9495   4.291   2.886   6.625  1.2369 -2.4583  2.5650
   37MOL    H64 9496   4.472   2.723   6.677  2.1380  0.2494 -0.2650
   37MOL    H65 9497   4.372   2.658   6.550  2.6267 -1.2623 -0.7634
   37MOL    H66 9498   4.540   2.728   6.516 -0.1877 -1.1578 -0.1609
   37MOL    C67 9499   4.572   3.160   6.541 -0.2778 -0.2342  0.0283
   37MOL    C68 9500   4.592   3.129   6.391 -0.1921 -0.1623 -0.8528
   37MOL    O69 9501   4.722   3.161   6.342  0.4418 -0.0246  0.2173
   37MOL    C70 9502   4.812   3.051   6.351 -0.0140  1.0175  0.6675
   37MOL    C71 9503   4.936   3.100   6.280  0.0642  0.2269  0.1494
   37MOL    H72 9504   4.656   3.113   6.592  0.4412 -0.1975 -1.0902
   37MOL    H73 9505   4.565   3.268   6.549  3.3019  0.0831 -0.2552
   37MOL    H74 9506   4.565   3.024   6.385 -1.9700  0.2850 -1.0489
   37MOL    H75 9507   4.775   2.958   6.308  1.9077  0.4250  0.2676
   37MOL    H76 9508   4.843   3.034   6.454 -2.5399 -1.9752  1.0194
   37MOL    H77 9509   4.925   3.130   6.176  1.2825  0.5365  0.1074
   37MOL    H78 9510   4.997   3.166   6.342  1.2035 -1.8912  1.3187
   37MOL    H79 9511   5.000   3.017   6.252  0.1422  0.1309  0.5988
   37MOL    C80 9512   4.484   3.202   6.303 -0.4118  0.0033  0.5351
   37MOL    C81 9513   4.475   3.132   6.154 -0.1791 -0.6958 -0.3149
   37MOL    O82 9514   4.581   3.191   6.084 -0.3365 -0.9463  0.3579
   37MOL    C83 9515   4.669   3.114   6.011 -0.8656  0.8310 -0.3536
   37MOL    C84 9516   4.765   3.207   5.941  0.4514  1.0852  0.6024
   37MOL    H85 9517   4.513   3.306   6.294 -2.9550  0.7137  0.0327
   37MOL    H86 9518   4.388   3.206   6.355  0.4215 -1.1970  2.2138
   37MOL    H87 9519   4.494   3.026   6.169 -0.9979 -0.8177 -0.1126
   37MOL    H88 9520   4.610   3.060   5.937 -1.2194  0.9493 -0.1567
   37MOL    H89 9521   4.708   3.036   6.077  0.6608 -0.0663 -2.2635
   37MOL    H90 9522   4.719   3.287   5.881 -1.3613  0.0392  0.5603
   37MOL    H91 9523   4.847   3.257   5.992  0.5719  0.8956  0.5934
   37MOL    H92 9524   4.821   3.148   5.868 -0.4727  2.5115 -1.3350
   37MOL    C93 9525   4.342   3.151   6.073 -0.0767  0.2491 -0.2370
   37MOL    C94 9526   4.221   3.065   6.119  0.2827  0.2896  0.3579
   37MOL    O95 9527   4.194   3.082   6.260 -0.5815 -0.0795  0.0154
   37MOL    C96 9528   4.062   3.097   6.310 -0.4814  0.6436 -0.1205
   37MOL    C97 9529   4.086   3.128   6.461  0.2806  0.0759 -0.4493
   37MOL    H98 9530   4.350   3.130   5.966  1.3946 -3.2032  0.4739
   37MOL    H99 9531   4.324   3.258   6.075 -0.7683  0.1040  1.5682
   37MOL   H100 9532   4.135   3.104   6.064  0.4767 -1.1182 -0.9722
   37MOL   H101 9533   3.991   3.015   6.304 -0.5106  0.5830  0.9065
   37MOL   H102 9534   4.019   3.182   6.257 -0.4407  2.3659  2.5097
   37MOL   H103 9535   3.998   3.169   6.510  0.8635 -2.2114  2.6580
   37MOL   H104 9536   4.128   3.055   6.529  0.5744 -0.1693 -0.8922
   37MOL   H105 9537   4.155   3.212   6.469  0.3446 -0.1091  1.0043
   37MOL   C106 9538   4.227   2.912   6.086 -0.1349  0.6112  0.3236
   37MOL   C107 9539   4.197   2.887   5.939  0.2679  0.5745 -0.2719
   37MOL   O108 9540   4.105   2.778   5.924 -0.3236  0.1576 -0.6430
   37MOL   C109 9541   3.969   2.806   5.967  0.5840  0.5511 -0.7214
   37MOL   C110 9542   3.864   2.702   5.920 -0.7482  0.6180  0.4832
   37MOL   H111 9543   4.148   2.870   6.148  0.1979 -0.3749  0.0827
   37MOL   H112 9544   4.324   2.867   6.109 -0.0060  0.0743 -1.2440
   37MOL   H113 9545   4.157   2.980   5.899 -1.6392  0.6571  1.7006
   37MOL   H114 9546   3.941   2.904   5.928 -2.8428 -0.5686 -1.3013
   37MOL   H115 9547   3.967   2.802   6.076  0.0981 -2.0916 -0.7986
   37MOL   H116 9548   3.874   2.617   5.987 -0.9023 -0.8527 -1.3011
   37MOL   H117 9549   3.762   2.738   5.932 -0.5307  2.1864 -1.9679
   37MOL   H118 9550   3.876   2.663   5.818 -2.8266  0.2865  0.3394
   37MOL   C119 9551   4.326   2.844   5.855 -0.6252  0.5243  0.3090
   37MOL   C120 9552   4.306   2.857   5.698  0.1207 -0.0083 -1.0540
   37MOL   O121 9553   4.418   2.805   5.639 -0.0323  0.1262 -0.5536
   37MOL   C122 9554   4.418   2.671   5.603  0.2802 -0.0019  0.3252
   37MOL   C123 9555   4.561   2.621   5.552 -0.8174 -0.3808 -0.0285
   37MOL   H124 9556   4.344   2.738   5.871 -2.4269  0.5327  2.7456
   37MOL   H125 9557   4.416   2.901   5.878 -0.3452  0.8113 -1.4255
   37MOL   H126 9558   4.219   2.798   5.666  0.3975 -1.0996  0.1673
   37MOL   H127 9559   4.339   2.668   5.528 -0.0086 -0.8295  0.6520
   37MOL   H128 9560   4.377   2.608   5.682  0.1815  0.3117  0.5250
   37MOL   H129 9561   4.639   2.604   5.626 -1.7559  2.2838  1.6481
   37MOL   H130 9562   4.556   2.524   5.504 -3.9942 -1.2773  1.8999
   37MOL   H131 9563   4.610   2.686   5.480  1.0012 -1.0146  0.6038
   37MOL   C132 9564   4.289   3.004   5.643 -0.2439 -0.2875  0.3382
   37MOL   C133 9565   4.409   3.102   5.659 -0.3939 -0.0346  0.1717
   37MOL   O134 9566   4.350   3.232   5.640  0.4903  0.3145  0.3520
   37MOL   C135 9567   4.380   3.335   5.733  0.0400  0.4179  0.0146
   37MOL   C136 9568   4.308   3.462   5.688  0.5186 -0.3957 -0.0646
   37MOL   H137 9569   4.205   3.056   5.689 -0.5193  0.2023 -0.6859
   37MOL   H138 9570   4.257   3.003   5.539 -0.4745 -2.4904  0.4255
   37MOL   H139 9571   4.443   3.095   5.762  1.2699 -0.1903 -0.3703
   37MOL   H140 9572   4.489   3.344   5.733 -0.1136  2.9158 -1.5836
   37MOL   H141 9573   4.339   3.304   5.829 -0.5699 -0.9816 -0.6843
   37MOL   H142 9574   4.202   3.439   5.692  0.3907  0.1288 -0.3885
   37MOL   H143 9575   4.338   3.545   5.752  0.1122  0.2358 -0.6872
   37MOL   H144 9576   4.340   3.474   5.585  0.4236  0.1943 -0.0255
   37MOL   C145 9577   4.520   3.083   5.556 -0.2337  0.5884 -0.2858
   37MOL   C146 9578   4.491   3.105   5.408  0.0252  0.0302  0.2040
   37MOL   O147 9579   4.575   3.031   5.318 -0.0279 -0.0906 -0.0028
   37MOL   C148 9580   4.528   2.901   5.284  0.0427 -0.6269 -0.9642
   37MOL   C149 9581   4.633   2.827   5.209  0.1377 -0.0761 -0.2318
   37MOL   H150 9582   4.562   2.984   5.572 -0.5961  0.1426 -2.0310
   37MOL   H151 9583   4.601   3.152   5.580 -0.1431  1.5617 -3.2610
   37MOL   H152 9584   4.385   3.083   5.392  0.4264 -1.4342 -0.5155
   37MOL   H153 9585   4.437   2.908   5.225  1.5209  0.4800 -3.1668
   37MOL   H154 9586   4.503   2.853   5.379  0.9473 -1.1343 -0.9752
   37MOL   H155 9587   4.678   2.901   5.143 -2.7898 -0.2746 -2.5392
   37MOL   H156 9588   4.720   2.788   5.263 -0.0580 -2.5559 -1.6538
   37MOL   H157 9589   4.595   2.743   5.151  1.0547  0.1330 -1.1576
   37MOL   C158 9590   4.497   3.252   5.347 -0.4693 -0.7017  0.1902
   37MOL   C159 9591   4.637   3.297   5.313 -0.6357  0.4809  0.5197
   37MOL   O160 9592   4.647   3.439   5.353  0.3332 -0.1782  0.4601
   37MOL   C161 9593   4.686   3.466   5.488 -0.2438 -0.6609  0.1414
   37MOL   C162 9594   4.662   3.616   5.527  0.1890  0.4149  0.4948
   37MOL   H163 9595   4.460   3.324   5.420  1.9718  0.4517  0.3620
   37MOL   H164 9596   4.433   3.247   5.259 -0.8704  0.7697  0.3980
   37MOL   H165 9597   4.719   3.246   5.364 -0.8976 -2.1038 -1.5314
   37MOL   H166 9598   4.786   3.427   5.506 -0.6830 -1.2736  1.3092
   37MOL   H167 9599   4.616   3.416   5.554  1.0484 -0.0762  1.9875
   37MOL   H168 9600   4.681   3.631   5.633 -0.0872 -0.4916  0.6803
   37MOL   H169 9601   4.734   3.673   5.469  2.5519  1.2025  4.0325
   37MOL   H170 9602   4.563   3.650   5.499 -0.8248 -2.8582 -0.1018
   37MOL   C171 9603   4.672   3.297   5.165 -0.0468  0.2729  0.1950
   37MOL   C172 9604   4.820   3.339   5.129 -0.5894 -0.5879 -0.4348
   37MOL   O173 9605   4.840   3.379   4.997 -0.2202 -0.0067 -0.5119
   37MOL   C174 9606   4.794   3.505   4.953 -0.4615  0.3710 -0.1969
   37MOL   C175 9607   4.898   3.606   4.982  1.3392 -0.0248 -0.1176
   37MOL   H176 9608   4.601   3.367   5.122  0.0503  0.0994 -0.2505
   37MOL   H177 9609   4.645   3.204   5.114 -0.3972  0.3633  0.2112
   37MOL   H178 9610   4.837   3.428   5.190 -2.1505 -1.6932  1.6809
   37MOL   H179 9611   4.701   3.516   5.008 -1.1654 -0.4918 -1.1968
   37MOL   H180 9612   4.766   3.489   4.849 -3.2490 -0.4189  0.6120
   37MOL   H181 9613   4.996   3.570   4.950  1.0750 -2.0714  1.2470
   37MOL   H182 9614   4.866   3.694   4.926 -1.3581 -1.0250 -0.2268
   37MOL   H183 9615   4.898   3.647   5.083  0.0698  2.5196 -1.1007
   37MOL   C184 9616   4.922   3.228   5.170  0.4288 -0.2420  0.9454
   37MOL   C185 9617   5.065   3.258   5.117 -0.1572  0.4796  0.5572
   37MOL   O186 9618   5.136   3.142   5.152  0.4952 -0.1973  0.3787
   37MOL   C187 9619   5.202   3.079   5.048  0.3415  0.4776  0.2488
   37MOL   C188 9620   5.270   2.961   5.109 -0.3962 -0.0148  0.1118
   37MOL   H189 9621   4.886   3.135   5.126  2.5816 -1.4099  1.5644
   37MOL   H190 9622   4.926   3.219   5.279  3.0314 -1.1707  0.8222
   37MOL   H191 9623   5.060   3.279   5.010 -1.0164 -0.8408  0.3203
   37MOL   H192 9624   5.274   3.146   5.002  0.9837 -0.7703 -0.5879
   37MOL   H193 9625   5.135   3.048   4.968  2.7102 -1.3235 -1.0775
   37MOL   H194 9626   5.204   2.889   5.156  0.5297 -0.9399  0.0280
   37MOL   H195 9627   5.334   2.914   5.033 -0.0739 -0.6867  0.7926
   37MOL   H196 9628   5.342   2.997   5.182 -0.8468  0.2291  0.4318
   37MOL   C197 9629   5.129   3.372   5.197 -0.3334 -0.0547 -0.0416
   37MOL   C198 9630   5.274   3.420   5.173 -0.4717 -0.2161  0.0183
   37MOL   O199 9631   5.319   3.504   5.281 -0.2719  0.5019 -0.6597
   37MOL   C200 9632   5.396   3.432   5.381  0.3539 -0.6691  0.2105
   37MOL   C201 9633   5.551   3.427   5.360 -0.2016  0.1408 -0.1151
   37MOL   H202 9634   5.119   3.352   5.303 -1.4844 -1.7312 -0.4433
   37MOL   H203 9635   5.069   3.462   5.186 -1.1017 -0.7432 -1.6307
   37MOL   H204 9636   5.334   3.330   5.159 -1.7093 -1.1526  0.5305
   37MOL   H205 9637   5.359   3.330   5.383  0.0515 -0.5425  3.3107
   37MOL   H206 9638   5.375   3.491   5.470  2.3826  2.3576 -1.2293
   37MOL   H207 9639   5.597   3.371   5.279 -1.1844  0.5345 -0.9448
   37MOL   H208 9640   5.601   3.523   5.371  0.2545 -0.0736 -0.3178
   37MOL   H209 9641   5.591   3.369   5.443 -0.1445 -1.4062 -1.1987
   37MOL   C210 9642   5.288   3.516   5.055  0.5120  0.0109  0.4675
   37MOL   C211 9643   5.432   3.539   5.012 -0.2006 -0.4745 -0.1965
   37MOL   O212 9644   5.463   3.673   4.983 -0.4362  0.0035  0.4746
   37MOL   C213 9645   5.497   3.748   5.102 -0.1496  0.7947 -0.5652
   37MOL   C214 9646   5.575   3.874   5.079  1.0719 -0.1097 -0.6765
   37MOL   H215 9647   5.229   3.607   5.065 -0.3348 -0.4258 -0.4857
   37MOL   H216 9648   5.244   3.459   4.973 -0.8454  1.9718 -0.2104
   37MOL   H217 9649   5.510   3.501   5.078  1.1993  1.7806 -0.4984
   37MOL   H218 9650   5.552   3.686   5.173  1.5070  0.1927 -2.3513
   37MOL   H219 9651   5.406   3.768   5.158 -0.8141 -1.0636 -0.9636
   37MOL   H220 9652   5.677   3.848   5.051  0.7675 -2.8840  0.6355
   37MOL   H221 9653   5.538   3.941   5.000  0.9367  0.2013 -0.3502
   37MOL   H222 9654   5.594   3.934   5.168  0.8302 -0.8964 -0.0870
   37MOL   C223 9655   5.459   3.479   4.876  0.3741  0.7750 -0.4389
   37MOL   C224 9656   5.468   3.323   4.870 -0.4962 -0.0776 -0.6280
   37MOL   O225 9657   5.586   3.295   4.949  0.7567 -0.3494  0.4034
   37MOL   C226 9658   5.573   3.170   5.007  0.0784  0.6298  0.0683
   37MOL   C227 9659   5.701   3.130   5.078 -0.2446 -0.6113  0.8178
   37MOL   H228 9660   5.555   3.513   4.836  0.9451  0.4304  0.6238
   37MOL   H229 9661   5.377   3.502   4.808  0.0053  1.8211  0.3440
   37MOL   H230 9662   5.376   3.280   4.908 -1.0145 -0.3957 -2.2068
   37MOL   H231 9663   5.543   3.096   4.933  1.0162 -0.5746  0.8691
   37MOL   H232 9664   5.494   3.172   5.082  0.6775 -2.1701  0.8478
   37MOL   H233 9665   5.691   3.037   5.135 -4.2857 -1.0531 -0.4707
   37MOL   H234 9666   5.785   3.122   5.009 -1.9511 -0.8491 -1.2810
   37MOL   H235 9667   5.730   3.206   5.150  0.2539 -1.2749  1.3334
   37MOL   C236 9668   5.495   3.267   4.727 -0.9466 -0.6192  0.5064
   37MOL   C237 9669   5.376   3.286   4.628  0.0385  0.6309  0.0659
   37MOL   O238 9670   5.265   3.230   4.697  0.4101 -0.2462  0.0014
   37MOL   C239 9671   5.136   3.273   4.652  0.0988  0.3986 -0.1741
   37MOL   C240 9672   5.024   3.190   4.712 -0.4095 -0.6282 -0.1931
   37MOL   H241 9673   5.514   3.160   4.725  2.2468 -0.0715 -1.0123
   37MOL   H242 9674   5.584   3.314   4.686  0.2047  0.5682  4.1139
   37MOL   H243 9675   5.357   3.393   4.626  0.0230  0.6880  2.0311
   37MOL   H244 9676   5.138   3.273   4.543  3.2503  0.5280 -0.1647
   37MOL   H245 9677   5.122   3.374   4.690 -0.9409 -0.1604  0.9339
   37MOL   H246 9678   5.039   3.091   4.670 -0.3855 -0.4098 -0.7086
   37MOL   H247 9679   5.000   3.196   4.818  0.3609 -0.8815 -0.0064
   37MOL   H248 9680   4.930   3.220   4.665  0.0585 -0.9251 -1.3346
   37MOL   C249 9681   5.394   3.239   4.482  0.5912  0.4441  0.1624
   37MOL   C250 9682   5.496   3.332   4.415  0.1225 -0.2074 -0.2154
   37MOL   O251 9683   5.506   3.314   4.274  0.3421  0.4666 -0.1123
   37MOL   C252 9684   5.411   3.399   4.207  0.8270  0.3286 -0.3206
   37MOL   C253 9685   5.417   3.346   4.066  0.2055 -0.7606 -0.4610
   37MOL   H254 9686   5.308   3.245   4.415  1.2198 -1.4078 -0.8405
   37MOL   H255 9687   5.423   3.140   4.448  2.0546  0.2101  2.0658
   37MOL   H256 9688   5.468   3.432   4.449 -2.8244 -1.8407  2.4610
   37MOL   H257 9689   5.442   3.503   4.210  0.4191  0.4537 -0.4014
   37MOL   H258 9690   5.307   3.382   4.235  1.1580 -0.7871  0.2590
   37MOL   H259 9691   5.328   3.372   4.008 -0.0607 -2.6330 -0.9267
   37MOL   H260 9692   5.500   3.389   4.010  0.4513  0.3056  0.7282
   37MOL   H261 9693   5.427   3.237   4.063  0.2721 -0.7268 -3.7728
   37MOL   H262 9694   5.595   3.327   4.460 -1.2798  0.3234  3.1253
   38MOL     C1 9695   4.195   6.507   4.679 -0.4639  0.3792  0.7048
   38MOL     C2 9696   4.150   6.404   4.569 -0.6890  0.3859 -0.2175
   38MOL     O3 9697   4.257   6.376   4.484  0.2710  0.2726  0.0582
   38MOL     C4 9698   4.272   6.242   4.443  0.0690 -0.4609 -0.2650
   38MOL     C5 9699   4.398   6.239   4.363 -0.1457 -0.0732 -0.4434
   38MOL     H6 9700   4.106   6.538   4.735 -0.4236  1.2700  0.2842
   38MOL     H7 9701   4.271   6.464   4.743  0.8253  2.1504  0.3862
   38MOL     H8 9702   4.119   6.311   4.618  0.9336 -1.7332 -3.1073
   38MOL     H9 9703   4.183   6.211   4.388 -0.5862 -1.6672  1.4459
   38MOL    H10 9704   4.284   6.170   4.524  2.0302  0.0777 -0.0543
   38MOL    H11 9705   4.401   6.314   4.284 -0.0992 -0.3310 -0.6862
   38MOL    H12 9706   4.482   6.273   4.424 -0.6724  0.8184 -0.1990
   38MOL    H13 9707   4.426   6.141   4.326 -1.1625 -0.5322 -0.0125
   38MOL    H14 9708   4.247   6.597   4.646  2.1822 -1.6101 -0.7137
   38MOL    C15 9709   4.023   6.444   4.504  0.4473  0.1840  0.1343
   38MOL    C16 9710   4.029   6.589   4.446  0.7882  1.1924  0.2799
   38MOL    O17 9711   3.902   6.647   4.413 -0.0503 -0.1473  0.1642
   38MOL    C18 9712   3.818   6.694   4.526 -0.0932  0.2530 -0.5599
   38MOL    C19 9713   3.680   6.737   4.479 -0.1830 -0.0969  0.6748
   38MOL    H20 9714   3.938   6.437   4.572  0.1348 -0.0364 -0.2718
   38MOL    H21 9715   3.988   6.364   4.438 -2.3539  1.4357 -0.0002
   38MOL    H22 9716   4.065   6.657   4.523 -0.0228  2.9256 -0.8315
   38MOL    H23 9717   3.869   6.780   4.569  2.3274 -1.1601 -0.5390
   38MOL    H24 9718   3.809   6.624   4.609  0.7497  1.4657  0.5815
   38MOL    H25 9719   3.695   6.789   4.385  2.8012 -0.1858  1.0502
   38MOL    H26 9720   3.625   6.795   4.553 -2.0279  0.4166 -1.0556
   38MOL    H27 9721   3.616   6.651   4.458  1.8823 -1.4277 -0.3292
   38MOL    C28 9722   4.102   6.595   4.316 -0.0533 -0.0860 -0.0554
   38MOL    C29 9723   4.175   6.732   4.295 -0.1232 -0.0298  0.3848
   38MOL    O30 9724   4.258   6.755   4.405  0.0246  0.2025  0.0406
   38MOL    C31 9725   4.396   6.732   4.380 -0.7634 -0.1538  0.3794
   38MOL    C32 9726   4.463   6.782   4.507 -0.0549  0.0024  0.4127
   38MOL    H33 9727   4.034   6.563   4.237  0.6604 -3.5119  0.6534
   38MOL    H34 9728   4.183   6.523   4.318 -1.4840 -1.6968  1.8657
   38MOL    H35 9729   4.231   6.725   4.201 -0.2061 -3.2673  0.5016
   38MOL    H36 9730   4.438   6.783   4.292 -1.1673 -0.3566  0.0672
   38MOL    H37 9731   4.420   6.629   4.354 -1.2546 -0.3494  0.7115
   38MOL    H38 9732   4.419   6.880   4.523 -0.0979  0.3462 -1.6025
   38MOL    H39 9733   4.451   6.720   4.595 -0.2024 -0.8594 -0.2148
   38MOL    H40 9734   4.571   6.797   4.495 -0.2118  0.0233 -1.0427
   38MOL    C41 9735   4.082   6.858   4.280 -0.4404 -0.3629 -0.4095
   38MOL    C42 9736   3.980   6.845   4.165  0.5061  0.8570  0.8689
   38MOL    O43 9737   4.062   6.807   4.049  0.3751 -0.3138  0.1123
   38MOL    C44 9738   3.987   6.747   3.941 -0.9213 -0.5833  0.6377
   38MOL    C45 9739   4.067   6.732   3.812 -0.3191  0.1792  0.6978
   38MOL    H46 9740   4.135   6.953   4.271  1.7940 -1.6275 -1.1180
   38MOL    H47 9741   4.037   6.881   4.376 -0.3178  1.2449 -0.7289
   38MOL    H48 9742   3.922   6.755   4.183  2.2307 -0.0808  1.7674
   38MOL    H49 9743   3.904   6.815   3.921  0.0007  0.1208 -0.9291
   38MOL    H50 9744   3.948   6.651   3.975  4.3108 -3.2942 -0.4628
   38MOL    H51 9745   4.150   6.664   3.832 -1.4735 -1.3039  0.5552
   38MOL    H52 9746   4.002   6.674   3.747 -0.0005 -1.2639  1.6217
   38MOL    H53 9747   4.085   6.828   3.765  2.1140 -0.2047  0.7636
   38MOL    C54 9748   3.876   6.959   4.155 -0.4489  0.2720 -0.3550
   38MOL    C55 9749   3.930   7.081   4.079  0.3069  0.2142 -0.2088
   38MOL    O56 9750   4.020   7.142   4.166 -0.2933  0.2063 -0.0160
   38MOL    C57 9751   4.120   7.235   4.114 -0.6419  0.0266 -0.3777
   38MOL    C58 9752   4.203   7.278   4.236 -0.5599  0.4766  0.4513
   38MOL    H59 9753   3.839   6.982   4.255 -2.8311 -0.1310 -1.1225
   38MOL    H60 9754   3.785   6.920   4.110 -0.8991  0.1902  0.6275
   38MOL    H61 9755   3.990   7.046   3.995  2.0659  0.3908  0.9387
   38MOL    H62 9756   4.074   7.322   4.066  1.6123  1.0950 -0.6764
   38MOL    H63 9757   4.183   7.198   4.034  1.0835 -0.6834  1.2682
   38MOL    H64 9758   4.288   7.339   4.205 -1.5370  2.1862  1.1027
   38MOL    H65 9759   4.145   7.334   4.308 -2.7490 -0.8679 -0.2330
   38MOL    H66 9760   4.265   7.196   4.273  2.0106  1.6981 -0.9490
   38MOL    C67 9761   3.814   7.177   4.038 -0.2574 -0.4472  0.8586
   38MOL    C68 9762   3.709   7.211   4.156  0.2391  0.8215  0.5792
   38MOL    O69 9763   3.612   7.106   4.170 -0.2927  0.4350 -0.0125
   38MOL    C70 9764   3.552   7.106   4.299  0.2086  0.2929 -0.8227
   38MOL    C71 9765   3.444   7.001   4.306  0.4615 -0.5022  0.2179
   38MOL    H72 9766   3.770   7.128   3.950  2.0964 -0.2631 -0.4612
   38MOL    H73 9767   3.852   7.271   3.999 -1.2564 -0.2720  0.2581
   38MOL    H74 9768   3.762   7.201   4.251  0.7523  0.8888  0.2996
   38MOL    H75 9769   3.514   7.205   4.327  0.3269  0.1817 -0.2620
   38MOL    H76 9770   3.620   7.087   4.382 -1.1418  3.4135  1.1166
   38MOL    H77 9771   3.406   7.011   4.407  2.7675 -1.1309  1.1933
   38MOL    H78 9772   3.369   7.030   4.233  1.1318 -1.8557 -1.0701
   38MOL    H79 9773   3.480   6.902   4.277  1.2057  0.3597 -1.9198
   38MOL    C80 9774   3.644   7.353   4.136  0.4983  0.1749  0.4293
   38MOL    C81 9775   3.553   7.364   4.006 -0.0287  0.0636 -0.8423
   38MOL    O82 9776   3.517   7.500   3.989  0.5233 -0.0401  0.4493
   38MOL    C83 9777   3.620   7.589   3.945 -0.2019 -0.4259 -0.5293
   38MOL    C84 9778   3.668   7.560   3.807 -0.3688 -0.0800 -0.2047
   38MOL    H85 9779   3.723   7.428   4.127  1.6611 -0.6474  3.3971
   38MOL    H86 9780   3.590   7.373   4.228 -1.7969  1.6091 -1.1719
   38MOL    H87 9781   3.615   7.344   3.919  2.7481  3.8525  0.1633
   38MOL    H88 9782   3.697   7.601   4.022 -0.9003  1.1983 -0.0650
   38MOL    H89 9783   3.575   7.688   3.947  0.5604 -0.0736 -0.7574
   38MOL    H90 9784   3.582   7.511   3.760 -1.0827  1.3061 -0.3942
   38MOL    H91 9785   3.695   7.647   3.746 -0.4247 -0.2437 -0.4650
   38MOL    H92 9786   3.755   7.495   3.808 -0.2114  0.0812 -1.8591
   38MOL    C93 9787   3.429   7.266   3.999 -0.1009 -0.5559 -0.5023
   38MOL    C94 9788   3.359   7.258   3.861 -0.5061 -0.4526  0.0266
   38MOL    O95 9789   3.240   7.193   3.866  0.5534 -0.2531 -0.1438
   38MOL    C96 9790   3.135   7.277   3.878  0.2191  0.2182  0.4717
   38MOL    C97 9791   3.015   7.187   3.874  0.1670  0.1951  0.2270
   38MOL    H98 9792   3.353   7.299   4.071  1.8448  1.9783  0.4554
   38MOL    H99 9793   3.443   7.162   4.029  0.3703 -0.5890 -0.8296
   38MOL   H100 9794   3.352   7.356   3.816 -1.1273 -1.2494 -1.6559
   38MOL   H101 9795   3.128   7.358   3.805 -1.3077 -1.3392 -1.1480
   38MOL   H102 9796   3.141   7.332   3.972 -0.2585  0.7355  0.2025
   38MOL   H103 9797   2.928   7.245   3.907 -1.6337 -1.8742 -0.7028
   38MOL   H104 9798   2.998   7.139   3.778  0.2514 -0.6354  0.6224
   38MOL   H105 9799   3.019   7.101   3.941 -0.8579  0.3967  0.5680
   38MOL   C106 9800   3.448   7.161   3.772 -0.4299 -0.9198 -1.1953
   38MOL   C107 9801   3.406   7.152   3.619 -0.3136  0.0009  0.4147
   38MOL   O108 9802   3.478   7.042   3.564  0.2287 -0.0531  0.5807
   38MOL   C109 9803   3.421   6.908   3.578  0.1399  0.1622  0.1746
   38MOL   C110 9804   3.527   6.802   3.534 -0.0238  0.2592  0.5794
   38MOL   H111 9805   3.447   7.061   3.815 -0.3394 -0.5359 -0.2989
   38MOL   H112 9806   3.552   7.195   3.763 -0.5253 -0.0581  0.8678
   38MOL   H113 9807   3.301   7.123   3.617  0.2698 -2.1573  0.2087
   38MOL   H114 9808   3.332   6.904   3.514  1.3441  0.9501 -1.5674
   38MOL   H115 9809   3.388   6.887   3.680  1.5148  1.2363  0.8522
   38MOL   H116 9810   3.479   6.705   3.547 -1.8675  0.7116 -2.4795
   38MOL   H117 9811   3.562   6.821   3.433 -0.0426 -0.7842  0.3680
   38MOL   H118 9812   3.622   6.811   3.588 -0.3529 -1.1179  1.4097
   38MOL   C119 9813   3.446   7.274   3.538  0.0016 -0.0156 -0.2227
   38MOL   C120 9814   3.382   7.273   3.393  0.2599  0.8201 -0.1451
   38MOL   O121 9815   3.453   7.353   3.290  0.1263 -0.0964 -0.0763
   38MOL   C122 9816   3.587   7.316   3.270  0.1938  0.0092  0.2332
   38MOL   C123 9817   3.618   7.380   3.133 -0.0612  0.3828 -0.3018
   38MOL   H124 9818   3.553   7.294   3.534  0.2742 -1.6208 -1.7029
   38MOL   H125 9819   3.397   7.357   3.589  0.2044 -0.5099  0.7933
   38MOL   H126 9820   3.381   7.171   3.355 -1.1778 -0.0043  2.0053
   38MOL   H127 9821   3.599   7.208   3.259 -1.0247 -0.0017 -1.2080
   38MOL   H128 9822   3.646   7.364   3.348 -0.6584 -1.2164  1.6625
   38MOL   H129 9823   3.724   7.362   3.111  0.0942  0.9706 -0.0448
   38MOL   H130 9824   3.557   7.345   3.050 -0.3345 -0.9665  0.4445
   38MOL   H131 9825   3.589   7.484   3.121  1.6533  0.7421 -1.5858
   38MOL   C132 9826   3.234   7.308   3.400 -0.2349 -0.3067 -0.0402
   38MOL   C133 9827   3.157   7.279   3.268 -0.1888 -0.1825 -0.6635
   38MOL   O134 9828   3.034   7.344   3.277 -0.5914 -0.0029 -0.4308
   38MOL   C135 9829   3.015   7.453   3.184  0.4546 -0.1234 -0.4600
   38MOL   C136 9830   2.865   7.491   3.191 -0.3738  0.3028 -0.0121
   38MOL   H137 9831   3.219   7.411   3.433 -0.6171 -0.1594 -0.6745
   38MOL   H138 9832   3.186   7.248   3.478 -1.5963  0.4746 -0.2702
   38MOL   H139 9833   3.214   7.306   3.180  1.7354 -0.4186  0.4805
   38MOL   H140 9834   3.044   7.415   3.086 -1.5517 -1.4143 -0.5987
   38MOL   H141 9835   3.082   7.535   3.208  2.0582 -0.2540 -4.1343
   38MOL   H142 9836   2.801   7.408   3.163 -0.7186  1.3549 -2.5141
   38MOL   H143 9837   2.833   7.528   3.288 -2.5916  1.4283 -1.1372
   38MOL   H144 9838   2.842   7.568   3.117  1.5805  1.3427  0.4099
   38MOL   C145 9839   3.132   7.127   3.243 -0.5681  0.3714  0.4650
   38MOL   C146 9840   3.050   7.107   3.114  0.4003 -0.3213 -0.7384
   38MOL   O147 9841   2.979   6.984   3.132 -0.0823 -0.1730 -0.6999
   38MOL   C148 9842   2.849   6.981   3.190 -0.6074 -0.3081 -0.6604
   38MOL   C149 9843   2.843   6.858   3.279  0.2372  0.3482  0.4433
   38MOL   H150 9844   3.086   7.095   3.337  0.8944  0.2741  1.1728
   38MOL   H151 9845   3.226   7.074   3.227  0.7235  2.9063 -0.5500
   38MOL   H152 9846   2.978   7.189   3.109 -1.2583 -1.8297 -2.2240
   38MOL   H153 9847   2.775   6.973   3.110  0.2876 -0.2854 -1.4976
   38MOL   H154 9848   2.852   7.067   3.257  1.6499 -0.9582  0.1079
   38MOL   H155 9849   2.750   6.852   3.335  0.4577 -2.0387  0.6078
   38MOL   H156 9850   2.858   6.763   3.227 -0.5173 -0.6757  2.0439
   38MOL   H157 9851   2.920   6.862   3.356  1.5223 -0.5194 -0.7735
   38MOL   C158 9852   3.130   7.109   2.985 -0.0067 -0.0335  0.1499
   38MOL   C159 9853   3.074   7.179   2.854 -0.2305  0.3170  0.7548
   38MOL   O160 9854   2.974   7.110   2.779  0.2836  0.5041  0.1137
   38MOL   C161 9855   2.847   7.093   2.843  0.3388 -0.1895 -0.5155
   38MOL   C162 9856   2.752   7.066   2.729 -0.4011 -0.3731  0.6170
   38MOL   H163 9857   3.165   7.012   2.950  0.6661 -0.0848  0.9427
   38MOL   H164 9858   3.230   7.147   3.008  0.9717 -1.5772 -1.4315
   38MOL   H165 9859   3.019   7.270   2.878 -0.6618 -0.2298  1.8843
   38MOL   H166 9860   2.816   7.182   2.899 -0.4986 -0.2811 -0.8142
   38MOL   H167 9861   2.858   7.006   2.907  0.4494  0.5844  0.5282
   38MOL   H168 9862   2.728   7.156   2.672  0.5338 -0.6470 -0.1974
   38MOL   H169 9863   2.801   6.998   2.661  0.7944  2.4527 -1.4465
   38MOL   H170 9864   2.652   7.037   2.763 -0.9668  0.5502 -0.2303
   38MOL   C171 9865   3.180   7.229   2.754 -0.1901 -0.8338 -0.2617
   38MOL   C172 9866   3.266   7.103   2.704 -0.2240 -0.0659  0.4365
   38MOL   O173 9867   3.362   7.073   2.814 -0.2597  0.4192  0.4248
   38MOL   C174 9868   3.417   6.942   2.810 -0.2283 -0.2942 -0.2696
   38MOL   C175 9869   3.495   6.907   2.943  0.1428 -0.8809  0.1713
   38MOL   H176 9870   3.244   7.299   2.808 -0.2889 -0.7808 -0.2119
   38MOL   H177 9871   3.129   7.292   2.680  1.4186  0.3292 -0.4127
   38MOL   H178 9872   3.202   7.015   2.705 -0.8732  0.3680 -1.6907
   38MOL   H179 9873   3.491   6.954   2.731 -0.4400  1.1539 -0.2638
   38MOL   H180 9874   3.337   6.871   2.792 -0.9638  0.0517  1.4501
   38MOL   H181 9875   3.575   6.837   2.920  0.9605  0.6455 -1.8559
   38MOL   H182 9876   3.535   6.998   2.987  0.6076  0.0972 -2.1979
   38MOL   H183 9877   3.420   6.867   3.012 -0.0885  1.7706  1.5130
   38MOL   C184 9878   3.333   7.122   2.562 -0.2824 -0.4794 -1.2884
   38MOL   C185 9879   3.247   7.114   2.433  0.8291  0.7130  0.1870
   38MOL   O186 9880   3.173   7.238   2.425  0.5947  0.1429  0.3931
   38MOL   C187 9881   3.157   7.300   2.297  0.3560 -0.5332 -0.0840
   38MOL   C188 9882   3.047   7.400   2.301  0.3018  0.0064 -0.0044
   38MOL   H189 9883   3.392   7.032   2.548  1.4851  0.3667  0.3884
   38MOL   H190 9884   3.390   7.215   2.568  0.6063 -1.1171  0.5181
   38MOL   H191 9885   3.315   7.106   2.348 -1.4264 -2.9652 -1.3587
   38MOL   H192 9886   3.128   7.220   2.229 -0.2524  0.2696 -0.7758
   38MOL   H193 9887   3.253   7.337   2.261 -0.1856  1.7404  0.7124
   38MOL   H194 9888   3.077   7.488   2.359 -1.5574  1.5450 -1.2945
   38MOL   H195 9889   3.015   7.445   2.207 -0.5976  1.1036  0.7957
   38MOL   H196 9890   2.965   7.359   2.359  1.5382 -3.4836 -0.6320
   38MOL   C197 9891   3.150   7.000   2.424  0.4176  0.2160 -0.1129
   38MOL   C198 9892   3.207   6.860   2.432  0.0612 -0.0297 -0.0143
   38MOL   O199 9893   3.292   6.853   2.318  0.1748  0.1925  0.0315
   38MOL   C200 9894   3.416   6.769   2.333  0.2726  0.7033 -1.0079
   38MOL   C201 9895   3.478   6.758   2.195 -0.0467 -0.6185  0.0496
   38MOL   H202 9896   3.086   7.016   2.337 -0.6168  0.1731  0.6411
   38MOL   H203 9897   3.084   7.019   2.509  0.0506 -0.2774 -0.2896
   38MOL   H204 9898   3.258   6.855   2.529  1.5854 -0.3034 -0.8103
   38MOL   H205 9899   3.373   6.676   2.370 -0.2008  2.1264  2.1806
   38MOL   H206 9900   3.483   6.802   2.413 -1.0835 -2.6250  1.6273
   38MOL   H207 9901   3.565   6.693   2.200  0.9551  0.6949 -0.0373
   38MOL   H208 9902   3.404   6.727   2.121 -1.3994  1.2359  0.5750
   38MOL   H209 9903   3.504   6.854   2.152 -1.3210 -0.9758 -1.5685
   38MOL   C210 9904   3.111   6.748   2.428  0.1455 -0.0211  0.1998
   38MOL   C211 9905   3.027   6.743   2.561  0.3504 -0.4644 -0.0878
   38MOL   O212 9906   3.113   6.692   2.665 -0.0756  0.5063 -0.0643
   38MOL   C213 9907   3.078   6.744   2.798 -0.1135 -0.1237  0.2449
   38MOL   C214 9908   3.135   6.653   2.912 -0.2599 -0.0438  0.0337
   38MOL   H215 9909   3.163   6.654   2.412  2.8667  1.2850  1.0935
   38MOL   H216 9910   3.054   6.753   2.336 -0.1522  2.5779  0.4875
   38MOL   H217 9911   2.990   6.844   2.580  0.3452 -0.7148  1.2621
   38MOL   H218 9912   2.970   6.743   2.815  0.1195  2.2917  1.9967
   38MOL   H219 9913   3.102   6.849   2.813 -0.7042  0.0349  0.0830
   38MOL   H220 9914   3.094   6.677   3.010 -0.1291 -1.9001  0.5564
   38MOL   H221 9915   3.106   6.551   2.888  0.9361 -0.3000 -0.3588
   38MOL   H222 9916   3.241   6.662   2.933 -0.0713 -0.1251 -0.8542
   38MOL   C223 9917   2.901   6.650   2.554  0.2454  1.0576  0.0032
   38MOL   C224 9918   2.773   6.693   2.460 -0.5653  0.0008  0.8780
   38MOL   O225 9919   2.702   6.789   2.528 -0.2532  0.3502 -0.3307
   38MOL   C226 9920   2.632   6.875   2.437  0.4518  0.3880  0.3992
   38MOL   C227 9921   2.490   6.918   2.473 -0.1175 -0.4977  0.2446
   38MOL   H228 9922   2.862   6.643   2.656 -0.5937 -1.1324 -0.4678
   38MOL   H229 9923   2.935   6.552   2.521  0.3495 -0.0609  3.2312
   38MOL   H230 9924   2.814   6.727   2.364 -2.0922  1.8441  0.8561
   38MOL   H231 9925   2.614   6.814   2.348  0.2458  0.0349  0.6840
   38MOL   H232 9926   2.697   6.959   2.415  0.7549 -0.4093 -1.9680
   38MOL   H233 9927   2.442   6.981   2.398 -0.4981 -0.4041  0.5646
   38MOL   H234 9928   2.424   6.832   2.479  0.6076 -0.9556  2.3537
   38MOL   H235 9929   2.484   6.977   2.565 -1.5446  0.1167 -0.2337
   38MOL   C236 9930   2.686   6.563   2.439  0.5278 -0.4839 -0.1904
   38MOL   C237 9931   2.610   6.505   2.563  0.4032 -0.2571 -0.3585
   38MOL   O238 9932   2.557   6.372   2.549  0.1487  0.1863  0.5594
   38MOL   C239 9933   2.620   6.270   2.624 -0.3168 -0.8349 -0.2317
   38MOL   C240 9934   2.533   6.147   2.619 -0.5219 -0.1519  0.1572
   38MOL   H241 9935   2.742   6.486   2.386 -1.7943 -1.9012 -0.6611
   38MOL   H242 9936   2.606   6.583   2.368 -1.7587 -1.1318  2.1216
   38MOL   H243 9937   2.688   6.508   2.639  1.3729  0.7073 -1.3573
   38MOL   H244 9938   2.641   6.290   2.729  0.3051  1.0591 -0.7048
   38MOL   H245 9939   2.715   6.246   2.577 -0.2604  0.7186 -0.9207
   38MOL   H246 9940   2.430   6.176   2.641 -0.6116  2.1922 -3.0924
   38MOL   H247 9941   2.533   6.107   2.518  1.3668 -1.8849  0.8247
   38MOL   H248 9942   2.573   6.072   2.688 -2.0803 -0.0324  1.2197
   38MOL   C249 9943   2.499   6.599   2.615 -0.3308 -0.3134 -0.0313
   38MOL   C250 9944   2.396   6.532   2.710 -0.1651 -0.6177  0.4448
   38MOL   O251 9945   2.342   6.635   2.796 -0.5376  0.2187  0.1395
   38MOL   C252 9946   2.289   6.567   2.909  0.0952  0.2182 -0.3775
   38MOL   C253 9947   2.232   6.671   3.006  0.5069  0.1814 -0.1766
   38MOL   H254 9948   2.438   6.628   2.528 -3.3758  2.3472  2.8559
   38MOL   H255 9949   2.544   6.686   2.662 -0.2790  0.1939 -0.9921
   38MOL   H256 9950   2.309   6.493   2.657 -2.4044 -1.0993  4.2743
   38MOL   H257 9951   2.361   6.501   2.957  0.2740  0.7332  0.0669
   38MOL   H258 9952   2.200   6.511   2.878 -0.2066 -0.3135  1.4039
   38MOL   H259 9953   2.306   6.742   3.042 -1.2384  1.3370  1.2198
   38MOL   H260 9954   2.135   6.711   2.977 -0.3348 -1.7986 -0.1724
   38MOL   H261 9955   2.201   6.620   3.097 -0.5069 -0.0480 -0.6357
   38MOL   H262 9956   2.445   6.455   2.770 -0.8842  0.2328  2.1720
   39MOL     C1 9957   0.478   4.406   6.473 -0.2892 -0.6918 -0.0130
   39MOL     C2 9958   0.530   4.441   6.328 -0.1954  0.0987  0.0443
   39MOL     O3 9959   0.420   4.453   6.240  0.5821  0.1584 -0.0927
   39MOL     C4 9960   0.382   4.590   6.230  0.4112  0.3401 -0.1454
   39MOL     C5 9961   0.243   4.582   6.175  0.1803 -0.2621 -0.5121
   39MOL     H6 9962   0.411   4.487   6.498 -0.7234 -0.7755 -0.9063
   39MOL     H7 9963   0.424   4.311   6.480 -3.4177  1.0820  0.6199
   39MOL     H8 9964   0.598   4.526   6.335  1.5095 -1.2502  0.5407
   39MOL     H9 9965   0.447   4.649   6.165  1.1532 -0.0835  0.2133
   39MOL    H10 9966   0.379   4.643   6.325  0.9961  1.7459 -0.9023
   39MOL    H11 9967   0.242   4.537   6.076  0.9981 -1.8272  0.1800
   39MOL    H12 9968   0.184   4.517   6.240  0.0298 -0.3704 -0.7580
   39MOL    H13 9969   0.189   4.676   6.162 -0.3658 -0.4589  0.2530
   39MOL    H14 9970   0.559   4.401   6.547 -1.8203  1.0669  1.8277
   39MOL    C15 9971   0.631   4.336   6.293 -0.2912  0.5711 -0.0894
   39MOL    C16 9972   0.776   4.335   6.348 -0.4700 -0.3232  0.2895
   39MOL    O17 9973   0.835   4.446   6.290  0.4235  0.4293 -0.2483
   39MOL    C18 9974   0.923   4.519   6.381  0.0242 -0.2953  0.4452
   39MOL    C19 9975   0.923   4.673   6.356  0.3357  0.0931 -0.4900
   39MOL    H20 9976   0.642   4.338   6.185 -1.0679 -0.5282 -0.1940
   39MOL    H21 9977   0.583   4.242   6.320  2.5779  0.1421  4.0275
   39MOL    H22 9978   0.767   4.337   6.456  1.0542  1.2580  0.4144
   39MOL    H23 9979   1.023   4.475   6.389  0.3091  0.2392 -0.1313
   39MOL    H24 9980   0.888   4.504   6.484 -0.0501  0.5893  0.5549
   39MOL    H25 9981   0.968   4.690   6.258  0.6210  0.4690 -0.2969
   39MOL    H26 9982   0.993   4.729   6.418  0.4342 -0.1329 -0.3970
   39MOL    H27 9983   0.823   4.716   6.349 -0.6507 -1.7808  1.2414
   39MOL    C28 9984   0.870   4.220   6.313  0.4909  0.0432 -0.4810
   39MOL    C29 9985   0.818   4.075   6.335  0.2172 -0.7209 -0.6442
   39MOL    O30 9986   0.938   4.004   6.366 -0.6735 -0.2910 -0.4172
   39MOL    C31 9987   0.922   3.895   6.449 -0.0629 -0.2626 -0.3927
   39MOL    C32 9988   1.057   3.823   6.442 -0.3800 -0.0274  0.1438
   39MOL    H33 9989   0.961   4.235   6.370  0.5602 -0.9693 -0.3092
   39MOL    H34 9990   0.913   4.225   6.213 -0.6486  1.0064 -0.9380
   39MOL    H35 9991   0.748   4.074   6.418 -1.0786  0.4880 -1.6968
   39MOL    H36 9992   0.851   3.824   6.406 -0.5600 -0.6449  1.0268
   39MOL    H37 9993   0.890   3.918   6.550  0.9281  0.1490 -0.1689
   39MOL    H38 9994   1.051   3.727   6.493 -1.5657  1.4303  2.8567
   39MOL    H39 9995   1.086   3.796   6.341 -1.4719  1.3044 -0.5377
   39MOL    H40 9996   1.132   3.884   6.494  0.4911  0.1590 -1.3150
   39MOL    C41 9997   0.745   4.017   6.214  0.5004 -0.2589  0.8123
   39MOL    C42 9998   0.826   3.971   6.091 -0.2072 -0.4424 -0.0018
   39MOL    O43 9999   0.755   4.021   5.975  0.2952 -0.4269  0.0897
   39MOL    C4410000   0.768   4.155   5.937 -0.1947  0.0076  0.4357
   39MOL    C4510001   0.667   4.193   5.827  0.4719 -0.1213  0.5702
   39MOL    H4610002   0.662   4.081   6.185 -0.2883 -1.6295 -0.0407
   39MOL    H4710003   0.677   3.937   6.244 -0.7758  0.6367  0.3645
   39MOL    H4810004   0.927   4.013   6.092 -0.8972  1.2504 -0.1211
   39MOL    H4910005   0.869   4.163   5.897  0.2691  0.8938  1.7483
   39MOL    H5010006   0.737   4.218   6.020  0.1869  0.1723  0.4576
   39MOL    H5110007   0.649   4.301   5.819 -1.3477 -0.5473 -1.4205
   39MOL    H5210008   0.692   4.154   5.729 -0.1140  1.3167 -0.1628
   39MOL    H5310009   0.568   4.151   5.847 -0.2941  0.8227 -1.1258
   39MOL    C5410010   0.830   3.818   6.081  0.0571 -0.3054 -0.3023
   39MOL    C5510011   0.908   3.758   5.967  0.6326  1.5175 -0.1866
   39MOL    O5610012   0.895   3.613   5.984 -0.3859  0.6746 -0.1934
   39MOL    C5710013   0.793   3.549   5.918  0.1124  0.2234  0.0695
   39MOL    C5810014   0.783   3.396   5.951  0.1408 -0.1539 -0.0217
   39MOL    H5910015   0.726   3.787   6.072  0.0252  0.6705 -4.0940
   39MOL    H6010016   0.861   3.761   6.169 -0.9939  0.5576  0.6532
   39MOL    H6110017   0.874   3.785   5.867  3.3843  2.9466 -0.7780
   39MOL    H6210018   0.800   3.574   5.812  2.0885 -2.8185 -0.5836
   39MOL    H6310019   0.700   3.598   5.946 -0.8312  0.7591 -3.6816
   39MOL    H6410020   0.688   3.369   5.906  0.9650 -1.5609 -0.9837
   39MOL    H6510021   0.858   3.345   5.889  0.1464  0.9603 -0.9574
   39MOL    H6610022   0.782   3.373   6.057 -3.8689 -1.5434 -0.3062
   39MOL    C6710023   1.060   3.794   5.975  0.1088  0.0312 -0.1474
   39MOL    C6810024   1.116   3.883   5.850 -0.0496  0.0161 -0.1046
   39MOL    O6910025   1.102   3.818   5.725 -0.0199  0.2473 -0.0644
   39MOL    C7010026   1.089   3.910   5.614  0.9091  0.2838 -0.0838
   39MOL    C7110027   1.079   3.818   5.494 -0.3583 -0.7410 -0.3585
   39MOL    H7210028   1.118   3.703   5.986  1.1122  0.7298  0.4393
   39MOL    H7310029   1.073   3.852   6.066 -2.6599  0.8418 -0.2265
   39MOL    H7410030   1.044   3.964   5.841  0.7335  0.7243 -0.0830
   39MOL    H7510031   1.182   3.962   5.596  1.2073  0.5600  2.1034
   39MOL    H7610032   1.001   3.974   5.618  0.8496  0.3532 -2.3381
   39MOL    H7710033   1.072   3.889   5.411 -2.5285  0.6660  0.9881
   39MOL    H7810034   1.167   3.756   5.473  0.2357  0.4248 -1.3513
   39MOL    H7910035   0.996   3.747   5.491  1.2638 -2.6283 -1.9347
   39MOL    C8010036   1.263   3.929   5.870 -0.0531  0.6579 -0.4371
   39MOL    C8110037   1.298   4.002   6.002 -0.3121  0.1101 -0.0865
   39MOL    O8210038   1.229   4.125   6.000  0.3924  0.1407 -0.2346
   39MOL    C8310039   1.199   4.175   6.127 -0.4719  0.1944  0.5163
   39MOL    C8410040   1.155   4.323   6.126  0.4082 -0.0406  0.2592
   39MOL    H8510041   1.285   3.986   5.779  0.8016  0.9693 -0.0397
   39MOL    H8610042   1.324   3.838   5.866  0.8516  1.1121  2.2988
   39MOL    H8710043   1.274   3.941   6.089 -2.6899 -0.6739 -1.2582
   39MOL    H8810044   1.288   4.166   6.188  2.1705  1.5032 -2.9811
   39MOL    H8910045   1.118   4.110   6.160 -0.2721  0.8777  2.3910
   39MOL    H9010046   1.146   4.357   6.229  1.0702 -2.2378  1.0665
   39MOL    H9110047   1.216   4.399   6.077 -2.0375  0.2970 -2.4020
   39MOL    H9210048   1.057   4.334   6.080  0.3982 -2.6487 -0.3935
   39MOL    C9310049   1.445   4.031   6.016  0.3756  0.1781 -0.1112
   39MOL    C9410050   1.541   3.911   6.043  0.2820 -0.8275  0.5613
   39MOL    O9510051   1.499   3.876   6.178  0.6635 -0.0389  0.2654
   39MOL    C9610052   1.456   3.747   6.202 -0.0649 -0.9419  0.4361
   39MOL    C9710053   1.465   3.739   6.358 -0.1479  0.0666 -1.0395
   39MOL    H9810054   1.467   4.095   6.101  1.2661 -1.4414  0.8900
   39MOL    H9910055   1.481   4.101   5.941 -1.1955  3.0043  1.6658
   39MOL   H10010056   1.510   3.834   5.972 -2.9654 -0.6640  1.6844
   39MOL   H10110057   1.531   3.688   6.150  0.4413  0.2285 -0.1841
   39MOL   H10210058   1.360   3.722   6.157 -1.5335  1.5828  2.0312
   39MOL   H10310059   1.402   3.822   6.393  1.0697  1.2524 -1.6138
   39MOL   H10410060   1.412   3.649   6.387 -2.4137  1.5626 -0.3608
   39MOL   H10510061   1.568   3.758   6.386 -0.5129 -1.3613  1.4381
   39MOL   C10610062   1.685   3.949   6.033 -0.7933 -0.0032  0.5293
   39MOL   C10710063   1.787   3.831   6.055 -0.0103  0.0943  0.4405
   39MOL   O10810064   1.910   3.902   6.049  0.1149  0.7091 -0.3061
   39MOL   C10910065   1.962   3.956   6.177 -0.0684 -0.5612  0.5616
   39MOL   C11010066   2.111   4.003   6.154 -0.1519  0.5831  0.0967
   39MOL   H11110067   1.695   4.022   6.113 -2.1055 -0.5711  1.2313
   39MOL   H11210068   1.707   3.997   5.938  0.7759 -0.6670  0.5474
   39MOL   H11310069   1.758   3.789   6.152 -0.3380 -1.3212 -0.2555
   39MOL   H11410070   1.968   3.871   6.245 -0.2555 -1.2786 -0.3174
   39MOL   H11510071   1.907   4.036   6.227 -0.1015 -0.6802  0.7161
   39MOL   H11610072   2.116   4.089   6.086  0.9268 -0.0196 -0.6025
   39MOL   H11710073   2.167   4.032   6.243 -2.6039  1.1780  1.4821
   39MOL   H11810074   2.158   3.918   6.105  1.6555  2.7367 -2.0245
   39MOL   C11910075   1.780   3.722   5.946  0.0055 -0.0399 -0.0874
   39MOL   C12010076   1.893   3.621   5.951 -0.2350  0.8516 -0.4075
   39MOL   O12110077   1.910   3.555   5.827  0.5108  0.2707  0.3032
   39MOL   C12210078   1.801   3.489   5.773 -0.4012 -0.1816  0.4979
   39MOL   C12310079   1.845   3.433   5.634  0.4579 -0.4558  0.3753
   39MOL   H12410080   1.767   3.771   5.849 -1.2952  1.6643  0.9277
   39MOL   H12510081   1.679   3.681   5.953 -0.6184  1.4131 -0.3211
   39MOL   H12610082   1.991   3.665   5.968 -0.2960  1.3941 -1.4074
   39MOL   H12710083   1.710   3.547   5.759 -0.4011 -0.0863  0.8837
   39MOL   H12810084   1.776   3.404   5.837 -1.4803 -0.9569 -0.9039
   39MOL   H12910085   1.855   3.520   5.569  1.5449  0.0671  1.2070
   39MOL   H13010086   1.949   3.399   5.633  0.5449 -0.1775 -0.3147
   39MOL   H13110087   1.773   3.363   5.592  1.8715 -1.7042 -0.0093
   39MOL   C13210088   1.872   3.518   6.070  0.2682 -0.3332  0.2039
   39MOL   C13310089   1.997   3.424   6.082  0.2599 -0.7706 -0.1229
   39MOL   O13410090   1.977   3.325   6.180 -0.4651  0.5319 -0.4608
   39MOL   C13510091   1.914   3.204   6.127  0.7410  0.2811 -0.2797
   39MOL   C13610092   1.903   3.080   6.218 -0.7149  0.4113 -0.5887
   39MOL   H13710093   1.775   3.469   6.061 -0.2836  0.9384 -0.8640
   39MOL   H13810094   1.858   3.574   6.163 -0.2201 -1.0286  0.5513
   39MOL   H13910095   2.021   3.384   5.983  0.9557  1.1205 -0.7433
   39MOL   H14010096   1.959   3.170   6.034  0.2827 -1.4419  0.1148
   39MOL   H14110097   1.812   3.231   6.100 -0.0746 -1.0112  1.4055
   39MOL   H14210098   1.831   3.095   6.299  2.5438  0.9761  2.2868
   39MOL   H14310099   1.873   2.997   6.154 -2.9604  0.2975  0.5330
   39MOL   H14410100   1.993   3.048   6.269 -0.8462  0.0243 -0.6003
   39MOL   C14510101   2.123   3.495   6.144  0.4041 -0.2605  0.6405
   39MOL   C14610102   2.121   3.544   6.295 -0.0285  0.0437 -0.2085
   39MOL   O14710103   2.010   3.630   6.320 -0.2983  0.4998  0.3183
   39MOL   C14810104   1.955   3.632   6.452 -0.1908  0.3063 -0.9616
   39MOL   C14910105   1.818   3.708   6.450  0.1772  0.4894  0.2749
   39MOL   H15010106   2.151   3.579   6.081  0.6628  1.0125  2.4070
   39MOL   H15110107   2.205   3.424   6.134 -0.7119 -1.5903  0.7103
   39MOL   H15210108   2.100   3.453   6.351  2.0689  0.2194  0.9072
   39MOL   H15310109   2.018   3.687   6.523  0.6025 -2.3063  0.4388
   39MOL   H15410110   1.937   3.530   6.487 -1.6370  0.3352 -1.6047
   39MOL   H15510111   1.829   3.816   6.441 -3.3772  0.8368 -0.7611
   39MOL   H15610112   1.764   3.665   6.365  0.1856 -0.4180  0.7194
   39MOL   H15710113   1.754   3.671   6.530 -0.0313  0.2565  0.0069
   39MOL   C15810114   2.250   3.617   6.343 -0.3038  0.2575 -0.1219
   39MOL   C15910115   2.363   3.524   6.392  0.0041 -0.1736 -0.3551
   39MOL   O16010116   2.328   3.477   6.520  0.0038  0.4651 -0.4044
   39MOL   C16110117   2.356   3.340   6.543 -0.3539 -0.5015  0.0696
   39MOL   C16210118   2.312   3.301   6.680 -0.3262  0.4328  0.2569
   39MOL   H16310119   2.213   3.691   6.414 -0.9908 -0.7980  0.6431
   39MOL   H16410120   2.282   3.690   6.268 -3.2457  0.7824 -0.9043
   39MOL   H16510121   2.395   3.448   6.321 -1.2171  0.0843 -1.1907
   39MOL   H16610122   2.462   3.320   6.527  0.0496  0.8308  0.9946
   39MOL   H16710123   2.299   3.285   6.468 -1.0347  0.9692 -0.5118
   39MOL   H16810124   2.214   3.335   6.712 -1.0993 -0.6848 -0.8880
   39MOL   H16910125   2.318   3.193   6.692  1.0056  0.2601 -1.6414
   39MOL   H17010126   2.384   3.334   6.754 -1.1058  2.3445  0.1913
   39MOL   C17110127   2.497   3.612   6.410  0.2892 -0.7174  0.0927
   39MOL   C17210128   2.581   3.631   6.273 -0.4496 -0.0463 -0.5766
   39MOL   O17310129   2.642   3.500   6.254 -0.6094 -0.0279 -0.5040
   39MOL   C17410130   2.617   3.450   6.128  0.4422 -0.4713 -0.7736
   39MOL   C17510131   2.716   3.340   6.117 -0.4353  0.2107 -0.1545
   39MOL   H17610132   2.558   3.564   6.486 -1.5561 -2.0728  0.7555
   39MOL   H17710133   2.463   3.706   6.453 -0.3699 -0.5667 -0.7444
   39MOL   H17810134   2.523   3.671   6.190  0.9880  0.9321 -1.1312
   39MOL   H17910135   2.645   3.532   6.062  2.8600 -0.2682  0.4821
   39MOL   H18010136   2.516   3.409   6.116 -0.0005  0.2586  0.3966
   39MOL   H18110137   2.706   3.293   6.019 -1.3725 -0.2403  0.1537
   39MOL   H18210138   2.811   3.394   6.114 -2.4532  3.8909 -0.2685
   39MOL   H18310139   2.714   3.256   6.187 -1.0394  1.3716  1.2425
   39MOL   C18410140   2.701   3.728   6.285  0.3054 -0.1343  0.6949
   39MOL   C18510141   2.668   3.882   6.295 -0.4502  0.5532  0.4801
   39MOL   O18610142   2.590   3.898   6.173 -0.3547 -0.4827  0.2064
   39MOL   C18710143   2.503   4.006   6.174  0.1590 -0.0553  0.2346
   39MOL   C18810144   2.436   3.995   6.040 -0.4433  1.0839 -0.0942
   39MOL   H18910145   2.770   3.718   6.201  0.8137  0.6713  1.0163
   39MOL   H19010146   2.761   3.700   6.372  0.6164  2.9408  1.5357
   39MOL   H19110147   2.612   3.914   6.383 -0.7525  2.1674 -0.2831
   39MOL   H19210148   2.541   4.108   6.183  0.8814 -0.2394 -0.6734
   39MOL   H19310149   2.417   3.998   6.241  0.2814 -1.1762  0.2572
   39MOL   H19410150   2.384   4.087   6.014 -1.5839 -0.1471 -2.4511
   39MOL   H19510151   2.512   3.987   5.962 -0.2242  0.0707  0.2092
   39MOL   H19610152   2.361   3.916   6.026 -0.1875  0.6050  1.2356
   39MOL   C19710153   2.795   3.964   6.286 -0.5335 -0.4827 -0.1122
   39MOL   C19810154   2.891   3.949   6.403 -0.1030  0.2317 -0.2092
   39MOL   O19910155   2.818   3.944   6.528  0.2702  0.7306 -0.0340
   39MOL   C20010156   2.889   3.901   6.643 -0.0603 -0.5599 -0.9691
   39MOL   C20110157   2.950   3.756   6.622 -0.8362 -0.2115 -0.1580
   39MOL   H20210158   2.754   4.064   6.293 -0.2005 -0.2936 -0.9171
   39MOL   H20310159   2.846   3.954   6.190  0.9303 -0.1297  0.6194
   39MOL   H20410160   2.941   3.855   6.379  1.4638  1.1533 -0.6512
   39MOL   H20510161   2.821   3.902   6.728  1.3604  1.3486  0.1843
   39MOL   H20610162   2.968   3.967   6.681  0.4287 -2.5539  1.5969
   39MOL   H20710163   2.876   3.695   6.570 -1.2230  0.3824 -0.3115
   39MOL   H20810164   3.040   3.759   6.561 -0.4855  3.4421  0.4443
   39MOL   H20910165   2.967   3.702   6.715  3.6844 -1.5471 -1.6235
   39MOL   C21010166   3.015   4.048   6.408  0.3521  0.0703 -0.2119
   39MOL   C21110167   2.994   4.199   6.415 -0.1843  0.5458 -0.7545
   39MOL   O21210168   3.127   4.257   6.407 -0.4232  0.6656 -0.2199
   39MOL   C21310169   3.165   4.281   6.271 -0.6337  0.0772  0.2981
   39MOL   C21410170   3.103   4.414   6.223 -0.2518 -0.0626 -0.4239
   39MOL   H21510171   3.075   4.014   6.324 -0.9735 -1.7045 -0.4584
   39MOL   H21610172   3.083   4.025   6.490 -0.8882  0.9646  1.0912
   39MOL   H21710173   2.926   4.246   6.343  0.3262  1.7920 -0.4399
   39MOL   H21810174   3.137   4.205   6.198  1.7870 -0.2081 -0.3756
   39MOL   H21910175   3.274   4.279   6.276 -0.7425 -1.9193  3.0701
   39MOL   H22010176   3.120   4.421   6.116  2.0896  0.7414 -0.0243
   39MOL   H22110177   2.998   4.429   6.247 -0.4810  0.3692 -1.6929
   39MOL   H22210178   3.159   4.493   6.273 -1.9846  0.8863  0.0571
   39MOL   C22310179   2.945   4.237   6.555 -0.8096  0.3456 -0.3066
   39MOL   C22410180   2.906   4.383   6.589  0.7419  0.0931  0.2163
   39MOL   O22510181   2.781   4.404   6.529 -0.3509 -0.0190  0.1710
   39MOL   C22610182   2.669   4.336   6.583 -1.0690 -0.2926 -0.4549
   39MOL   C22710183   2.619   4.404   6.708  0.1884 -0.6857  0.1665
   39MOL   H22810184   3.031   4.215   6.618 -2.0996 -0.5913  1.1679
   39MOL   H22910185   2.872   4.164   6.589 -1.6221  0.8176 -1.0034
   39MOL   H23010186   2.884   4.369   6.695 -1.8500 -3.1055 -0.6280
   39MOL   H23110187   2.694   4.233   6.610 -3.6606 -0.7035  0.4645
   39MOL   H23210188   2.594   4.337   6.504 -1.4315  3.1002 -0.1449
   39MOL   H23310189   2.623   4.513   6.709  1.9173 -0.7358  0.0319
   39MOL   H23410190   2.516   4.373   6.725  0.0832  1.0164  2.9881
   39MOL   H23510191   2.682   4.362   6.787  0.8841  0.2213  0.1124
   39MOL   C23610192   3.009   4.495   6.571 -0.0293 -0.5976  1.0828
   39MOL   C23710193   3.150   4.477   6.651 -0.2449 -0.0740 -0.1590
   39MOL   O23810194   3.112   4.506   6.788  0.6418 -0.1012 -0.0526
   39MOL   C23910195   3.161   4.415   6.877 -0.6907 -0.2265  0.5240
   39MOL   C24010196   3.136   4.459   7.024  0.2058  0.2399 -0.1764
   39MOL   H24110197   2.958   4.583   6.609  2.9320  1.2603  0.8912
   39MOL   H24210198   3.033   4.513   6.466  0.8183 -0.6289  1.2635
   39MOL   H24310199   3.195   4.378   6.640  1.7243  1.0843 -3.2387
   39MOL   H24410200   3.269   4.412   6.857 -1.1204 -2.1618 -1.7812
   39MOL   H24510201   3.121   4.316   6.857  2.2420 -1.3435 -0.0782
   39MOL   H24610202   3.178   4.387   7.095 -0.5158  0.8270  0.8571
   39MOL   H24710203   3.174   4.560   7.039  1.2502 -0.5057  2.5580
   39MOL   H24810204   3.030   4.455   7.049 -0.0641  1.1813 -1.1449
   39MOL   C24910205   3.258   4.579   6.612 -0.3786 -1.2381  0.2416
   39MOL   C25010206   3.217   4.718   6.652 -0.3436 -0.3472 -0.2672
   39MOL   O25110207   3.318   4.804   6.597  0.3739  0.1222 -0.2715
   39MOL   C25210208   3.307   4.938   6.643  0.2683 -0.6348  0.7026
   39MOL   C25310209   3.428   5.025   6.601 -0.0908 -0.1939 -0.2736
   39MOL   H25410210   3.272   4.583   6.504 -1.3050 -0.3285  0.1398
   39MOL   H25510211   3.355   4.551   6.652 -0.3889  0.6741  1.7006
   39MOL   H25610212   3.118   4.739   6.612 -0.9789 -1.5741  0.6231
   39MOL   H25710213   3.307   4.940   6.752  1.2120 -0.3065  0.6980
   39MOL   H25810214   3.214   4.980   6.604  1.7638  0.0714 -2.2997
   39MOL   H25910215   3.527   5.002   6.639  0.3232  0.8412 -0.7190
   39MOL   H26010216   3.435   5.026   6.492  2.8992  1.2505 -0.1078
   39MOL   H26110217   3.400   5.126   6.630  1.9483  0.8520 -1.8780
   39MOL   H26210218   3.207   4.733   6.759 -3.0914 -0.3164 -0.4973
   40MOL     C110219   2.524   4.159   0.422  0.0949  0.1459 -0.0423
   40MOL     C210220   2.430   4.266   0.373 -0.0202  0.5858 -0.4622
   40MOL     O310221   2.497   4.324   0.257 -0.2049 -0.2425  0.4141
   40MOL     C410222   2.447   4.282   0.132 -0.1901  0.6361 -0.3318
   40MOL     C510223   2.537   4.331   0.021  0.6004 -0.2932  0.3998
   40MOL     H610224   2.625   4.201   0.426  0.2354 -0.2993  1.2369
   40MOL     H710225   2.510   4.122   0.524 -0.5788  0.7077  0.0657
   40MOL     H810226   2.345   4.210   0.334  0.2188  0.0852 -0.2701
   40MOL     H910227   2.345   4.315   0.115 -0.5439 -1.0559 -1.7201
   40MOL    H1010228   2.453   4.174   0.117  2.3794  1.1186 -3.3459
   40MOL    H1110229   2.551   4.437   0.043  0.4705 -0.0891 -0.4975
   40MOL    H1210230   2.638   4.289   0.029  0.7702 -0.2197 -1.1216
   40MOL    H1310231   2.494   4.323   7.765 -2.0917  0.1210  1.5043
   40MOL    H1410232   2.523   4.067   0.364  2.0807  1.2155 -1.8390
   40MOL    C1510233   2.397   4.368   0.479  0.0025  0.1066 -0.7094
   40MOL    C1610234   2.309   4.482   0.430 -0.0743  1.0388 -0.4105
   40MOL    O1710235   2.292   4.586   0.531 -0.0757  0.3124 -0.4637
   40MOL    C1810236   2.395   4.689   0.540 -0.1584  0.3982  0.4594
   40MOL    C1910237   2.377   4.763   0.672  0.3226 -0.4929 -0.5549
   40MOL    H2010238   2.485   4.420   0.515  0.6900 -0.6013 -1.3677
   40MOL    H2110239   2.345   4.320   0.563  1.3131  1.1804  0.7482
   40MOL    H2210240   2.357   4.532   0.346  0.3733  1.0867 -0.1300
   40MOL    H2310241   2.386   4.757   0.455 -1.4260  1.6013  1.5339
   40MOL    H2410242   2.488   4.633   0.528 -0.7473 -0.6945  0.8591
   40MOL    H2510243   2.465   4.827   0.679 -0.0913 -0.0131  0.3781
   40MOL    H2610244   2.387   4.687   0.750  1.9316  0.5514  0.2963
   40MOL    H2710245   2.282   4.815   0.679  1.1340  0.9757 -0.1772
   40MOL    C2810246   2.172   4.441   0.378  0.1682  0.6030 -0.5431
   40MOL    C2910247   2.092   4.557   0.315 -0.2838  0.2977 -0.9462
   40MOL    O3010248   1.961   4.518   0.287  0.1630 -0.0196  0.4562
   40MOL    C3110249   1.867   4.568   0.384 -0.1741 -0.1992  0.1879
   40MOL    C3210250   1.726   4.510   0.360  0.2694 -0.3149  0.0729
   40MOL    H3310251   2.120   4.419   0.471  1.0274 -1.0330 -0.4282
   40MOL    H3410252   2.177   4.353   0.314  1.6076  0.5224 -0.3394
   40MOL    H3510253   2.093   4.645   0.379  0.9800 -0.2885 -0.1317
   40MOL    H3610254   1.871   4.677   0.381 -1.0417 -0.1071  1.9372
   40MOL    H3710255   1.889   4.529   0.483 -1.0905 -2.4130 -0.4409
   40MOL    H3810256   1.656   4.560   0.427 -0.3848 -1.8468  0.5828
   40MOL    H3910257   1.696   4.535   0.259 -1.2725  1.9069  1.0487
   40MOL    H4010258   1.725   4.404   0.388 -0.4037 -0.4053 -0.2784
   40MOL    C4110259   2.142   4.610   0.177 -1.5887 -0.5501  0.0185
   40MOL    C4210260   2.087   4.749   0.148  0.1312  0.3486 -0.2906
   40MOL    O4310261   2.118   4.787   0.015  0.3445 -0.8886 -0.1051
   40MOL    C4410262   2.030   4.748   7.748  0.1636  0.3539 -1.2818
   40MOL    C4510263   1.910   4.849   7.742  0.2306  0.4230 -0.6296
   40MOL    H4610264   2.116   4.546   0.093 -0.3836 -0.5459 -0.3590
   40MOL    H4710265   2.251   4.610   0.174 -1.5357  1.9713  0.8168
   40MOL    H4810266   1.978   4.741   0.148  0.2900 -2.1492  0.4603
   40MOL    H4910267   1.993   4.646   7.754  0.7804  0.0771 -2.0483
   40MOL    H5010268   2.089   4.748   7.656  2.3379 -1.9064  0.0467
   40MOL    H5110269   1.827   4.813   7.680 -0.0276 -0.1857  0.0712
   40MOL    H5210270   1.846   4.848   7.830 -0.9917  1.4723 -1.4929
   40MOL    H5310271   1.933   4.951   7.711 -0.6976  1.1799  1.1310
   40MOL    C5410272   2.131   4.864   0.242 -0.4598  0.0499  0.4536
   40MOL    C5510273   2.034   4.978   0.243  0.3882 -0.1221 -0.0999
   40MOL    O5610274   2.099   5.094   0.293  0.4208  0.3402 -0.0202
   40MOL    C5710275   2.176   5.176   0.206  0.4218  0.1255 -0.4673
   40MOL    C5810276   2.197   5.300   0.279  0.0813 -0.2474 -0.4462
   40MOL    H5910277   2.226   4.897   0.200  0.3442 -1.1854  1.2515
   40MOL    H6010278   2.166   4.832   0.340  2.2702  0.6583 -0.2840
   40MOL    H6110279   1.999   4.994   0.141  2.2758 -0.0503 -0.7540
   40MOL    H6210280   2.106   5.196   0.125 -0.0343  0.1643 -0.0677
   40MOL    H6310281   2.265   5.133   0.160  1.1147  1.5071 -0.4253
   40MOL    H6410282   2.098   5.334   0.308 -0.4259 -1.2403 -1.0184
   40MOL    H6510283   2.261   5.300   0.367  0.8614  0.1089 -1.0072
   40MOL    H6610284   2.244   5.367   0.206  0.8467 -0.5048 -0.1951
   40MOL    C6710285   1.908   4.950   0.328  0.2229 -0.0430 -0.0497
   40MOL    C6810286   1.807   5.064   0.348 -0.4437  0.1451  0.0388
   40MOL    O6910287   1.691   5.012   0.409  0.4012 -0.5433  0.0493
   40MOL    C7010288   1.704   4.965   0.543 -0.4198  0.4983 -0.5258
   40MOL    C7110289   1.560   4.969   0.603 -0.3264 -0.2946 -0.5614
   40MOL    H7210290   1.943   4.911   0.423  0.5921 -0.1781 -0.2399
   40MOL    H7310291   1.850   4.869   0.281 -1.3600 -0.8424  3.1301
   40MOL    H7410292   1.856   5.131   0.419  1.9451 -1.3656 -0.1115
   40MOL    H7510293   1.764   5.038   0.598 -0.5574  0.7132 -0.6623
   40MOL    H7610294   1.752   4.868   0.553 -1.5182  0.1987  2.4794
   40MOL    H7710295   1.536   5.073   0.623  1.3574  0.0601 -0.3059
   40MOL    H7810296   1.488   4.922   0.537 -1.9470 -1.1638  1.7455
   40MOL    H7910297   1.566   4.927   0.704 -0.6741 -0.4825 -0.6199
   40MOL    C8010298   1.764   5.130   0.214 -0.4110 -0.1754 -0.3458
   40MOL    C8110299   1.659   5.242   0.234  0.3203 -0.2368 -0.0320
   40MOL    O8210300   1.615   5.293   0.111  0.5263 -0.2686 -0.1136
   40MOL    C8310301   1.508   5.219   0.053 -0.5335 -0.9796  0.7737
   40MOL    C8410302   1.460   5.311   7.783 -0.5279 -0.1093 -0.8317
   40MOL    H8510303   1.714   5.058   0.149  0.1028  0.6807 -1.7041
   40MOL    H8610304   1.851   5.158   0.155 -0.8359  2.7203  0.3506
   40MOL    H8710305   1.572   5.198   0.284 -1.9377  2.4346 -1.4692
   40MOL    H8810306   1.423   5.207   0.119 -1.8812 -0.0240 -0.7329
   40MOL    H8910307   1.540   5.123   0.013  2.6766  0.8663 -1.4165
   40MOL    H9010308   1.368   5.271   7.741 -2.1962  0.9195  1.7060
   40MOL    H9110309   1.436   5.411   7.818 -2.0682 -1.5704  2.5625
   40MOL    H9210310   1.532   5.299   7.702  0.3014 -1.8222  0.1455
   40MOL    C9310311   1.713   5.357   0.321 -0.7761 -0.4932 -0.3952
   40MOL    C9410312   1.621   5.484   0.335 -0.1950  0.2480  0.0623
   40MOL    O9510313   1.678   5.592   0.402 -0.1737 -0.1307 -0.3409
   40MOL    C9610314   1.776   5.663   0.339 -0.2221  0.5209  1.5688
   40MOL    C9710315   1.802   5.795   0.409 -0.4940 -0.4456 -0.2574
   40MOL    H9810316   1.816   5.385   0.303  0.4710 -3.2531  1.9416
   40MOL    H9910317   1.716   5.314   0.421 -0.7650  1.9134  0.6539
   40MOL   H10010318   1.604   5.511   0.231 -0.2230  2.4445  0.6166
   40MOL   H10110319   1.742   5.669   0.235  3.3081 -1.6402  0.1747
   40MOL   H10210320   1.861   5.597   0.324 -0.3238  0.8837 -0.7797
   40MOL   H10310321   1.886   5.775   0.475  0.3321 -0.9110 -1.4220
   40MOL   H10410322   1.837   5.869   0.336 -0.0256  1.1540  1.5601
   40MOL   H10510323   1.715   5.839   0.457  0.7292  2.5343 -0.6714
   40MOL   C10610324   1.488   5.443   0.402  0.4914  0.4839 -0.1932
   40MOL   C10710325   1.374   5.545   0.393 -0.3898 -0.3422  0.8457
   40MOL   O10810326   1.280   5.509   0.494 -0.3851 -0.5497 -0.2559
   40MOL   C10910327   1.315   5.531   0.630  0.2903 -0.2818  0.9721
   40MOL   C11010328   1.203   5.464   0.713 -0.0931  0.5451  0.1639
   40MOL   H11110329   1.514   5.393   0.495  1.5791  1.5463  0.0854
   40MOL   H11210330   1.443   5.361   0.346 -0.0052 -0.6417  1.7926
   40MOL   H11310331   1.413   5.644   0.415  1.3952 -0.1388 -2.8532
   40MOL   H11410332   1.318   5.638   0.648  2.9175  0.0535 -1.2330
   40MOL   H11510333   1.408   5.500   0.676  0.0348  1.6192  2.8506
   40MOL   H11610334   1.101   5.458   0.674  0.6934 -0.3639 -1.8501
   40MOL   H11710335   1.216   5.358   0.734 -0.5688  0.1266 -1.5280
   40MOL   H11810336   1.187   5.520   0.805 -0.8405 -0.1798  0.4831
   40MOL   C11910337   1.307   5.546   0.258 -0.5341  0.2728 -0.8294
   40MOL   C12010338   1.225   5.678   0.232 -0.2003  0.0663 -0.0757
   40MOL   O12110339   1.300   5.800   0.222  0.2975  0.0552  0.2272
   40MOL   C12210340   1.376   5.807   0.102  0.0934 -0.5873 -0.4236
   40MOL   C12310341   1.307   5.826   7.806  0.3250  0.0634 -0.0907
   40MOL   H12410342   1.252   5.453   0.244  0.1456 -0.0231 -1.5795
   40MOL   H12510343   1.375   5.537   0.174 -2.3797  0.6130 -2.4008
   40MOL   H12610344   1.185   5.657   0.133 -0.6184  0.6923 -0.0426
   40MOL   H12710345   1.448   5.725   0.105 -0.9376 -1.4433  3.8686
   40MOL   H12810346   1.449   5.888   0.105  1.3040 -1.6740  0.1036
   40MOL   H12910347   1.239   5.747   7.775 -0.8760  1.0605 -0.0520
   40MOL   H13010348   1.247   5.917   7.802 -1.9041 -1.3552  0.4068
   40MOL   H13110349   1.380   5.810   7.727 -0.2491  0.6851 -0.7532
   40MOL   C13210350   1.108   5.701   0.325 -0.4318  0.4691 -0.3001
   40MOL   C13310351   0.993   5.594   0.323  0.7831 -0.3984  0.3263
   40MOL   O13410352   0.952   5.598   0.193 -0.3773 -0.0242  0.0257
   40MOL   C13510353   0.940   5.476   0.134 -0.3869  0.0107 -0.8260
   40MOL   C13610354   0.895   5.510   7.828  0.5901 -0.1309 -0.0088
   40MOL   H13710355   1.073   5.804   0.310 -0.0730  0.8288  1.1950
   40MOL   H13810356   1.141   5.703   0.429  1.9343  1.9711 -1.0523
   40MOL   H13910357   1.046   5.501   0.343 -0.1065 -1.4159 -1.8793
   40MOL   H14010358   0.865   5.414   0.184  0.3323  0.3077  0.6425
   40MOL   H14110359   1.031   5.418   0.120  1.2423  2.5494 -1.1392
   40MOL   H14210360   0.979   5.561   7.781  1.5406  0.6775  2.4689
   40MOL   H14310361   0.864   5.423   7.771 -2.7585  0.7584  0.3703
   40MOL   H14410362   0.821   5.587   0.006 -1.1001 -1.2153 -1.8535
   40MOL   C14510363   0.872   5.620   0.416 -0.0071  0.4493 -0.5489
   40MOL   C14610364   0.778   5.503   0.444 -0.3887 -0.0548 -0.4711
   40MOL   O14710365   0.705   5.561   0.554 -0.2196  0.2750  0.0163
   40MOL   C14810366   0.583   5.621   0.529 -0.3590  0.1460  0.7805
   40MOL   C14910367   0.513   5.645   0.657 -0.8107 -0.2803  0.3014
   40MOL   H15010368   0.822   5.712   0.387 -0.7866  0.8258  1.8821
   40MOL   H15110369   0.919   5.645   0.511 -2.2087  0.2282  0.6137
   40MOL   H15210370   0.709   5.488   0.361 -0.6379  0.2022 -0.3065
   40MOL   H15310371   0.526   5.555   0.463 -0.7725  0.7880  0.4919
   40MOL   H15410372   0.598   5.707   0.465  0.9994 -1.8484 -1.6552
   40MOL   H15510373   0.413   5.682   0.632 -0.0406  2.1079  0.6485
   40MOL   H15610374   0.501   5.560   0.724 -1.6291 -0.5152 -0.1390
   40MOL   H15710375   0.551   5.733   0.709  2.0438  0.0265 -2.2312
   40MOL   C15810376   0.827   5.375   0.501  0.1977  0.3957  0.3200
   40MOL   C15910377   0.713   5.276   0.546  0.2457  0.9274 -0.0872
   40MOL   O16010378   0.781   5.177   0.624  0.2040 -0.0674  0.4541
   40MOL   C16110379   0.703   5.108   0.724 -0.0284 -0.0920 -0.1233
   40MOL   C16210380   0.799   4.998   0.775  0.5438  0.9923 -0.0488
   40MOL   H16310381   0.897   5.391   0.583  0.4521 -1.5929  0.5247
   40MOL   H16410382   0.896   5.318   0.438 -0.8568 -0.3137 -0.2099
   40MOL   H16510383   0.645   5.325   0.616  1.5378  2.9097 -0.1732
   40MOL   H16610384   0.609   5.067   0.689  0.2966 -1.4199  0.5088
   40MOL   H16710385   0.675   5.175   0.805  0.6232 -0.0879  0.1034
   40MOL   H16810386   0.859   4.940   0.705 -0.9417 -0.1641 -0.3803
   40MOL   H16910387   0.877   5.052   0.829 -1.1749  3.1672  0.3204
   40MOL   H17010388   0.746   4.923   0.834 -0.0820  0.1977 -1.5938
   40MOL   C17110389   0.634   5.198   0.434  0.2288  0.6009 -0.4667
   40MOL   C17210390   0.502   5.254   0.377  0.9607 -0.0411  0.5196
   40MOL   O17310391   0.413   5.221   0.482 -0.0976 -0.0305 -0.2060
   40MOL   C17410392   0.315   5.318   0.523  0.1377 -0.6821 -0.0112
   40MOL   C17510393   0.241   5.251   0.633 -0.3122  0.5267  1.1597
   40MOL   H17610394   0.609   5.104   0.482 -0.3038  1.8921  1.8315
   40MOL   H17710395   0.700   5.176   0.350 -0.9190  1.9216 -1.7618
   40MOL   H17810396   0.508   5.361   0.353  1.3294 -0.4701 -1.3850
   40MOL   H17910397   0.265   5.362   0.437  0.3526  0.4377  0.4288
   40MOL   H18010398   0.381   5.397   0.561 -0.4905  0.1870 -0.7091
   40MOL   H18110399   0.173   5.178   0.590  0.8798 -1.1434  2.0652
   40MOL   H18210400   0.313   5.192   0.690 -0.5555 -0.6319  0.2679
   40MOL   H18310401   0.177   5.314   0.696 -1.3518 -1.3616  2.0347
   40MOL   C18410402   0.451   5.170   0.255 -0.3505  0.0977 -0.2280
   40MOL   C18510403   0.302   5.196   0.207  0.2242 -0.2942  0.2680
   40MOL   O18610404   0.271   5.107   0.099  0.1190 -0.3474 -0.3850
   40MOL   C18710405   0.243   4.976   0.138  0.2119  0.4001 -0.2792
   40MOL   C18810406   0.159   4.915   0.026  0.0459  0.2020  0.8898
   40MOL   H18910407   0.456   5.062   0.270 -1.5658 -0.2656 -2.2571
   40MOL   H19010408   0.519   5.196   0.174  0.3072  2.8722  1.1583
   40MOL   H19110409   0.237   5.180   0.293 -0.3449  0.9319  0.0757
   40MOL   H19210410   0.187   4.968   0.231  1.6022 -2.3085  0.3769
   40MOL   H19310411   0.329   4.912   0.154 -1.0942 -0.9524  1.6194
   40MOL   H19410412   0.056   4.951   0.023 -0.0210 -0.0328  0.1724
   40MOL   H19510413   0.201   4.942   7.772 -1.0031 -0.0420  0.3618
   40MOL   H19610414   0.151   4.808   0.047  1.2782  0.2089  1.4406
   40MOL   C19710415   0.301   5.336   0.149 -0.3884  0.3195 -0.3146
   40MOL   C19810416   0.181   5.376   0.069  0.1855 -0.4791 -0.1734
   40MOL   O19910417   0.201   5.512   0.030  0.2152 -0.2269 -0.1557
   40MOL   C20010418   0.191   5.543   7.740 -0.1756  0.5445  0.4838
   40MOL   C20110419   0.284   5.655   7.716  0.5531  0.0628  0.1126
   40MOL   H20210420   0.378   5.362   0.075 -0.5406 -1.5711 -1.1483
   40MOL   H20310421   0.316   5.411   0.227 -0.9368  0.1713 -0.0687
   40MOL   H20410422   0.162   5.314   7.825 -0.7685 -0.2002 -0.1669
   40MOL   H20510423   0.087   5.560   7.712 -1.0656 -1.7934  2.1767
   40MOL   H20610424   0.224   5.464   7.672 -0.6832  1.2673 -0.6025
   40MOL   H20710425   0.391   5.634   7.726  0.6852  0.8978  0.4379
   40MOL   H20810426   0.275   5.680   7.610 -0.2261 -1.4090 -0.1812
   40MOL   H20910427   0.256   5.743   7.773  0.5444  0.2687 -0.2043
   40MOL   C21010428   0.054   5.379   0.145  0.2998 -0.2324 -0.3798
   40MOL   C21110429   7.756   5.393   0.075  0.0296  0.6030  0.3139
   40MOL   O21210430   7.655   5.388   0.176  0.5085 -0.8510  0.0734
   40MOL   C21310431   7.621   5.519   0.231 -0.3710  0.0635 -0.5582
   40MOL   C21410432   7.562   5.503   0.370  0.7182  1.0788  0.3392
   40MOL   H21510433   0.062   5.451   0.226  1.0150 -1.5692  0.7670
   40MOL   H21610434   0.052   5.283   0.196 -0.7713  1.2476  2.4745
   40MOL   H21710435   7.753   5.482   0.012 -0.4181  1.7750  1.9579
   40MOL   H21810436   7.543   5.567   0.172 -3.1479 -0.6390  2.4226
   40MOL   H21910437   7.701   5.593   0.226 -0.4955  0.3153  0.8654
   40MOL   H22010438   7.638   5.481   0.445  0.2329  0.2650  0.5930
   40MOL   H22110439   7.536   5.603   0.405  2.5606  1.6969  0.0320
   40MOL   H22210440   7.477   5.435   0.378  1.2226  0.6633  2.4179
   40MOL   C22310441   7.723   5.268   7.835 -0.2689 -0.2362 -0.2190
   40MOL   C22410442   7.580   5.264   7.777 -0.1723 -0.7954  0.1250
   40MOL   O22510443   7.569   5.149   7.692 -0.3758 -0.5170  0.7422
   40MOL   C22610444   7.529   5.029   7.755 -0.1476 -0.0785 -0.0625
   40MOL   C22710445   7.512   4.920   7.649 -0.0045  0.2572 -0.3378
   40MOL   H22810446   7.739   5.179   0.053  0.4875  0.2290  0.2605
   40MOL   H22910447   7.784   5.269   7.745  2.5907 -1.5690  1.6191
   40MOL   H23010448   7.507   5.260   0.014  0.1336  1.4241  0.5376
   40MOL   H23110449   7.440   5.039   7.817  2.4240  3.5927  3.2813
   40MOL   H23210450   7.602   4.998   7.830  0.1397  0.7982  0.0318
   40MOL   H23310451   7.517   4.817   7.682 -1.7384 -0.3788 -1.9820
   40MOL   H23410452   7.420   4.934   7.593 -0.6826  0.3370  0.7852
   40MOL   H23510453   7.592   4.921   7.574  0.8791  1.8689  0.5912
   40MOL   C23610454   7.541   5.385   7.689 -0.1464  0.1626 -0.5195
   40MOL   C23710455   7.390   5.383   7.652 -0.0343  0.2631  0.0244
   40MOL   O23810456   7.358   5.480   7.561 -0.1433 -0.2310  0.0236
   40MOL   C23910457   7.415   5.465   7.429 -0.3923 -0.2079  0.1517
   40MOL   C24010458   7.347   5.575   7.347 -0.4581  0.0894  0.5668
   40MOL   H24110459   7.608   5.378   7.603  0.7883  0.3513  0.1892
   40MOL   H24210460   7.559   5.476   7.746  0.8998 -0.5808  0.3658
   40MOL   H24310461   7.368   5.286   7.605 -1.2157 -0.3428  1.7740
   40MOL   H24410462   7.379   5.371   7.386 -2.9414  1.2499 -1.0088
   40MOL   H24510463   7.524   5.467   7.432 -0.3899 -1.5732  1.9385
   40MOL   H24610464   7.238   5.583   7.346 -0.4356  0.3962  0.6290
   40MOL   H24710465   7.392   5.669   7.378  0.4443 -0.2562  0.3078
   40MOL   H24810466   7.375   5.557   7.243 -0.3000  0.8155  0.4815
   40MOL   C24910467   7.303   5.408   7.772  0.0728  0.4127 -0.5629
   40MOL   C25010468   7.159   5.347   7.752  0.7100 -0.1473  0.2029
   40MOL   O25110469   7.060   5.378   0.011 -0.1045  0.0021  0.1575
   40MOL   C25210470   6.948   5.288   0.013 -0.9693  0.2721  0.6863
   40MOL   C25310471   6.855   5.298   7.733  0.3436  0.2926 -0.3153
   40MOL   H25410472   7.300   5.513   7.799  0.8911  0.9371 -2.4637
   40MOL   H25510473   7.337   5.360   0.020  1.9327 -0.5437 -1.7307
   40MOL   H25610474   7.121   5.361   7.650 -2.1205  1.3913  1.3941
   40MOL   H25710475   6.898   5.321   0.104 -0.6005  2.6390  0.0513
   40MOL   H25810476   6.980   5.184   0.018 -1.0652  0.2123  0.1376
   40MOL   H25910477   6.893   5.253   7.641 -1.1129  0.6665 -1.1092
   40MOL   H26010478   6.769   5.236   7.755  0.2740 -0.0117 -1.3855
   40MOL   H26110479   6.816   5.399   7.721 -0.7641 -0.2580 -1.5009
   40MOL   H26210480   7.161   5.238   7.749  1.1409 -0.1454  0.5060
   41MOL     C110481   1.310   4.278   2.121  0.4234  0.0151 -0.0233
   41MOL     C210482   1.340   4.320   2.263  0.3506  0.3045  0.8682
   41MOL     O310483   1.275   4.444   2.286 -0.1951 -0.3993 -0.7111
   41MOL     C410484   1.265   4.488   2.422 -0.1779  0.2571 -0.2664
   41MOL     C510485   1.208   4.624   2.433  0.0948 -0.4365  0.4338
   41MOL     H610486   1.346   4.351   2.048 -0.1395  0.0921 -0.2337
   41MOL     H710487   1.346   4.182   2.086  1.6328  0.6103 -0.4521
   41MOL     H810488   1.295   4.245   2.329  1.0651  1.3528  2.5963
   41MOL     H910489   1.363   4.480   2.470 -1.3009 -0.7316  1.9490
   41MOL    H1010490   1.207   4.421   2.486  1.9791  0.8798  2.4382
   41MOL    H1110491   1.158   4.649   2.527  2.8699  0.0994  1.8242
   41MOL    H1210492   1.289   4.696   2.421  1.8454 -2.0541  2.0284
   41MOL    H1310493   1.129   4.655   2.365 -0.9705 -0.3254  1.7035
   41MOL    H1410494   1.203   4.280   2.098  0.8695 -0.8249 -2.2504
   41MOL    C1510495   1.490   4.323   2.286 -0.8059 -0.7473  0.2268
   41MOL    C1610496   1.566   4.189   2.264 -0.3528 -0.4939 -0.6643
   41MOL    O1710497   1.517   4.079   2.340  0.4335  0.4837 -0.0287
   41MOL    C1810498   1.521   4.088   2.482  0.1237 -0.1327 -0.7243
   41MOL    C1910499   1.450   3.964   2.536  0.3094 -0.2539  0.7756
   41MOL    H2010500   1.522   4.368   2.380  2.4035  0.7677 -1.5064
   41MOL    H2110501   1.530   4.394   2.213 -0.6158 -2.8587 -1.7836
   41MOL    H2210502   1.561   4.148   2.163 -2.3302 -2.3081  0.1473
   41MOL    H2310503   1.476   4.184   2.506  0.6867  0.2484 -1.2032
   41MOL    H2410504   1.617   4.095   2.534 -0.2133 -0.2169 -0.0879
   41MOL    H2510505   1.343   3.954   2.522  0.6140 -1.5798 -0.7400
   41MOL    H2610506   1.466   3.964   2.644  0.5224 -0.1516  0.7442
   41MOL    H2710507   1.507   3.879   2.497  0.6322  0.2076  0.2284
   41MOL    C2810508   1.722   4.213   2.286  0.0456 -0.0882  0.2644
   41MOL    C2910509   1.807   4.091   2.246  0.1797 -0.4699 -0.2429
   41MOL    O3010510   1.800   3.989   2.350 -0.7396 -0.4279 -0.3337
   41MOL    C3110511   1.752   3.860   2.315 -0.1853  0.3751  0.0548
   41MOL    C3210512   1.872   3.780   2.273 -0.0384  0.0238  0.1806
   41MOL    H3310513   1.739   4.229   2.393 -4.6173  2.1007  0.8209
   41MOL    H3410514   1.753   4.298   2.225  1.1150 -1.7019 -1.4889
   41MOL    H3510515   1.771   4.053   2.150  0.9149 -0.9650 -0.3279
   41MOL    H3610516   1.675   3.876   2.239  1.0457  0.5715 -1.1562
   41MOL    H3710517   1.701   3.810   2.398 -0.8918 -1.3844 -1.4333
   41MOL    H3810518   1.923   3.811   2.182  0.2245 -0.6196  0.1037
   41MOL    H3910519   1.940   3.761   2.357 -0.5778 -0.5718  0.4983
   41MOL    H4010520   1.843   3.679   2.244 -0.7229  0.4602 -0.6732
   41MOL    C4110521   1.956   4.136   2.223 -0.0816 -0.1889  0.0118
   41MOL    C4210522   1.975   4.235   2.107  0.2282 -0.1116 -0.5016
   41MOL    O4310523   1.902   4.205   1.988  0.0220 -0.3771  0.6302
   41MOL    C4410524   1.839   4.317   1.925  0.4796 -0.5584 -0.1959
   41MOL    C4510525   1.771   4.256   1.806  0.2489 -0.7268  0.1228
   41MOL    H4610526   2.016   4.047   2.206  0.4864 -0.1112  1.5060
   41MOL    H4710527   1.997   4.178   2.315  3.0722 -0.4326 -1.2170
   41MOL    H4810528   1.941   4.332   2.145 -0.1533 -0.3653 -0.2005
   41MOL    H4910529   1.900   4.402   1.895 -0.6802  0.0231 -0.9273
   41MOL    H5010530   1.774   4.363   2.000  0.1308  0.9834 -1.4136
   41MOL    H5110531   1.731   4.333   1.739  1.7989  0.5294  0.6038
   41MOL    H5210532   1.851   4.207   1.752  1.2240  1.0598 -0.0846
   41MOL    H5310533   1.695   4.183   1.834 -0.0762 -0.2234  0.5966
   41MOL    C5410534   2.125   4.246   2.069  0.2017 -0.1761 -0.0067
   41MOL    C5510535   2.205   4.357   2.138 -0.3554 -0.1658  0.3271
   41MOL    O5610536   2.181   4.488   2.083  0.2275 -0.0784 -0.1633
   41MOL    C5710537   2.212   4.593   2.172  0.7686 -0.4571  0.1369
   41MOL    C5810538   2.232   4.716   2.087 -0.4934 -0.3268  0.6611
   41MOL    H5910539   2.123   4.279   1.966  0.0208 -1.1252 -0.3129
   41MOL    H6010540   2.175   4.150   2.077  1.9726  0.7482  0.2769
   41MOL    H6110541   2.166   4.355   2.239  1.8309  1.3360  1.2514
   41MOL    H6210542   2.298   4.585   2.238  0.7429 -0.6354  0.1491
   41MOL    H6310543   2.130   4.594   2.245  0.9585  1.7669  0.3549
   41MOL    H6410544   2.143   4.725   2.025 -0.4885 -0.8752  0.5768
   41MOL    H6510545   2.237   4.803   2.153 -1.9071 -0.1100  0.4914
   41MOL    H6610546   2.327   4.700   2.036 -0.4670  1.4419  0.0973
   41MOL    C6710547   2.356   4.325   2.130 -0.3250 -0.0877  0.1126
   41MOL    C6810548   2.380   4.206   2.227 -0.1848 -0.2974 -0.5913
   41MOL    O6910549   2.307   4.222   2.345  0.0096 -0.5809 -0.1241
   41MOL    C7010550   2.268   4.102   2.404  0.1176  0.5230 -0.6027
   41MOL    C7110551   2.209   4.133   2.541  0.0525  0.1278 -0.0691
   41MOL    H7210552   2.418   4.407   2.167  0.3660 -0.5604  0.0249
   41MOL    H7310553   2.382   4.314   2.024  0.9975 -0.6822  0.4818
   41MOL    H7410554   2.366   4.113   2.171  2.2027 -1.5142  0.7673
   41MOL    H7510555   2.360   4.046   2.421 -1.9574 -2.6094  0.6360
   41MOL    H7610556   2.213   4.032   2.341  0.2786  0.1984 -0.3823
   41MOL    H7710557   2.162   4.043   2.580 -0.8394 -0.1447 -1.7695
   41MOL    H7810558   2.269   4.168   2.626  0.9414  0.8985 -1.0036
   41MOL    H7910559   2.125   4.198   2.518  1.0161  0.7380 -1.9061
   41MOL    C8010560   2.528   4.220   2.279  0.2750 -0.3065  0.3852
   41MOL    C8110561   2.641   4.203   2.169  0.2392  0.3220  0.0579
   41MOL    O8210562   2.633   4.074   2.102 -0.0572  0.0760 -0.0062
   41MOL    C8310563   2.616   3.958   2.185 -0.3456  0.7773  0.1363
   41MOL    C8410564   2.648   3.832   2.113  0.0690  0.1090 -0.0794
   41MOL    H8510565   2.543   4.139   2.350  1.0565 -0.8984 -0.4301
   41MOL    H8610566   2.544   4.314   2.331 -0.3254  1.9498 -3.2857
   41MOL    H8710567   2.627   4.288   2.102 -0.8462 -0.1179 -0.2725
   41MOL    H8810568   2.509   3.956   2.206 -0.2719 -0.9939  0.4206
   41MOL    H8910569   2.673   3.965   2.278  1.1941 -1.2184 -0.6348
   41MOL    H9010570   2.755   3.812   2.118  0.2662  0.1682 -3.0427
   41MOL    H9110571   2.611   3.751   2.177  1.5951  0.8878  1.8272
   41MOL    H9210572   2.622   3.824   2.007  1.2026  2.2815 -0.5461
   41MOL    C9310573   2.785   4.223   2.219 -0.0744  0.4985 -0.0047
   41MOL    C9410574   2.892   4.193   2.116 -0.2594 -0.1197  0.1790
   41MOL    O9510575   3.018   4.186   2.175 -0.8068 -0.0797  0.0984
   41MOL    C9610576   3.048   4.054   2.220 -0.6006  0.2899  0.1891
   41MOL    C9710577   3.164   4.066   2.322  0.5257 -0.6248  0.2745
   41MOL    H9810578   2.798   4.167   2.312 -2.4614  1.4647  0.9419
   41MOL    H9910579   2.799   4.325   2.254 -3.6625  1.7950 -2.0969
   41MOL   H10010580   2.872   4.101   2.062  2.3725 -1.1454  0.8894
   41MOL   H10110581   3.082   3.981   2.146 -3.8306 -0.0215 -1.0716
   41MOL   H10210582   2.961   4.009   2.267 -0.6930  1.8299  1.5338
   41MOL   H10310583   3.167   3.976   2.384 -0.2284 -2.4486 -2.2148
   41MOL   H10410584   3.258   4.084   2.270 -0.6600 -0.0055 -1.7382
   41MOL   H10510585   3.143   4.153   2.383 -4.5471 -1.1232 -0.4648
   41MOL   C10610586   2.897   4.302   2.008  0.6507 -0.2249 -0.5531
   41MOL   C10710587   2.984   4.273   1.886 -1.0140 -0.7313 -0.0365
   41MOL   O10810588   3.079   4.383   1.872  0.2450  0.1956  0.4797
   41MOL   C10910589   3.203   4.367   1.947 -0.1579  0.3814  0.0464
   41MOL   C11010590   3.325   4.447   1.908 -0.0314 -0.1935  0.4757
   41MOL   H11110591   2.931   4.394   2.055 -1.1507 -0.6247  1.5860
   41MOL   H11210592   2.795   4.330   1.982  0.0728 -1.7912 -0.0524
   41MOL   H11310593   3.038   4.181   1.911  0.9316  0.7488  1.4565
   41MOL   H11410594   3.235   4.264   1.934  0.5214  0.6782 -0.6441
   41MOL   H11510595   3.172   4.373   2.052 -0.2470 -4.0127  0.3651
   41MOL   H11610596   3.418   4.431   1.963  1.0820  0.5515 -1.1646
   41MOL   H11710597   3.350   4.413   1.808  1.2483  0.3393  0.6058
   41MOL   H11810598   3.299   4.553   1.911 -0.8323 -0.3666 -0.2787
   41MOL   C11910599   2.892   4.261   1.763 -0.3279 -0.2133  0.9421
   41MOL   C12010600   2.802   4.137   1.766  0.3577 -0.4320  0.1570
   41MOL   O12110601   2.896   4.025   1.747  0.4832 -0.0963 -0.3831
   41MOL   C12210602   2.886   3.923   1.843 -0.6488  0.2134  0.4998
   41MOL   C12310603   2.867   3.796   1.760 -0.8802  1.0099 -0.3833
   41MOL   H12410604   2.957   4.257   1.675 -1.4725  1.3403 -0.0078
   41MOL   H12510605   2.823   4.344   1.750  1.3343  0.8124 -1.8802
   41MOL   H12610606   2.743   4.135   1.857 -2.3418  1.0171 -1.5084
   41MOL   H12710607   2.804   3.927   1.915 -1.4270 -2.3746 -0.1896
   41MOL   H12810608   2.981   3.912   1.894  1.1397  1.7779 -2.3874
   41MOL   H12910609   2.767   3.798   1.717 -0.4398 -3.7843 -1.9203
   41MOL   H13010610   2.947   3.780   1.688 -1.0039 -0.2190 -0.2689
   41MOL   H13110611   2.858   3.715   1.833 -2.2251  1.7619  0.2981
   41MOL   C13210612   2.700   4.132   1.655  0.3621 -0.4589  0.1277
   41MOL   C13310613   2.579   4.033   1.675 -0.1509 -0.2037 -0.2100
   41MOL   O13410614   2.530   4.014   1.541 -0.4662  0.3057  0.6469
   41MOL   C13510615   2.594   3.896   1.486 -0.8452  0.3364  0.5899
   41MOL   C13610616   2.588   3.905   1.340 -0.0869  0.8829 -0.4364
   41MOL   H13710617   2.754   4.136   1.561 -0.7372  0.2582 -0.4884
   41MOL   H13810618   2.661   4.233   1.660 -0.0583 -0.6570  0.9827
   41MOL   H13910619   2.613   3.943   1.726  0.3419  1.1392  1.9172
   41MOL   H14010620   2.551   3.809   1.536 -1.0862  0.2380  0.2122
   41MOL   H14110621   2.698   3.904   1.515  0.4142  4.6351 -4.4688
   41MOL   H14210622   2.632   3.993   1.294 -2.3421  1.0312 -2.3726
   41MOL   H14310623   2.627   3.809   1.304 -1.0451  0.0511  0.6870
   41MOL   H14410624   2.482   3.915   1.318 -0.1873  2.2834  0.6232
   41MOL   C14510625   2.456   4.091   1.755 -0.6977  0.3069  0.6526
   41MOL   C14610626   2.335   3.992   1.778  0.2230 -0.3650 -0.0575
   41MOL   O14710627   2.231   4.078   1.828 -0.8157 -0.0387 -0.0046
   41MOL   C14810628   2.112   4.081   1.754  0.3742  0.1428  0.3728
   41MOL   C14910629   2.124   4.117   1.605  0.4693  0.4116  1.3673
   41MOL   H15010630   2.422   4.178   1.698 -0.5301  0.5823  0.9736
   41MOL   H15110631   2.493   4.123   1.852  0.9924 -1.7122  0.7082
   41MOL   H15210632   2.323   3.951   1.678  0.6733  0.3742 -0.4129
   41MOL   H15310633   2.042   4.154   1.794 -1.8004 -1.2577 -0.8092
   41MOL   H15410634   2.068   3.982   1.767 -0.5682  0.4526 -0.3682
   41MOL   H15510635   2.169   4.029   1.559  0.0311  0.7685  0.2417
   41MOL   H15610636   2.022   4.125   1.568  0.6658 -0.4318  0.6419
   41MOL   H15710637   2.174   4.210   1.580 -0.7510  0.5475 -0.6853
   41MOL   C15810638   2.361   3.865   1.858 -0.0215  0.2106 -0.7445
   41MOL   C15910639   2.239   3.785   1.904 -0.3306 -0.0717 -1.1603
   41MOL   O16010640   2.277   3.717   2.028 -0.2830 -0.6259 -0.6267
   41MOL   C16110641   2.269   3.776   2.151  0.8016 -0.1946 -0.4073
   41MOL   C16210642   2.313   3.675   2.262  0.3186  0.0294 -0.2703
   41MOL   H16310643   2.420   3.886   1.947 -0.3911 -0.8571 -0.2473
   41MOL   H16410644   2.434   3.795   1.816  1.2190 -0.2651  2.0919
   41MOL   H16510645   2.153   3.850   1.922  0.9444  1.4537 -0.3985
   41MOL   H16610646   2.164   3.806   2.162  0.8437 -0.3128  0.3256
   41MOL   H16710647   2.319   3.872   2.149  1.4566 -0.5394 -1.3150
   41MOL   H16810648   2.321   3.721   2.360  0.9163  0.6559 -0.6062
   41MOL   H16910649   2.236   3.599   2.263 -0.4918  0.8444  0.0472
   41MOL   H17010650   2.408   3.626   2.243  0.3937  0.1552 -0.2191
   41MOL   C17110651   2.177   3.688   1.803  1.3199  0.7918  0.5690
   41MOL   C17210652   2.035   3.627   1.833  0.1101 -0.2882 -0.0952
   41MOL   O17310653   1.948   3.740   1.873 -0.3495 -0.2497 -0.3701
   41MOL   C17410654   1.811   3.712   1.872  0.0548 -0.0242  1.0043
   41MOL   C17510655   1.746   3.851   1.888 -0.1231 -0.5992 -0.1447
   41MOL   H17610656   2.244   3.610   1.767 -1.9007 -0.1440 -3.9265
   41MOL   H17710657   2.157   3.743   1.711  0.4919 -2.0560 -1.0244
   41MOL   H17810658   1.981   3.591   1.745  0.4206 -0.1970 -0.3262
   41MOL   H17910659   1.784   3.638   1.948  1.8718 -3.2525 -1.3916
   41MOL   H18010660   1.784   3.675   1.773  1.2999  1.6555  0.0152
   41MOL   H18110661   1.760   3.915   1.801  0.7812  0.2338  0.5966
   41MOL   H18210662   1.639   3.831   1.892 -0.6993  2.5041  1.4298
   41MOL   H18310663   1.773   3.898   1.983 -2.5430 -2.4287  1.5162
   41MOL   C18410664   2.044   3.522   1.949 -0.1856  0.4584  0.3574
   41MOL   C18510665   2.115   3.384   1.913  0.0501 -0.7404 -0.5265
   41MOL   O18610666   2.062   3.338   1.789 -0.1170  0.6758  0.2658
   41MOL   C18710667   2.140   3.348   1.670  0.7603  0.3371 -0.0681
   41MOL   C18810668   2.069   3.282   1.554  1.2477 -0.4465  0.6137
   41MOL   H18910669   1.947   3.494   1.989  0.4667 -1.2647  0.7585
   41MOL   H19010670   2.076   3.575   2.039  0.9621  0.0963  0.1754
   41MOL   H19110671   2.219   3.409   1.894  0.2212 -0.6245  0.5314
   41MOL   H19210672   2.228   3.293   1.703  1.2767 -0.8502 -3.2507
   41MOL   H19310673   2.174   3.449   1.647 -0.8426  1.0940  0.8065
   41MOL   H19410674   2.031   3.183   1.579 -0.9901 -0.1587 -1.3753
   41MOL   H19510675   1.980   3.340   1.527  1.2514 -0.4035  0.6972
   41MOL   H19610676   2.136   3.282   1.468 -1.9096  2.0245 -1.9883
   41MOL   C19710677   2.091   3.264   2.014  0.0934 -0.6733 -0.3334
   41MOL   C19810678   2.158   3.256   2.160 -0.0629 -0.4488  0.0669
   41MOL   O19910679   2.086   3.338   2.246  0.5525 -0.3590  0.5021
   41MOL   C20010680   2.097   3.303   2.374  0.1387  0.3909 -0.7151
   41MOL   C20110681   2.001   3.393   2.448 -0.4962  0.3280  0.1213
   41MOL   H20210682   2.128   3.180   1.956  1.4275  0.2407 -0.8481
   41MOL   H20310683   1.984   3.247   2.025  0.3226 -1.7495  0.2404
   41MOL   H20410684   2.163   3.152   2.192 -1.6157 -0.7973 -0.7474
   41MOL   H20510685   2.197   3.318   2.415 -1.2012 -0.0229  2.8769
   41MOL   H20610686   2.063   3.202   2.399 -2.0792  1.6327  1.5505
   41MOL   H20710687   2.023   3.498   2.431 -1.2994  0.1479 -2.1819
   41MOL   H20810688   1.898   3.374   2.417 -0.6261  0.6711  0.3404
   41MOL   H20910689   1.994   3.378   2.555  1.3865  1.3505  0.4063
   41MOL   C21010690   2.303   3.286   2.156 -0.1957 -0.0609 -0.9387
   41MOL   C21110691   2.389   3.201   2.054 -0.0926  0.1435  0.0097
   41MOL   O21210692   2.341   3.067   2.041  0.6934  0.2871  0.4792
   41MOL   C21310693   2.341   3.007   1.909 -0.0319 -0.0159 -0.0769
   41MOL   C21410694   2.264   2.877   1.922 -0.1671 -0.7560 -0.1803
   41MOL   H21510695   2.348   3.276   2.255 -2.2958 -0.0020  0.0595
   41MOL   H21610696   2.324   3.391   2.137 -0.0709  0.1207  0.1505
   41MOL   H21710697   2.370   3.244   1.955  2.2768  1.1782 -0.0287
   41MOL   H21810698   2.448   2.997   1.888  0.2448 -3.1662  2.5360
   41MOL   H21910699   2.292   3.057   1.825 -0.6973  0.1061  0.3781
   41MOL   H22010700   2.277   2.816   1.833 -2.5354  2.1023 -2.6214
   41MOL   H22110701   2.305   2.819   2.004  1.2189 -0.4601 -0.6574
   41MOL   H22210702   2.156   2.890   1.932  0.0991  0.8847  0.6979
   41MOL   C22310703   2.543   3.199   2.083 -0.4465 -0.6647 -0.2217
   41MOL   C22410704   2.616   3.337   2.095  0.4101 -0.2041 -0.1103
   41MOL   O22510705   2.597   3.403   2.222 -0.2296  0.0168  0.1705
   41MOL   C22610706   2.698   3.392   2.318 -0.4351 -0.1956  0.1247
   41MOL   C22710707   2.653   3.490   2.440 -0.3878  0.9336  0.5646
   41MOL   H22810708   2.599   3.133   2.017  0.1317 -1.4414  1.0320
   41MOL   H22910709   2.549   3.147   2.178 -0.3814  2.0705  1.3230
   41MOL   H23010710   2.724   3.329   2.086  0.3152 -0.5420 -0.9994
   41MOL   H23110711   2.782   3.445   2.274 -0.7255 -0.2076 -0.4548
   41MOL   H23210712   2.715   3.291   2.354 -0.4867  0.0802  0.9406
   41MOL   H23310713   2.546   3.496   2.456 -0.5582 -0.5899  0.0117
   41MOL   H23410714   2.699   3.442   2.526 -1.7827 -0.1673  0.7067
   41MOL   H23510715   2.694   3.589   2.416  0.3277  0.2574 -1.1180
   41MOL   C23610716   2.587   3.444   1.987  0.4545  0.2571  0.3569
   41MOL   C23710717   2.607   3.401   1.839 -0.4957 -0.1412  0.1211
   41MOL   O23810718   2.750   3.382   1.813  0.2606  0.2973  0.2637
   41MOL   C23910719   2.816   3.255   1.828  0.4288  0.0370 -0.7045
   41MOL   C24010720   2.961   3.274   1.808  0.5227 -0.7233  0.4253
   41MOL   H24110721   2.664   3.521   1.992  0.4855  0.1960  0.9030
   41MOL   H24210722   2.492   3.496   1.996 -0.5347 -1.1499 -1.6500
   41MOL   H24310723   2.561   3.305   1.814  2.6115 -2.3554  2.5212
   41MOL   H24410724   2.781   3.196   1.744  1.7845  0.7940 -1.8380
   41MOL   H24510725   2.802   3.210   1.926  0.1158  0.2908 -0.6308
   41MOL   H24610726   3.020   3.185   1.828 -1.7954 -1.7407  3.0545
   41MOL   H24710727   2.984   3.318   1.712  0.0260  0.5827  0.8944
   41MOL   H24810728   2.995   3.351   1.877 -0.2953 -0.1553  0.2054
   41MOL   C24910729   2.555   3.498   1.740 -0.1541  0.1100 -0.2096
   41MOL   C25010730   2.563   3.459   1.592  0.2960  0.1482  0.3659
   41MOL   O25110731   2.454   3.507   1.517 -0.2761  0.0622  0.6419
   41MOL   C25210732   2.500   3.539   1.389 -0.2380 -0.4172  0.0520
   41MOL   C25310733   2.396   3.598   1.301  0.8340 -1.1029 -0.4515
   41MOL   H25410734   2.601   3.595   1.758  0.4116 -0.3829  0.9781
   41MOL   H25510735   2.450   3.520   1.758 -0.5667 -0.3356 -1.9454
   41MOL   H25610736   2.658   3.505   1.564  1.1836 -0.5929  2.0817
   41MOL   H25710737   2.556   3.456   1.344  0.9229  0.0719  0.5660
   41MOL   H25810738   2.580   3.613   1.385 -0.7319  0.0421 -2.2446
   41MOL   H25910739   2.333   3.514   1.272 -0.4752  0.2893 -1.6824
   41MOL   H26010740   2.332   3.670   1.352  2.9651  1.9132 -1.8738
   41MOL   H26110741   2.437   3.641   1.210 -0.1082  0.1795 -0.2802
   41MOL   H26210742   2.593   3.355   1.575 -1.6665 -0.7429  2.1184
   42MOL     C110743   0.292   7.529   1.240 -0.3098  0.3015  0.1226
   42MOL     C210744   0.179   7.498   1.330 -0.0239  1.2457 -0.7390
   42MOL     O310745   0.186   7.597   1.431  0.3025 -0.0208 -0.1541
   42MOL     C410746   0.093   7.706   1.425  0.1317  0.1590 -1.1692
   42MOL     C510747   0.145   7.812   1.517 -0.0057  0.2505  0.1288
   42MOL     H610748   0.278   7.632   1.206  0.7627  0.5869  0.5152
   42MOL     H710749   0.394   7.517   1.277 -0.7942  0.3684  1.4885
   42MOL     H810750   0.087   7.513   1.274 -1.5909 -0.1308  1.3759
   42MOL     H910751   7.835   7.674   1.447 -0.1618  2.2702  0.7245
   42MOL    H1010752   0.086   7.736   1.321  2.2619  1.0784 -1.0626
   42MOL    H1110753   0.167   7.786   1.620 -0.1333 -0.6349 -0.0651
   42MOL    H1210754   0.234   0.012   1.473 -0.1626  1.0745  0.6171
   42MOL    H1310755   0.086   0.060   1.525 -1.2878 -0.4380 -1.2635
   42MOL    H1410756   0.285   7.466   1.151  2.0775  0.0716  0.0599
   42MOL    C1510757   0.186   7.358   1.403  0.0587  0.2822 -0.2933
   42MOL    C1610758   0.062   7.326   1.492 -0.0442  0.0181 -0.8579
   42MOL    O1710759   0.061   7.194   1.549 -0.1774  0.3337 -0.4875
   42MOL    C1810760   0.148   7.195   1.662 -0.0177 -0.5136  0.1648
   42MOL    C1910761   0.159   7.049   1.718 -0.1279 -0.5819 -0.0182
   42MOL    H2010762   0.270   7.371   1.471  0.9789  0.2320 -1.3892
   42MOL    H2110763   0.201   7.282   1.326 -4.1361  0.0588 -1.0239
   42MOL    H2210764   0.064   7.396   1.576  1.1277 -0.4860 -0.4466
   42MOL    H2310765   0.120   7.266   1.740  1.4333  0.8829 -0.5561
   42MOL    H2410766   0.249   7.207   1.623  0.3012 -1.0743  0.8139
   42MOL    H2510767   0.060   7.013   1.748 -0.9288 -0.1566 -2.0406
   42MOL    H2610768   0.229   7.028   1.799  0.8935  0.1898 -0.6884
   42MOL    H2710769   0.197   6.979   1.644  1.5802  0.0657  0.2365
   42MOL    C2810770   7.771   7.333   1.419  0.6201  0.4256 -0.2429
   42MOL    C2910771   7.638   7.304   1.495  0.3016 -0.1758  0.3628
   42MOL    O3010772   7.536   7.338   1.406 -0.1793 -0.5148 -0.4043
   42MOL    C3110773   7.491   7.233   1.321 -0.0089 -0.5566 -0.2341
   42MOL    C3210774   7.393   7.310   1.233  0.0079 -0.4915  0.6640
   42MOL    H3310775   7.762   7.261   1.337 -1.8523  0.7954 -0.3509
   42MOL    H3410776   7.763   7.433   1.375  0.5880 -0.2060 -1.7070
   42MOL    H3510777   7.635   7.199   1.523  1.5405 -0.2687  0.1841
   42MOL    H3610778   7.445   7.149   1.372  0.2661 -0.8469 -0.4631
   42MOL    H3710779   7.579   7.190   1.273  0.4715  1.2860 -1.0419
   42MOL    H3810780   7.309   7.360   1.282  1.3686  1.7069  0.8208
   42MOL    H3910781   7.439   7.390   1.175 -1.9963 -1.6202 -2.6091
   42MOL    H4010782   7.345   7.241   1.164 -1.9932  0.5760  0.9553
   42MOL    C4110783   7.613   7.376   1.626  0.3087 -0.3142 -0.6832
   42MOL    C4210784   7.485   7.327   1.710  0.0865 -0.3340 -0.2130
   42MOL    O4310785   7.505   7.194   1.752 -0.1930 -0.1686  0.1766
   42MOL    C4410786   7.598   7.176   1.849  0.4365 -0.6829 -0.5419
   42MOL    C4510787   7.654   7.039   1.845  0.0546  0.0711  0.2117
   42MOL    H4610788   7.587   7.478   1.597 -0.9478 -0.2759  0.5423
   42MOL    H4710789   7.704   7.380   1.686  1.4741 -2.0837 -2.2563
   42MOL    H4810790   7.475   7.396   1.793 -0.1720  2.0053 -2.1449
   42MOL    H4910791   7.562   7.202   1.949  2.3876  0.1122 -0.0369
   42MOL    H5010792   7.685   7.242   1.850 -0.1470  0.1059 -1.1180
   42MOL    H5110793   7.731   7.025   1.921  0.4760  0.2769 -0.1781
   42MOL    H5210794   7.578   6.961   1.850  0.2654 -0.3175 -2.1272
   42MOL    H5310795   7.702   7.020   1.749  1.2409  2.8969  0.1883
   42MOL    C5410796   7.353   7.347   1.641  0.3859  0.0311 -0.1833
   42MOL    C5510797   7.230   7.300   1.720 -0.0798  0.4332 -0.2154
   42MOL    O5610798   7.107   7.303   1.653 -0.0853  0.1459 -0.5738
   42MOL    C5710799   7.087   7.186   1.569 -0.8258  0.4262 -0.6390
   42MOL    C5810800   6.992   7.095   1.640  1.1396 -0.3919 -0.1090
   42MOL    H5910801   7.336   7.298   1.545  0.9310 -1.3174  0.3918
   42MOL    H6010802   7.326   7.449   1.615  0.2732 -0.1637 -0.8283
   42MOL    H6110803   7.241   7.201   1.763 -0.9959  0.7732  0.8208
   42MOL    H6210804   7.179   7.135   1.542 -1.5888 -0.4348 -1.6513
   42MOL    H6310805   7.042   7.225   1.477 -0.7388 -1.2436 -1.4016
   42MOL    H6410806   7.055   7.041   1.710 -0.4302  0.9059  2.3859
   42MOL    H6510807   6.918   7.157   1.691 -0.4011 -0.4039 -2.2323
   42MOL    H6610808   6.939   7.024   1.577 -0.8489  1.0999 -0.1603
   42MOL    C6710809   7.207   7.409   1.834 -0.1745  0.9537 -0.6397
   42MOL    C6810810   7.095   7.369   1.938  0.7137 -0.5040  0.7336
   42MOL    O6910811   7.066   7.489   2.016 -0.4159 -0.0276 -0.4203
   42MOL    C7010812   6.929   7.522   2.041  0.5207 -0.2597  0.3711
   42MOL    C7110813   6.923   7.662   2.100 -0.4795  0.5324  0.4234
   42MOL    H7210814   7.179   7.503   1.788 -1.8354  0.5179 -0.5428
   42MOL    H7310815   7.291   7.427   1.901  0.0256 -5.3027  1.0895
   42MOL    H7410816   7.005   7.351   1.878 -0.3034 -0.0326  2.1133
   42MOL    H7510817   6.884   7.454   2.113 -0.5490  0.5469  0.4837
   42MOL    H7610818   6.874   7.515   1.947  1.2991  0.3653 -0.1339
   42MOL    H7710819   6.958   7.663   2.203 -0.4316 -1.6329  0.4533
   42MOL    H7810820   6.990   7.719   2.037 -1.5535 -0.6610 -1.8598
   42MOL    H7910821   6.820   7.700   2.104 -0.7086  0.0088 -0.4721
   42MOL    C8010822   7.142   7.250   2.027 -0.3571  0.5928  1.0966
   42MOL    C8110823   7.051   7.207   2.138  0.2667  0.1964 -0.0440
   42MOL    O8210824   7.124   7.112   2.213  0.3087 -0.4481 -0.5123
   42MOL    C8310825   7.169   7.163   2.331 -0.2816  1.0325 -0.1854
   42MOL    C8410826   7.194   7.046   2.427  0.2812  0.7435 -0.2054
   42MOL    H8510827   7.238   7.274   2.073  1.3714 -1.5951 -1.2153
   42MOL    H8610828   7.173   7.167   1.964 -1.7502  1.1650 -0.3838
   42MOL    H8710829   7.028   7.297   2.194 -1.3485  0.2780 -0.7949
   42MOL    H8810830   7.085   7.216   2.377 -1.9377  0.1292 -2.0995
   42MOL    H8910831   7.257   7.227   2.320  1.4119 -1.6197 -2.5515
   42MOL    H9010832   7.223   7.095   2.520  2.5189  0.7245 -0.8664
   42MOL    H9110833   7.121   6.969   2.453  1.8517 -0.4482  0.7187
   42MOL    H9210834   7.280   6.988   2.395 -2.3350 -2.4045 -1.8874
   42MOL    C9310835   6.916   7.137   2.097  0.3591  0.0830 -0.6585
   42MOL    C9410836   6.807   7.132   2.206 -0.6103 -0.5519 -0.2425
   42MOL    O9510837   6.683   7.078   2.146 -0.7445 -0.0488  0.0894
   42MOL    C9610838   6.661   6.944   2.167  0.1355 -0.1557 -0.6630
   42MOL    C9710839   6.512   6.919   2.132  0.4224 -0.2922  0.7922
   42MOL    H9810840   6.930   7.039   2.050 -0.2321  0.0496 -0.7697
   42MOL    H9910841   6.863   7.199   2.025  0.9344  2.1567  0.6728
   42MOL   H10010842   6.842   7.070   2.288  1.4999  0.3652 -0.4118
   42MOL   H10110843   6.669   6.916   2.272 -0.9530  2.5390  0.1648
   42MOL   H10210844   6.714   6.890   2.088  2.2107 -1.7663  1.7428
   42MOL   H10310845   6.489   6.813   2.122  0.4904 -0.2936  0.6583
   42MOL   H10410846   6.433   6.971   2.188 -0.2689 -0.4220 -0.0573
   42MOL   H10510847   6.508   6.951   2.028 -3.3272 -0.1963  0.9042
   42MOL   C10610848   6.767   7.263   2.272  0.1312  0.2734 -0.1752
   42MOL   C10710849   6.657   7.251   2.387 -0.2595  0.4300 -0.0840
   42MOL   O10810850   6.584   7.368   2.360  0.4048 -0.5835  0.3963
   42MOL   C10910851   6.455   7.367   2.424  1.1809 -0.2252  0.4011
   42MOL   C11010852   6.411   7.505   2.382  0.9319 -0.6824 -0.0538
   42MOL   H11110853   6.725   7.324   2.192 -0.4191 -0.3281 -0.3528
   42MOL   H11210854   6.849   7.322   2.313 -0.7853  0.8563  0.8456
   42MOL   H11310855   6.604   7.156   2.373  1.4352 -0.2904 -1.7537
   42MOL   H11410856   6.460   7.347   2.531 -2.0381  0.3180  0.7052
   42MOL   H11510857   6.389   7.293   2.379  0.6663  0.7652 -0.5071
   42MOL   H11610858   6.386   7.513   2.277  3.1709  2.1760 -0.4192
   42MOL   H11710859   6.324   7.530   2.444  0.7767 -1.6431  0.1343
   42MOL   H11810860   6.478   7.586   2.409 -1.3649  1.0421  0.6579
   42MOL   C11910861   6.719   7.265   2.527 -0.1794 -0.2692  0.2962
   42MOL   C12010862   6.810   7.151   2.584 -0.0903  0.3004 -0.1981
   42MOL   O12110863   6.737   7.035   2.564 -0.0424 -0.1698  0.2507
   42MOL   C12210864   6.813   6.919   2.558  0.6334 -0.7798  0.0464
   42MOL   C12310865   6.707   6.808   2.587  0.1060  0.0295  0.0864
   42MOL   H12410866   6.642   7.281   2.603  0.9451  1.6840  1.0626
   42MOL   H12510867   6.774   7.359   2.529  0.6085 -0.6711 -1.6200
   42MOL   H12610868   6.895   7.136   2.517 -0.2833  0.0017 -0.3787
   42MOL   H12710869   6.892   6.921   2.633  0.9124  1.8371 -0.2605
   42MOL   H12810870   6.867   6.907   2.464 -0.8858  1.5407 -1.1595
   42MOL   H12910871   6.727   6.702   2.573 -1.0383 -0.0584 -0.9487
   42MOL   H13010872   6.673   6.810   2.691  1.7139 -1.0360  0.6417
   42MOL   H13110873   6.617   6.813   2.525 -0.5884  0.9058  1.1518
   42MOL   C13210874   6.833   7.165   2.737 -0.3844 -0.2475  0.3398
   42MOL   C13310875   6.917   7.290   2.772 -0.5404 -0.4429  0.3499
   42MOL   O13410876   7.052   7.262   2.731 -0.5559 -0.4315 -0.1588
   42MOL   C13510877   7.094   7.371   2.645 -0.1570  0.0773 -0.8375
   42MOL   C13610878   7.240   7.387   2.680  0.1942 -0.4056  0.2223
   42MOL   H13710879   6.868   7.074   2.786  1.8636  0.9794  1.0889
   42MOL   H13810880   6.735   7.175   2.782  0.1442  0.6643  1.3140
   42MOL   H13910881   6.864   7.380   2.739  2.2069  0.3916 -1.9560
   42MOL   H14010882   7.045   7.462   2.682  1.1143 -0.0278  1.2213
   42MOL   H14110883   7.084   7.352   2.539 -1.6921  2.6221 -1.2015
   42MOL   H14210884   7.288   7.290   2.692 -1.3664 -0.9608  2.2796
   42MOL   H14310885   7.279   7.445   2.596 -1.6470  2.6905  1.4161
   42MOL   H14410886   7.272   7.436   2.772 -2.6267 -0.9531  1.5560
   42MOL   C14510887   6.930   7.299   2.925 -0.6701 -0.2983 -0.4726
   42MOL   C14610888   7.021   7.414   2.992 -0.5072  0.4049  0.2197
   42MOL   O14710889   7.043   7.362   3.123  0.0643  0.7774 -0.2074
   42MOL   C14810890   7.181   7.325   3.142  0.2269 -0.2230 -0.7247
   42MOL   C14910891   7.205   7.281   3.283  0.2682  0.2521 -0.2100
   42MOL   H15010892   6.975   7.203   2.951  0.0976 -0.0357 -0.8524
   42MOL   H15110893   6.828   7.299   2.966  0.3524  1.8406  2.2720
   42MOL   H15210894   7.117   7.436   2.944  0.5685 -2.1396  1.1060
   42MOL   H15310895   7.246   7.409   3.118 -0.7270  1.0679  1.1725
   42MOL   H15410896   7.216   7.236   3.089  1.5370 -0.9075  1.2415
   42MOL   H15510897   7.217   7.371   3.344  0.6929  0.0278  0.0344
   42MOL   H15610898   7.138   7.220   3.343  0.5474 -0.0295 -0.1850
   42MOL   H15710899   7.303   7.240   3.305 -0.1794 -0.4099  0.5982
   42MOL   C15810900   6.947   7.547   2.997 -0.2326 -0.3235 -0.4765
   42MOL   C15910901   7.018   7.657   3.085 -0.6197  0.5774 -0.4042
   42MOL   O16010902   6.924   7.756   3.110  0.2716  0.0586 -0.0050
   42MOL   C16110903   6.924   7.802   3.245 -0.3467 -0.9506 -0.3105
   42MOL   C16210904   6.816   0.066   3.260 -0.1174 -0.4680 -0.0039
   42MOL   H16310905   6.857   7.520   3.053  0.1135  1.8251  1.1576
   42MOL   H16410906   6.919   7.579   2.897  0.7921 -0.5523 -0.8383
   42MOL   H16510907   7.051   7.616   3.180  1.1921  0.5224 -1.0381
   42MOL   H16610908   7.019   7.843   3.279 -0.3609  0.7111 -2.1925
   42MOL   H16710909   6.900   7.720   3.312 -0.0971 -0.2099  0.7092
   42MOL   H16810910   6.713   0.042   3.233  0.0097  1.2551 -2.1472
   42MOL   H16910911   6.812   0.103   3.362 -1.5850  0.1250 -0.2758
   42MOL   H17010912   6.840   0.162   3.215 -4.7555  1.4692  1.4409
   42MOL   C17110913   7.136   7.725   3.025  0.8652  0.1188 -0.0557
   42MOL   C17210914   7.151   7.772   2.879 -0.3728  0.0874  0.0281
   42MOL   O17310915   7.273   7.830   2.870 -0.4481  0.4003 -0.5575
   42MOL   C17410916   7.351   7.814   2.757  0.4278  0.5115  0.7077
   42MOL   C17510917   7.465   0.072   2.756 -0.3358  0.1731  0.3706
   42MOL   H17610918   7.225   7.664   3.042 -0.4046 -0.8699  3.3622
   42MOL   H17710919   7.152   7.813   3.088 -1.9213 -0.2887  1.3021
   42MOL   H17810920   7.159   7.683   2.817 -0.0414 -0.6176  1.0575
   42MOL   H17910921   7.289   7.839   2.671  0.0255 -1.0554  0.5315
   42MOL   H18010922   7.391   7.715   2.735  1.2410  0.9103  0.3492
   42MOL   H18110923   7.523   0.079   2.848  1.3683 -0.7986 -0.6108
   42MOL   H18210924   7.530   0.055   2.671 -0.9938 -0.6503  0.0303
   42MOL   H18310925   7.430   0.173   2.734 -1.4748 -0.5216 -1.0794
   42MOL   C18410926   7.033   0.017   2.823  0.1855 -0.5096 -0.4364
   42MOL   C18510927   6.971   7.822   2.687  0.1699 -0.1066  0.4779
   42MOL   O18610928   7.046   0.014   2.574 -0.3203  0.1269  0.1004
   42MOL   C18710929   7.068   0.149   2.544 -0.3462  0.2523 -0.1557
   42MOL   C18810930   7.160   0.147   2.419 -0.2785  0.2715 -0.2016
   42MOL   H18910931   7.062   0.122   2.821  1.6365 -0.9064 -1.1365
   42MOL   H19010932   6.962   0.024   2.906  1.1811 -1.4177  0.5281
   42MOL   H19110933   6.974   7.713   2.689 -2.0269 -0.2005  0.0873
   42MOL   H19210934   7.103   0.213   2.625 -0.7517 -0.3838  0.5279
   42MOL   H19310935   6.974   0.197   2.513 -1.0824 -2.6529 -2.6015
   42MOL   H19410936   7.120   0.092   2.334  0.1837  1.0792 -0.9472
   42MOL   H19510937   7.164   0.249   2.382  1.9250 -0.0819 -1.0095
   42MOL   H19610938   7.268   0.150   2.435 -0.1516  2.0438 -1.3138
   42MOL   C19710939   6.821   0.021   2.675 -0.2344  0.0891 -0.8428
   42MOL   C19810940   6.749   7.765   2.579 -0.2332 -0.7269  0.9039
   42MOL   O19910941   6.657   7.834   2.494  0.2364  0.1216 -0.1152
   42MOL   C20010942   6.688   7.841   2.361  0.4310  0.3664  0.1302
   42MOL   C20110943   6.555   0.018   2.287 -0.6122  0.0851  0.3108
   42MOL   H20210944   6.806   0.119   2.629  0.0220 -0.1083 -1.3477
   42MOL   H20310945   6.757   0.027   2.764  3.5021  1.4187  1.9002
   42MOL   H20410946   6.831   7.732   2.516 -0.1485  1.1653 -0.0150
   42MOL   H20510947   6.743   7.753   2.329 -0.0027 -0.4756  1.6418
   42MOL   H20610948   6.759   0.080   2.351 -2.3346  2.7016 -1.1314
   42MOL   H20710949   6.580   0.046   2.185 -3.1455 -0.2343 -0.4446
   42MOL   H20810950   6.488   7.776   2.279 -0.6780  0.0084  1.5422
   42MOL   H20910951   6.499   0.106   2.320 -1.1708  0.4343 -1.5228
   42MOL   C21010952   6.700   7.634   2.639 -0.1265  0.0398  0.7544
   42MOL   C21110953   6.582   7.633   2.741 -0.6808 -0.0463  0.7393
   42MOL   O21210954   6.556   7.489   2.758 -0.0957 -1.0171 -0.3305
   42MOL   C21310955   6.476   7.464   2.877 -0.2999 -0.4211 -0.5293
   42MOL   C21410956   6.494   7.313   2.918  0.1151  0.2693 -0.3889
   42MOL   H21510957   6.785   7.576   2.676  0.0082  0.2970  0.8508
   42MOL   H21610958   6.667   7.582   2.549  0.7168  0.4593  0.1861
   42MOL   H21710959   6.608   7.674   2.838 -1.4350 -1.0316  1.3643
   42MOL   H21810960   6.370   7.485   2.862 -1.0323 -0.5739  3.9235
   42MOL   H21910961   6.506   7.524   2.963  2.1166 -0.7897 -1.0750
   42MOL   H22010962   6.579   7.289   2.982  0.1821  1.7896  0.1119
   42MOL   H22110963   6.415   7.290   2.990  0.7454 -0.9023 -0.0575
   42MOL   H22210964   6.498   7.243   2.835  0.7023  1.5872 -1.4857
   42MOL   C22310965   6.450   7.706   2.698 -0.0147 -0.5562 -0.3648
   42MOL   C22410966   6.425   7.835   2.787  1.1756 -0.1582 -0.0833
   42MOL   O22510967   6.403   7.801   2.926 -0.3436  0.1124 -0.0358
   42MOL   C22610968   6.496   0.011   3.018 -0.4940  0.0799 -0.4099
   42MOL   C22710969   6.454   0.147   3.056  0.4725  0.0130  0.1533
   42MOL   H22810970   6.367   7.637   2.711  0.3934 -0.6988  1.7158
   42MOL   H22910971   6.448   7.731   2.592 -0.8964 -0.3310 -0.3004
   42MOL   H23010972   6.517   0.049   2.776  0.5458  0.6603 -1.2247
   42MOL   H23110973   6.599   0.023   2.985 -0.8712  1.1294 -1.2295
   42MOL   H23210974   6.498   7.789   3.104  0.9846  0.8241  0.1381
   42MOL   H23310975   6.348   0.145   3.083  0.6119 -0.3913  0.6783
   42MOL   H23410976   6.518   0.177   3.139 -0.1038  0.3303  0.4925
   42MOL   H23510977   6.480   0.213   2.974 -0.0586  0.1783  0.1144
   42MOL   C23610978   6.298   0.071   2.728  0.1561 -0.4671 -0.5837
   42MOL   C23710979   6.327   0.150   2.604 -0.3650  0.1771  0.0022
   42MOL   O23810980   6.383   0.274   2.641 -0.2459  0.3001  0.0197
   42MOL   C23910981   6.513   0.311   2.589 -0.1427 -0.1814 -0.1966
   42MOL   C24010982   6.561   0.434   2.668  0.4734  0.4049  0.1294
   42MOL   H24110983   6.259   0.139   2.804 -1.2409 -0.0876 -1.6224
   42MOL   H24210984   6.215   0.003   2.709  0.6331 -1.0279 -0.6604
   42MOL   H24310985   6.399   0.092   2.545  0.5722 -0.7696  2.0246
   42MOL   H24410986   6.507   0.337   2.484 -1.3115 -0.8271 -0.3018
   42MOL   H24510987   6.581   0.227   2.590  1.0226  0.7475  2.0050
   42MOL   H24610988   6.564   0.408   2.774  1.1323  1.1151  0.2904
   42MOL   H24710989   6.659   0.469   2.638  0.5426 -0.3282 -0.5104
   42MOL   H24810990   6.501   0.525   2.664 -1.3026 -0.7960 -1.0431
   42MOL   C24910991   6.212   0.191   2.515 -0.3038  0.1029  0.6223
   42MOL   C25010992   6.170   0.077   2.418 -0.5777 -0.6843  0.6202
   42MOL   O25110993   6.058   0.119   2.347 -0.2259 -0.5972 -0.3621
   42MOL   C25210994   5.992   0.018   2.281  0.0399 -0.1046 -0.1493
   42MOL   C25310995   5.916   0.078   2.159  0.4959 -0.3541 -0.4620
   42MOL   H25410996   6.243   0.277   2.456  0.2183  0.4072  1.3339
   42MOL   H25510997   6.127   0.223   2.575 -0.5831  2.2043 -0.8392
   42MOL   H25610998   6.242   0.063   2.338 -1.1499  0.7332 -0.1589
   42MOL   H25710999   5.922   7.821   2.355 -0.5907  0.3756 -0.4751
   42MOL   H25811000   6.065   7.786   2.253  0.0866 -0.4388  0.8446
   42MOL   H25911001   5.835   0.146   2.187 -0.6285 -1.4132 -1.0816
   42MOL   H26011002   5.984   0.135   2.095 -1.5640  0.2448 -2.1653
   42MOL   H26111003   5.886   0.001   2.089 -0.8988  1.9318 -2.4749
   42MOL   H26211004   6.151   7.827   2.472  1.1347 -0.3493  1.8215
   43MOL     C111005   2.996   4.297   4.163  0.3406 -0.5994 -0.2324
   43MOL     C211006   3.001   4.168   4.240  0.2320  0.6446  0.5735
   43MOL     O311007   2.888   4.179   4.329  0.3114 -0.0088  0.2473
   43MOL     C411008   2.839   4.061   4.379  0.0524 -0.3944  0.4985
   43MOL     C511009   2.725   4.102   4.465  0.0987  0.1585  0.6483
   43MOL     H611010   3.013   4.382   4.229  0.3322 -1.0970  0.4103
   43MOL     H711011   3.083   4.304   4.097  0.5162 -2.2047 -0.2045
   43MOL     H811012   2.985   4.086   4.169  0.0562 -0.1119  1.4737
   43MOL     H911013   2.913   3.999   4.431  1.9342  1.6818  0.3876
   43MOL    H1011014   2.812   3.997   4.295  0.4018  0.4246 -0.2486
   43MOL    H1111015   2.644   4.136   4.400  2.2948  2.7298 -0.8196
   43MOL    H1211016   2.699   4.012   4.521  2.2817  0.9776  3.0418
   43MOL    H1311017   2.748   4.180   4.537 -0.0356 -1.0145  1.9920
   43MOL    H1411018   2.901   4.306   4.110  0.5354 -2.2908 -0.9227
   43MOL    C1511019   3.137   4.138   4.313 -0.3321  0.9281 -0.2115
   43MOL    C1611020   3.270   4.130   4.229 -0.2748 -0.3454  0.6411
   43MOL    O1711021   3.253   4.009   4.150  0.6681 -0.7610  0.1801
   43MOL    C1811022   3.252   4.024   4.008 -0.1603 -0.8304  0.1616
   43MOL    C1911023   3.383   3.955   3.958  0.2220 -0.2166  0.3645
   43MOL    H2011024   3.118   4.049   4.373 -1.0479  0.5057 -1.0420
   43MOL    H2111025   3.138   4.223   4.381 -2.7424  0.7080  0.1470
   43MOL    H2211026   3.278   4.217   4.164  1.5855 -2.3454 -1.9156
   43MOL    H2311027   3.245   4.122   3.961 -0.1472  0.2041  2.2638
   43MOL    H2411028   3.167   3.969   3.967  1.4454 -2.2626 -1.3305
   43MOL    H2511029   3.458   4.024   3.998  0.7256 -1.4666  1.6350
   43MOL    H2611030   3.380   3.962   3.849 -1.3393  0.0050  0.4203
   43MOL    H2711031   3.397   3.857   4.003  0.4640 -0.7109 -0.7601
   43MOL    C2811032   3.394   4.116   4.317  0.7878 -0.0669  1.0320
   43MOL    C2911033   3.429   4.243   4.397  0.4345  0.2554 -0.3209
   43MOL    O3011034   3.481   4.337   4.307 -0.4108  0.3264  0.6978
   43MOL    C3111035   3.415   4.460   4.317  0.3141 -0.2921  0.0088
   43MOL    C3211036   3.479   4.552   4.223 -0.3260  0.6358  0.4399
   43MOL    H3311037   3.477   4.070   4.264 -1.4374 -3.5366  0.3908
   43MOL    H3411038   3.354   4.040   4.384  1.1935 -0.7204  0.5326
   43MOL    H3511039   3.342   4.279   4.452 -1.0177 -1.7758 -1.1872
   43MOL    H3611040   3.415   4.506   4.416 -0.8657 -3.0658  1.3428
   43MOL    H3711041   3.309   4.443   4.302  0.0167 -1.2843  2.9255
   43MOL    H3811042   3.586   4.557   4.243 -0.7393  1.6874  2.4811
   43MOL    H3911043   3.466   4.534   4.116  1.2312 -2.3057  0.6878
   43MOL    H4011044   3.449   4.656   4.237  0.1459  0.9142 -0.5721
   43MOL    C4111045   3.532   4.207   4.509  0.0461  0.3094  1.2308
   43MOL    C4211046   3.468   4.106   4.608  0.0375  0.3069  0.2533
   43MOL    O4311047   3.354   4.173   4.664  0.2754  0.6991  0.3814
   43MOL    C4411048   3.255   4.089   4.730 -0.2832  0.8815  0.4288
   43MOL    C4511049   3.138   4.184   4.763 -0.1034  0.7151 -0.4622
   43MOL    H4611050   3.567   4.299   4.555  1.5100  0.2745  0.2221
   43MOL    H4711051   3.628   4.166   4.475 -2.0609 -2.2874 -1.9853
   43MOL    H4811052   3.433   4.011   4.567  0.8101 -0.5925  1.6397
   43MOL    H4911053   3.303   4.045   4.818  0.5056  1.2305  0.1775
   43MOL    H5011054   3.235   4.003   4.666  0.6616 -0.2569  1.6276
   43MOL    H5111055   3.051   4.143   4.813 -1.4623  2.7027 -1.1695
   43MOL    H5211056   3.172   4.268   4.824 -0.9174 -0.8696  2.2125
   43MOL    H5311057   3.101   4.237   4.675  2.6197  0.5674 -1.7602
   43MOL    C5411058   3.564   4.048   4.713  0.6794 -0.5328  1.1066
   43MOL    C5511059   3.620   4.140   4.829 -0.0774  0.2678  0.3653
   43MOL    O5611060   3.726   4.215   4.767 -0.0786 -0.0184  0.5187
   43MOL    C5711061   3.712   4.355   4.775 -0.3265 -0.0518  0.2050
   43MOL    C5811062   3.806   4.419   4.679 -0.3591  0.8211  0.0793
   43MOL    H5911063   3.641   3.984   4.669  0.8989  1.1019 -0.9729
   43MOL    H6011064   3.498   3.979   4.766  1.3894 -0.3676  2.2226
   43MOL    H6111065   3.537   4.203   4.860 -0.9624 -0.7585  0.0945
   43MOL    H6211066   3.733   4.389   4.876  0.0284 -1.4396  0.6006
   43MOL    H6311067   3.613   4.393   4.750 -0.8903 -1.1471  0.7591
   43MOL    H6411068   3.820   4.526   4.695  1.8324  0.3919  1.2113
   43MOL    H6511069   3.905   4.374   4.680 -0.7569 -0.2087 -2.5307
   43MOL    H6611070   3.773   4.399   4.577  1.2063 -0.2750 -0.2201
   43MOL    C6711071   3.675   4.058   4.954  0.9244  0.3657  0.5620
   43MOL    C6811072   3.564   3.977   5.032  0.0487  1.4510 -0.4631
   43MOL    O6911073   3.534   4.058   5.141  0.1712  0.5897  0.2086
   43MOL    C7011074   3.405   4.033   5.183 -0.2880 -0.7508 -0.0481
   43MOL    C7111075   3.384   4.140   5.296  0.2632  0.0287  0.2750
   43MOL    H7211076   3.729   4.121   5.024 -2.4877  1.4325  2.3148
   43MOL    H7311077   3.747   3.987   4.913 -0.8205 -0.9157 -0.3525
   43MOL    H7411078   3.480   3.953   4.967  0.9050 -1.2567 -0.6289
   43MOL    H7511079   3.373   3.932   5.210  0.0100 -0.8142  0.0723
   43MOL    H7611080   3.339   4.064   5.102  1.3293 -0.3958 -1.2592
   43MOL    H7711081   3.286   4.111   5.334  0.9559 -2.0069  0.5629
   43MOL    H7811082   3.465   4.131   5.368  1.7693 -0.5653 -1.4276
   43MOL    H7911083   3.392   4.244   5.267  2.3511  0.3298  1.8284
   43MOL    C8011084   3.625   3.848   5.085  0.1332  0.0933 -0.7667
   43MOL    C8111085   3.631   3.737   4.985  0.0442  0.3989  0.4220
   43MOL    O8211086   3.495   3.697   4.955  0.2244  0.3069 -0.4444
   43MOL    C8311087   3.481   3.661   4.818 -0.6401 -0.5198  0.2885
   43MOL    C8411088   3.333   3.634   4.780  0.5478 -0.1650 -0.0059
   43MOL    H8511089   3.569   3.815   5.172  1.2192 -0.2867 -0.1947
   43MOL    H8611090   3.725   3.870   5.123  0.8118 -0.4008 -2.2154
   43MOL    H8711091   3.670   3.789   4.897 -2.9110  0.0574 -1.1720
   43MOL    H8811092   3.539   3.574   4.787 -0.3867 -0.0044 -0.7153
   43MOL    H8911093   3.522   3.744   4.760  0.4950  0.4000  2.3341
   43MOL    H9011094   3.299   3.536   4.816 -0.7541  0.3851  0.2677
   43MOL    H9111095   3.266   3.706   4.826 -0.3139 -0.4099 -0.8687
   43MOL    H9211096   3.307   3.635   4.674 -0.4541  0.3338  0.2451
   43MOL    C9311097   3.698   3.611   5.039 -0.2071  0.2349  0.4780
   43MOL    C9411098   3.853   3.614   5.024  0.2266 -0.0275 -0.2652
   43MOL    O9511099   3.893   3.591   4.890 -1.2763 -0.4964 -0.1928
   43MOL    C9611100   3.968   3.694   4.818 -0.0916  0.0699 -0.2037
   43MOL    C9711101   3.985   3.662   4.670  0.3295 -0.0887  0.0045
   43MOL    H9811102   3.650   3.527   4.988 -3.4060  1.5980  1.1330
   43MOL    H9911103   3.675   3.597   5.145 -0.5039  0.6801  0.4709
   43MOL   H10011104   3.877   3.720   5.038 -1.1289  0.2137  0.3165
   43MOL   H10111105   4.056   3.726   4.873 -0.7252 -1.5326  1.7736
   43MOL   H10211106   3.898   3.777   4.830 -0.6307 -0.7027  2.2471
   43MOL   H10311107   4.040   3.570   4.647 -0.5004 -0.7128  0.5086
   43MOL   H10411108   3.892   3.656   4.613  0.9256  0.9270 -1.1074
   43MOL   H10511109   4.035   3.746   4.621  0.0735  0.1665  0.1796
   43MOL   C10611110   3.940   3.525   5.115  0.5589 -0.9329  0.6981
   43MOL   C10711111   3.930   3.558   5.265  0.3386 -0.2036  0.3501
   43MOL   O10811112   3.982   3.686   5.281 -0.3758 -0.3956  0.0476
   43MOL   C10911113   3.932   3.759   5.394  0.3439 -0.1119  0.4174
   43MOL   C11011114   3.964   3.905   5.383  0.0531  0.4862 -0.3327
   43MOL   H11111115   4.042   3.534   5.077 -0.2487  1.1207 -1.0599
   43MOL   H11211116   3.886   3.432   5.100  0.1513 -0.1068 -3.2969
   43MOL   H11311117   3.827   3.554   5.300 -0.3747  0.2232 -1.6625
   43MOL   H11411118   3.972   3.729   5.491  2.4406  0.5708 -0.2104
   43MOL   H11511119   3.824   3.750   5.392  0.3735 -0.5484  0.6751
   43MOL   H11611120   4.073   3.905   5.392  0.4079  2.1062 -3.6309
   43MOL   H11711121   3.940   3.943   5.283 -1.4318 -1.4948 -0.7705
   43MOL   H11811122   3.922   3.966   5.462  0.8672  1.7913 -0.8940
   43MOL   C11911123   4.016   3.461   5.346 -0.1824  0.9955 -0.3247
   43MOL   C12011124   3.973   3.311   5.346  0.6883  0.0806 -0.0193
   43MOL   O12111125   4.000   3.245   5.222 -0.1221  0.5434  0.7213
   43MOL   C12211126   4.132   3.203   5.204  0.4483 -0.1405 -0.4268
   43MOL   C12311127   4.150   3.139   5.065 -0.6201 -0.8849 -0.3737
   43MOL   H12411128   4.012   3.491   5.451  1.2246 -0.0705  0.0587
   43MOL   H12511129   4.122   3.473   5.324  0.0023  0.2120  0.0790
   43MOL   H12611130   4.030   3.261   5.424  2.0235 -0.3270 -1.2232
   43MOL   H12711131   4.170   3.138   5.282 -1.7280 -2.1110 -0.9414
   43MOL   H12811132   4.197   3.290   5.200 -0.8396  0.7564 -3.5314
   43MOL   H12911133   4.071   3.068   5.042 -1.8170  0.4377 -0.4013
   43MOL   H13011134   4.124   3.207   4.984 -1.2986  1.2076  1.5605
   43MOL   H13111135   4.253   3.104   5.062 -0.3670 -0.0757 -1.3091
   43MOL   C13211136   3.828   3.292   5.376  0.3096  0.3827 -0.3411
   43MOL   C13311137   3.794   3.335   5.519  0.1142 -0.1716 -0.0229
   43MOL   O13411138   3.877   3.267   5.612  0.0421 -0.4535  0.3927
   43MOL   C13511139   3.882   3.325   5.743  0.1877  0.0090  0.4805
   43MOL   C13611140   3.990   3.249   5.820  0.0126  0.3127 -0.1914
   43MOL   H13711141   3.791   3.192   5.354 -1.6311  1.6765 -3.1895
   43MOL   H13811142   3.775   3.355   5.305  1.2186  1.7254  0.1342
   43MOL   H13911143   3.811   3.442   5.530 -2.3835  0.0519  1.9598
   43MOL   H14011144   3.782   3.326   5.787 -0.6984  2.3129 -1.4835
   43MOL   H14111145   3.909   3.428   5.720  3.2127 -1.2725 -2.0223
   43MOL   H14211146   3.975   3.141   5.814  0.1756  0.3290 -1.0031
   43MOL   H14311147   4.090   3.274   5.783  0.1620  1.0449  0.6960
   43MOL   H14411148   3.995   3.271   5.927 -1.2484 -3.0734  0.6324
   43MOL   C14511149   3.645   3.289   5.546  0.4817 -0.2324  0.3169
   43MOL   C14611150   3.541   3.376   5.471  0.2203  0.0777 -0.2695
   43MOL   O14711151   3.566   3.507   5.518 -0.5204 -0.0831  0.2293
   43MOL   C14811152   3.507   3.612   5.440  0.1032 -0.4898  0.6206
   43MOL   C14911153   3.543   3.751   5.497 -0.1809  0.4211 -0.0590
   43MOL   H15011154   3.617   3.310   5.650 -1.8210 -1.5906  0.0153
   43MOL   H15111155   3.620   3.185   5.525  2.6080 -0.4675 -1.1526
   43MOL   H15211156   3.559   3.373   5.364 -0.0448 -0.4934 -0.3001
   43MOL   H15311157   3.400   3.594   5.432  0.2450 -1.3597  0.6816
   43MOL   H15411158   3.556   3.608   5.343  1.1721  0.6146  1.1047
   43MOL   H15511159   3.514   3.831   5.429 -0.6691  0.7144  0.4999
   43MOL   H15611160   3.491   3.761   5.592 -1.2671 -1.6480 -0.4065
   43MOL   H15711161   3.647   3.766   5.524 -0.7125  1.2474  1.5536
   43MOL   C15811162   3.397   3.333   5.509 -0.6462  0.0508  0.0853
   43MOL   C15911163   3.337   3.220   5.421 -0.7545 -0.6355 -0.2078
   43MOL   O16011164   3.290   3.280   5.296  0.0408 -0.9309  0.2742
   43MOL   C16111165   3.335   3.212   5.183  0.3582 -0.1857 -0.5168
   43MOL   C16211166   3.292   3.275   5.051  0.2294  0.9453  0.5019
   43MOL   H16311167   3.335   3.423   5.509  0.1455  0.6024  0.4941
   43MOL   H16411168   3.410   3.294   5.610  0.2606 -0.5327 -0.2530
   43MOL   H16511169   3.421   3.151   5.410  0.4581  0.9152 -0.9206
   43MOL   H16611170   3.282   3.117   5.184 -0.4800  0.2821  0.7747
   43MOL   H16711171   3.444   3.203   5.182  0.3830 -0.3396  2.0367
   43MOL   H16811172   3.344   3.239   4.961  1.2269  1.9299  0.6775
   43MOL   H16911173   3.186   3.264   5.028  0.6519 -1.2592 -0.5864
   43MOL   H17011174   3.319   3.380   5.051  0.8269  0.7936  0.6053
   43MOL   C17111175   3.221   3.145   5.484 -1.1560 -0.7072  0.6711
   43MOL   C17211176   3.090   3.228   5.477  0.3569 -0.5441  0.3301
   43MOL   O17311177   3.010   3.188   5.592 -0.2719 -0.3032 -0.2515
   43MOL   C17411178   3.040   3.250   5.718  0.1350  0.0746 -0.3372
   43MOL   C17511179   2.967   3.171   5.840  0.2039  0.2325  0.0971
   43MOL   H17611180   3.245   3.119   5.587 -0.9494 -0.6191  0.6461
   43MOL   H17711181   3.212   3.052   5.427  1.3163  0.4499 -1.7608
   43MOL   H17811182   3.115   3.333   5.489  0.0040 -0.6854  2.4770
   43MOL   H17911183   3.025   3.358   5.714 -1.3016 -0.0613  0.9824
   43MOL   H18011184   3.148   3.252   5.736 -0.1368  1.3399  1.2611
   43MOL   H18111185   2.866   3.213   5.845  0.2036  0.1736  0.7012
   43MOL   H18211186   2.960   3.063   5.834 -1.2133  0.2356  1.2272
   43MOL   H18311187   3.022   3.187   5.933  0.1201 -1.4618  0.4470
   43MOL   C18411188   2.994   3.213   5.350  0.5533 -0.8078  0.3831
   43MOL   C18511189   2.856   3.274   5.376 -0.1410  0.3473  0.7894
   43MOL   O18611190   2.772   3.229   5.271  0.6956  0.5325  0.2682
   43MOL   C18711191   2.636   3.202   5.306 -0.5679  0.4106  0.4797
   43MOL   C18811192   2.583   3.151   5.170 -0.2461 -0.3185 -0.5416
   43MOL   H18911193   2.982   3.109   5.320 -0.3238 -0.5392 -0.2148
   43MOL   H19011194   3.045   3.267   5.270 -0.0415  1.4975  1.5253
   43MOL   H19111195   2.820   3.228   5.469  3.4993 -4.1555  0.1177
   43MOL   H19211196   2.584   3.290   5.345 -1.1925  0.7013 -1.0045
   43MOL   H19311197   2.653   3.120   5.376  1.0162 -0.1384 -0.5226
   43MOL   H19411198   2.569   3.228   5.095 -0.5036 -0.3843 -0.5617
   43MOL   H19511199   2.654   3.087   5.118  0.9571  2.1633 -2.0009
   43MOL   H19611200   2.490   3.094   5.183 -0.5620  0.8112  2.7025
   43MOL   C19711201   2.846   3.420   5.380  0.0895  0.7468 -0.0773
   43MOL   C19811202   2.899   3.505   5.267 -0.0152 -0.3927  0.0904
   43MOL   O19911203   3.035   3.538   5.294  0.5253 -0.2712  0.2003
   43MOL   C20011204   3.118   3.548   5.183 -0.1894  0.1126 -0.5129
   43MOL   C20111205   3.168   3.700   5.170  0.3482 -0.3630  0.3447
   43MOL   H20211206   2.892   3.450   5.474  0.5259 -1.6237  0.5079
   43MOL   H20311207   2.739   3.435   5.394  0.0928  0.2382  0.5758
   43MOL   H20411208   2.889   3.443   5.178 -0.2573 -0.6055  0.2665
   43MOL   H20511209   3.057   3.525   5.095  1.6216 -1.7289 -1.3253
   43MOL   H20611210   3.201   3.480   5.202 -0.1322  0.8701  2.0607
   43MOL   H20711211   3.092   3.777   5.159 -0.6504 -0.8783  3.2327
   43MOL   H20811212   3.221   3.736   5.258  0.4711 -1.8816  0.9118
   43MOL   H20911213   3.234   3.705   5.084  0.3767  0.1117  0.3910
   43MOL   C21011214   2.815   3.629   5.248  0.2892  0.6195  0.0423
   43MOL   C21111215   2.677   3.591   5.180  0.0792  0.4230 -0.2037
   43MOL   O21211216   2.714   3.579   5.038  0.0697  0.3418  0.1932
   43MOL   C21311217   2.660   3.466   4.978 -0.1127 -0.4735 -0.0309
   43MOL   C21411218   2.707   3.487   4.838  0.1320 -0.2601 -0.1062
   43MOL   H21511219   2.874   3.707   5.200 -0.1441 -0.4075 -2.2539
   43MOL   H21611220   2.805   3.677   5.345 -1.4673 -2.2788  1.3500
   43MOL   H21711221   2.632   3.503   5.227  2.1014  0.8648  2.6913
   43MOL   H21811222   2.553   3.453   4.996 -0.4014  1.3156 -0.3406
   43MOL   H21911223   2.705   3.385   5.035  2.0692 -0.6475 -1.9390
   43MOL   H22011224   2.811   3.516   4.825 -0.2831  0.9320 -0.8171
   43MOL   H22111225   2.704   3.394   4.781  0.4369 -2.4790  3.3040
   43MOL   H22211226   2.634   3.553   4.791  0.3579  0.6975  0.8668
   43MOL   C22311227   2.577   3.708   5.187 -0.2564  0.4999 -0.8966
   43MOL   C22411228   2.511   3.696   5.328 -0.6944 -0.0223  0.6275
   43MOL   O22511229   2.397   3.608   5.309 -0.2178 -0.1881 -0.0399
   43MOL   C22611230   2.373   3.531   5.422 -0.0947 -0.6766  0.3959
   43MOL   C22711231   2.234   3.463   5.426 -0.1500 -0.1458  0.6355
   43MOL   H22811232   2.504   3.699   5.107 -0.7177  0.9980 -0.5351
   43MOL   H22911233   2.629   3.803   5.175  0.3199  0.2577 -0.3667
   43MOL   H23011234   2.575   3.649   5.404 -0.1805 -1.6960 -0.8115
   43MOL   H23111235   2.374   3.590   5.513  2.6978 -0.3324  0.1882
   43MOL   H23211236   2.453   3.457   5.435  1.1629  0.4462 -0.7386
   43MOL   H23311237   2.232   3.381   5.353  0.9741  1.1234 -0.8545
   43MOL   H23411238   2.201   3.418   5.519  0.0713 -3.6636 -0.9034
   43MOL   H23511239   2.158   3.537   5.399  0.2649  0.6802  1.7075
   43MOL   C23611240   2.452   3.830   5.384  0.0517 -0.0749 -0.2664
   43MOL   C23711241   2.552   3.924   5.447 -0.4739  0.2316 -0.6055
   43MOL   O23811242   2.618   3.853   5.556  0.6637  0.1417 -0.6995
   43MOL   C23911243   2.536   3.818   5.673  0.3240 -1.1655 -0.1287
   43MOL   C24011244   2.640   3.759   5.767  0.0317  0.2116  0.0167
   43MOL   H24111245   2.370   3.811   5.454 -0.8167 -1.4531 -1.6326
   43MOL   H24211246   2.390   3.875   5.306 -1.9866 -0.0366  1.3184
   43MOL   H24311247   2.636   3.938   5.378  0.1748  1.3330  0.3876
   43MOL   H24411248   2.468   3.738   5.643  0.3631 -0.0140 -3.6147
   43MOL   H24511249   2.479   3.902   5.711  3.3850  0.8794  0.1161
   43MOL   H24611250   2.702   3.835   5.816 -1.9887  2.1478 -0.3715
   43MOL   H24711251   2.581   3.704   5.841 -1.1409 -0.3287 -1.2994
   43MOL   H24811252   2.709   3.697   5.709  0.9254  0.4902  0.7613
   43MOL   C24911253   2.494   4.062   5.498 -0.5223  0.1185  0.8029
   43MOL   C25011254   2.461   4.162   5.385 -0.5847 -0.0913  0.0480
   43MOL   O25111255   2.581   4.238   5.354  0.9880 -0.7125  0.4449
   43MOL   C25211256   2.556   4.324   5.245  0.3626 -0.4358  0.5270
   43MOL   C25311257   2.694   4.365   5.193  0.0484 -0.1875  0.4110
   43MOL   H25411258   2.562   4.109   5.569  0.4128 -0.9003  0.5910
   43MOL   H25511259   2.399   4.049   5.550 -0.6801 -1.3930  0.1678
   43MOL   H25611260   2.428   4.106   5.298 -0.7738  1.0424 -0.6266
   43MOL   H25711261   2.512   4.418   5.279 -0.2610 -0.0514 -1.2937
   43MOL   H25811262   2.490   4.291   5.165 -1.0118  1.2267  0.9281
   43MOL   H25911263   2.742   4.279   5.148 -1.0210 -0.2517 -0.6197
   43MOL   H26011264   2.690   4.444   5.118 -0.6380 -0.3204  0.3053
   43MOL   H26111265   2.752   4.401   5.278  1.9381  0.4153 -1.0858
   43MOL   H26211266   2.384   4.232   5.418  0.3413  0.9415  0.0431
   44MOL     C111267   3.735   0.871   6.201  0.3481 -0.5938 -0.2863
   44MOL     C211268   3.755   0.970   6.091  0.3834  0.4492 -0.7668
   44MOL     O311269   3.886   0.964   6.050 -0.2705 -0.0629 -0.5619
   44MOL     C411270   3.920   0.857   5.958  0.3790  0.0304 -0.1335
   44MOL     C511271   4.063   0.884   5.901  0.0308  0.2381 -0.2324
   44MOL     H611272   3.632   0.836   6.193  0.0109  0.7473 -2.0940
   44MOL     H711273   3.805   0.789   6.184  1.1002  0.0235 -0.1955
   44MOL     H811274   3.687   0.941   6.011 -2.3315 -1.7372  2.1821
   44MOL     H911275   3.852   0.855   5.873 -0.5598  1.0055  0.5848
   44MOL    H1011276   3.926   0.759   6.004 -0.5166  0.5478  1.1025
   44MOL    H1111277   4.082   0.985   5.864 -0.4679  1.4636  2.7070
   44MOL    H1211278   4.139   0.850   5.972 -1.1242  0.1412  0.9909
   44MOL    H1311279   4.080   0.823   5.813  0.3420 -0.6868  0.4605
   44MOL    H1411280   3.754   0.911   6.300  0.0575  1.5258 -1.0689
   44MOL    C1511281   3.720   1.116   6.123  0.2580 -0.8511  0.6005
   44MOL    C1611282   3.691   1.214   6.004  0.5052  0.1307  0.2482
   44MOL    O1711283   3.792   1.321   5.997 -0.0552 -0.1508  0.0430
   44MOL    C1811284   3.921   1.268   5.979 -0.1952 -1.1438  0.4190
   44MOL    C1911285   4.010   1.392   5.962 -0.2539 -0.4558  0.7777
   44MOL    H2011286   3.789   1.160   6.194  0.1233  0.1654  0.1131
   44MOL    H2111287   3.629   1.123   6.182  0.2093  1.1296  0.3214
   44MOL    H2211288   3.706   1.158   5.912 -0.0101 -1.1511  0.9167
   44MOL    H2311289   3.940   1.204   5.893 -2.9572 -0.9053 -0.4126
   44MOL    H2411290   3.966   1.229   6.070  0.3086 -0.4029  0.4929
   44MOL    H2511291   4.115   1.365   5.977 -0.5726 -1.7150  0.8090
   44MOL    H2611292   3.999   1.473   6.034  1.1117  0.0888  0.3933
   44MOL    H2711293   3.993   1.425   5.859  1.9258 -1.7178 -0.0248
   44MOL    C2811294   3.550   1.278   5.998  1.2359 -0.4985 -0.4081
   44MOL    C2911295   3.432   1.185   5.948 -0.0292  0.3797 -0.2286
   44MOL    O3011296   3.455   1.181   5.806 -0.2063  0.1254  0.6756
   44MOL    C3111297   3.421   1.057   5.744 -0.4106 -0.8666 -0.7306
   44MOL    C3211298   3.507   1.044   5.617  0.7987  0.6069 -0.2942
   44MOL    H3311299   3.553   1.361   5.929 -0.2391 -0.1692 -0.0939
   44MOL    H3411300   3.518   1.311   6.097 -2.7905 -0.1876 -1.7132
   44MOL    H3511301   3.452   1.088   5.995  0.4158 -0.8232 -2.8099
   44MOL    H3611302   3.317   1.072   5.714 -0.1798 -0.2280 -1.2268
   44MOL    H3711303   3.430   0.966   5.804 -2.5888 -1.1167 -0.7356
   44MOL    H3811304   3.477   0.960   5.555  1.2218  0.5993 -0.4904
   44MOL    H3911305   3.496   1.126   5.547  0.3796 -0.5105 -1.5499
   44MOL    H4011306   3.615   1.049   5.629  0.8616  0.2868 -0.7131
   44MOL    C4111307   3.283   1.226   5.973 -0.5710  0.1567  0.6977
   44MOL    C4211308   3.249   1.214   6.122 -0.4500  0.2172 -0.2478
   44MOL    O4311309   3.227   1.076   6.133  0.2489  0.2590  0.0480
   44MOL    C4411310   3.271   1.010   6.255 -0.2441  0.0116  0.3759
   44MOL    C4511311   3.281   0.856   6.250 -0.4912  0.0146  0.4070
   44MOL    H4611312   3.209   1.183   5.905 -1.4282  0.0926  1.6638
   44MOL    H4711313   3.291   1.332   5.950  0.0168 -0.1529 -0.5941
   44MOL    H4811314   3.340   1.243   6.174 -0.7522 -1.6587  1.3987
   44MOL    H4911315   3.188   1.029   6.323  0.7472 -1.9096  2.1805
   44MOL    H5011316   3.365   1.044   6.298 -0.7157  2.6472 -0.6140
   44MOL    H5111317   3.192   0.803   6.216 -2.2396  2.0681  1.6210
   44MOL    H5211318   3.367   0.828   6.188 -1.0072 -2.5883  0.8032
   44MOL    H5311319   3.299   0.815   6.349 -2.3015 -3.1617 -0.5102
   44MOL    C5411320   3.130   1.288   6.177  0.3367 -0.4099 -0.1848
   44MOL    C5511321   3.150   1.443   6.196  0.3340  0.2325  0.1523
   44MOL    O5611322   3.282   1.469   6.247 -0.9006  0.2811 -0.5447
   44MOL    C5711323   3.332   1.598   6.248 -0.0242  0.9498  0.2214
   44MOL    C5811324   3.485   1.585   6.253 -0.3628  0.2323  0.5080
   44MOL    H5911325   3.101   1.250   6.275  0.6420  0.9201  0.4402
   44MOL    H6011326   3.046   1.273   6.109 -1.1144  2.8766  0.7584
   44MOL    H6111327   3.143   1.483   6.095  1.2201 -0.1450 -0.0575
   44MOL    H6211328   3.293   1.662   6.328  2.4262  1.4614  1.0338
   44MOL    H6311329   3.303   1.649   6.156  3.1601  0.9928 -0.8006
   44MOL    H6411330   3.535   1.523   6.179 -2.3942 -2.6302  1.4756
   44MOL    H6511331   3.543   1.677   6.248 -0.8741  0.5121 -0.2048
   44MOL    H6611332   3.513   1.553   6.354  0.5737  4.0072  1.5332
   44MOL    C6711333   3.043   1.503   6.291  0.3122 -0.3992 -0.3704
   44MOL    C6811334   2.898   1.491   6.264  0.2393  0.5574  0.3320
   44MOL    O6911335   2.857   1.599   6.184  0.6828  0.4673 -0.5088
   44MOL    C7011336   2.864   1.579   6.043  0.0395  0.6853 -0.4630
   44MOL    C7111337   2.803   1.706   5.989  0.1290 -0.3643  0.3247
   44MOL    H7211338   3.077   1.606   6.307  0.9456 -0.8227  1.1828
   44MOL    H7311339   3.066   1.444   6.380 -0.7802 -2.3463 -1.3458
   44MOL    H7411340   2.885   1.392   6.220  0.2925  0.9987 -0.6929
   44MOL    H7511341   2.819   1.481   6.024 -0.8376  0.9986 -0.0359
   44MOL    H7611342   2.967   1.576   6.009  0.3282  0.6145  0.4152
   44MOL    H7711343   2.706   1.738   6.025 -0.5771  0.5796 -2.3326
   44MOL    H7811344   2.868   1.788   6.020  0.9678 -1.2614  0.9754
   44MOL    H7911345   2.809   1.704   5.880  2.2226 -2.1227  0.4242
   44MOL    C8011346   2.808   1.503   6.387 -0.2256  0.0871 -0.0509
   44MOL    C8111347   2.651   1.515   6.363 -0.1641 -0.7995  0.1072
   44MOL    O8211348   2.596   1.523   6.494 -0.5146 -0.5991 -0.4033
   44MOL    C8311349   2.466   1.563   6.507  1.2047 -0.8641 -0.1543
   44MOL    C8411350   2.458   1.582   6.653 -0.4096  0.7821 -0.0054
   44MOL    H8511351   2.847   1.584   6.449 -0.3300  0.3701 -0.3529
   44MOL    H8611352   2.838   1.420   6.451  2.1100 -0.4496 -1.7737
   44MOL    H8711353   2.621   1.607   6.313  1.2349 -0.6402 -0.4552
   44MOL    H8811354   2.394   1.491   6.469  0.6999  0.3857 -1.5711
   44MOL    H8911355   2.448   1.664   6.470 -0.2302 -0.2578  2.0574
   44MOL    H9011356   2.535   1.650   6.690 -1.0407  1.1773  0.5876
   44MOL    H9111357   2.363   1.626   6.681 -0.0931  0.5301  1.5023
   44MOL    H9211358   2.469   1.488   6.707 -1.2405 -0.4218 -1.8925
   44MOL    C9311359   2.593   1.404   6.288  0.4145 -0.8906 -0.2643
   44MOL    C9411360   2.588   1.270   6.367  0.3323  0.5600 -0.6844
   44MOL    O9511361   2.719   1.218   6.354 -0.2063 -0.0142  0.3976
   44MOL    C9611362   2.738   1.120   6.453  0.1528  0.1763 -0.2997
   44MOL    C9711363   2.851   1.034   6.408 -0.2282  0.1749  0.3219
   44MOL    H9811364   2.631   1.400   6.186 -0.3985 -3.0213 -0.5093
   44MOL    H9911365   2.492   1.436   6.264  0.8160  0.0647 -0.7303
   44MOL   H10011366   2.560   1.272   6.472  0.2770  0.6884 -0.7025
   44MOL   H10111367   2.659   1.048   6.477  0.6570 -0.3348 -0.1514
   44MOL   H10211368   2.758   1.173   6.546  0.5484 -2.0313  0.9073
   44MOL   H10311369   2.944   1.090   6.394 -0.8167  1.4639  1.4279
   44MOL   H10411370   2.873   0.961   6.486  1.9345  0.5580  0.1249
   44MOL   H10511371   2.820   0.980   6.319  0.2957  0.5654 -0.1055
   44MOL   C10611372   2.493   1.165   6.302 -0.4061 -1.0141  0.3136
   44MOL   C10711373   2.345   1.176   6.344  0.9823 -0.2783  0.2514
   44MOL   O10811374   2.351   1.141   6.489  0.3896  0.2753 -0.4539
   44MOL   C10911375   2.254   1.198   6.569  1.0547  0.0955 -0.4715
   44MOL   C11011376   2.301   1.188   6.714  0.7570 -0.2231 -0.1910
   44MOL   H11111377   2.537   1.065   6.296  0.4960 -0.5636 -0.6471
   44MOL   H11211378   2.505   1.187   6.196  0.2600  0.4937  0.6849
   44MOL   H11311379   2.295   1.270   6.323  0.2516 -1.1653 -2.2588
   44MOL   H11411380   2.162   1.140   6.564  0.2188  1.2646  1.2414
   44MOL   H11511381   2.239   1.303   6.547  2.5604  0.3154 -0.4553
   44MOL   H11611382   2.312   1.085   6.746 -1.0564 -0.1678  0.7320
   44MOL   H11711383   2.401   1.232   6.711  0.8229 -0.3021  0.8183
   44MOL   H11811384   2.231   1.233   6.785 -0.0351 -0.4794 -0.8037
   44MOL   C11911385   2.253   1.071   6.272 -0.0122  0.0621 -0.9944
   44MOL   C12011386   2.204   1.109   6.126  0.3465 -0.5966  0.3642
   44MOL   O12111387   2.078   1.183   6.117 -0.1392  0.1910 -0.5360
   44MOL   C12211388   2.076   1.316   6.160  0.0295  0.3825  0.5103
   44MOL   C12311389   1.951   1.388   6.092 -0.3570  0.8207  0.7019
   44MOL   H12411390   2.168   1.064   6.341  1.0606  1.2638  0.4873
   44MOL   H12511391   2.303   0.975   6.286 -0.5192  0.1032  1.4774
   44MOL   H12611392   2.281   1.158   6.067  0.6784  0.4678  1.6621
   44MOL   H12711393   2.166   1.369   6.129  0.6376 -0.9899 -0.0982
   44MOL   H12811394   2.066   1.334   6.267  2.4562 -1.2105  1.0441
   44MOL   H12911395   1.858   1.349   6.132 -0.5435 -0.7156 -1.1849
   44MOL   H13011396   1.956   1.494   6.117  0.9701  1.4490 -2.0658
   44MOL   H13111397   1.953   1.368   5.985  1.1481 -1.4950  1.1284
   44MOL   C13211398   2.168   0.973   6.069 -0.3999 -0.3241  0.8727
   44MOL   C13311399   2.131   0.981   5.923 -0.3858  0.1972  0.2797
   44MOL   O13411400   2.084   0.852   5.894  0.4534  0.2137  0.8678
   44MOL   C13511401   2.004   0.857   5.783  0.2346  0.4347  0.4879
   44MOL   C13611402   1.965   0.705   5.789 -0.6578 -0.2590  0.2241
   44MOL   H13711403   2.088   0.941   6.136 -1.2604 -1.1592 -0.5140
   44MOL   H13811404   2.257   0.911   6.082  2.0271  2.7180 -0.6420
   44MOL   H13911405   2.053   1.058   5.917  0.1424  0.8152  1.1798
   44MOL   H14011406   2.056   0.889   5.693  0.3669 -2.4934 -0.5077
   44MOL   H14111407   1.919   0.925   5.797  0.5744  1.6213 -2.7913
   44MOL   H14211408   1.899   0.681   5.873 -1.7821 -1.5158 -0.9956
   44MOL   H14311409   1.904   0.677   5.704  0.2130  0.1066 -0.5264
   44MOL   H14411410   2.046   0.633   5.804 -0.7296 -0.1872  0.9646
   44MOL   C14511411   2.247   1.023   5.831 -0.3507  0.4654  0.3907
   44MOL   C14611412   2.239   1.163   5.780 -0.3398 -0.8044  0.2376
   44MOL   O14711413   2.142   1.149   5.689 -0.3077 -0.4008  0.1550
   44MOL   C14811414   2.062   1.263   5.678 -0.5952 -0.2063  0.1780
   44MOL   C14911415   1.970   1.243   5.562 -1.1121 -0.1066  0.0346
   44MOL   H15011416   2.246   0.951   5.749  0.9026  0.6334  0.2171
   44MOL   H15111417   2.341   1.000   5.882 -1.5970 -1.8519  1.7272
   44MOL   H15211418   2.211   1.232   5.860 -0.8064 -1.0913  0.3233
   44MOL   H15311419   2.116   1.358   5.678 -2.2324  0.7673  2.2858
   44MOL   H15411420   2.000   1.263   5.768 -0.3101 -1.9775  0.3892
   44MOL   H15511421   2.023   1.258   5.468  0.1934  2.3831  1.1349
   44MOL   H15611422   1.922   1.146   5.546 -0.3205 -0.4514 -0.2620
   44MOL   H15711423   1.895   1.321   5.572 -0.2814  0.9233 -1.6402
   44MOL   C15811424   2.373   1.204   5.706 -0.2978  0.8443 -0.4080
   44MOL   C15911425   2.469   1.283   5.790  0.0145 -0.5486  0.9480
   44MOL   O16011426   2.409   1.397   5.829 -0.3970  0.3338 -0.4169
   44MOL   C16111427   2.426   1.443   5.963  0.0437 -0.3183  0.0656
   44MOL   C16211428   2.338   1.572   5.978  0.3176 -0.4723  0.4640
   44MOL   H16311429   2.349   1.256   5.614 -1.2494  1.7242  0.3202
   44MOL   H16411430   2.427   1.118   5.668 -1.5406 -0.1986  0.1523
   44MOL   H16511431   2.491   1.223   5.878 -0.1631 -2.5248 -0.3032
   44MOL   H16611432   2.532   1.461   5.983  0.2092 -1.3484  0.1093
   44MOL   H16711433   2.392   1.369   6.035 -1.1267  1.1949  1.0944
   44MOL   H16811434   2.370   1.635   5.895 -1.9054  0.7799  0.5324
   44MOL   H16911435   2.231   1.557   5.985  0.0111 -0.3438 -2.9715
   44MOL   H17011436   2.375   1.614   6.071 -0.6261  2.5572 -0.4931
   44MOL   C17111437   2.605   1.312   5.720  0.2675 -0.1932 -0.2119
   44MOL   C17211438   2.729   1.214   5.730 -0.3986 -0.3485 -0.3191
   44MOL   O17311439   2.758   1.183   5.866  0.4900 -0.0834  0.0797
   44MOL   C17411440   2.851   1.074   5.880 -0.4719  0.0307 -0.3262
   44MOL   C17511441   2.861   1.057   6.030  0.8820  1.0040  0.4307
   44MOL   H17611442   2.632   1.402   5.775  0.9000 -2.6705  3.7106
   44MOL   H17711443   2.583   1.347   5.619 -1.9805  0.3504  0.4356
   44MOL   H17811444   2.710   1.119   5.680 -2.0753 -1.5343  2.4598
   44MOL   H17911445   2.947   1.114   5.850  1.2454 -1.7500  2.5200
   44MOL   H18011446   2.816   0.978   5.843  1.8451 -0.9655  0.0064
   44MOL   H18111447   2.773   1.005   6.068  1.3142 -0.5043 -0.5840
   44MOL   H18211448   2.956   1.011   6.058  0.1013  0.1349  1.7191
   44MOL   H18311449   2.870   1.155   6.077 -1.0913  1.4339 -0.0427
   44MOL   C18411450   2.851   1.293   5.669 -0.5936 -0.9229  0.3756
   44MOL   C18511451   2.933   1.229   5.558 -0.0947  0.3889  0.6756
   44MOL   O18611452   3.038   1.314   5.528  0.1241  0.4134  0.2613
   44MOL   C18711453   3.144   1.312   5.617 -0.8721  0.1239  0.0174
   44MOL   C18811454   3.279   1.350   5.548  0.5324 -0.0831 -0.0595
   44MOL   H18911455   2.908   1.336   5.751 -1.0481 -0.0795  0.2613
   44MOL   H19011456   2.816   1.388   5.627 -2.3237 -2.8640 -2.7687
   44MOL   H19111457   2.965   1.129   5.589 -1.4317 -0.1969  0.2106
   44MOL   H19211458   3.173   1.215   5.659  0.3608  1.1533  1.6094
   44MOL   H19311459   3.134   1.390   5.692  1.7750 -0.5975  1.2038
   44MOL   H19411460   3.295   1.280   5.465 -1.3974 -0.1975 -0.3537
   44MOL   H19511461   3.282   1.453   5.512 -1.0945 -0.1949 -0.5399
   44MOL   H19611462   3.366   1.338   5.613  0.2319 -0.3075  0.3002
   44MOL   C19711463   2.850   1.210   5.429 -0.8720  0.3749 -0.4495
   44MOL   C19811464   2.855   1.064   5.381 -0.4751  0.0077 -0.4197
   44MOL   O19911465   2.794   0.984   5.482  0.4584 -0.1476 -0.1840
   44MOL   C20011466   2.778   0.849   5.453 -0.0940 -0.1931 -0.0930
   44MOL   C20111467   2.690   0.792   5.568  0.2271  0.4174 -0.0709
   44MOL   H20211468   2.879   1.277   5.348 -1.9390  1.3676 -0.0116
   44MOL   H20311469   2.745   1.224   5.453 -0.5188  1.6792  0.3451
   44MOL   H20411470   2.791   1.055   5.293 -0.4496  0.5377 -0.4965
   44MOL   H20511471   2.873   0.795   5.456 -1.6974 -3.0582  1.8256
   44MOL   H20611472   2.731   0.828   5.357 -0.6469 -2.0797  0.5616
   44MOL   H20711473   2.584   0.818   5.564  0.5672  2.1776  1.8502
   44MOL   H20811474   2.701   0.684   5.559 -0.5125  0.4085 -0.9757
   44MOL   H20911475   2.722   0.828   5.665 -0.4202  1.2854 -0.1738
   44MOL   C21011476   2.994   1.025   5.339  0.1695  0.5720 -0.4076
   44MOL   C21111477   3.005   0.931   5.224  0.0497  0.0776  0.9372
   44MOL   O21211478   3.140   0.894   5.220 -0.3158 -0.6470 -0.2726
   44MOL   C21311479   3.170   0.769   5.282 -0.3374  0.1577 -0.3131
   44MOL   C21411480   3.321   0.759   5.296 -0.1114 -1.0310 -0.3012
   44MOL   H21511481   3.052   0.983   5.421 -2.6206  1.1843  1.9404
   44MOL   H21611482   3.053   1.113   5.314  2.0665 -1.4272 -3.2668
   44MOL   H21711483   2.943   0.844   5.248 -2.0547  0.8328 -1.5650
   44MOL   H21811484   3.129   0.695   5.214 -0.6135  1.3671 -1.4689
   44MOL   H21911485   3.129   0.762   5.383  1.4844  1.7132  0.5739
   44MOL   H22011486   3.358   0.826   5.374  0.8317  0.6382 -2.1420
   44MOL   H22111487   3.351   0.655   5.312  0.0010 -1.3090 -2.2174
   44MOL   H22211488   3.368   0.787   5.202 -0.0581 -0.2377 -0.0399
   44MOL   C22311489   2.950   0.982   5.088  0.5069 -0.1123 -0.4175
   44MOL   C22411490   3.032   1.093   5.022 -0.2090 -0.7135  1.1944
   44MOL   O22511491   3.012   1.207   5.103  0.1820 -0.6145 -0.6403
   44MOL   C22611492   3.139   1.271   5.111 -0.3103 -0.0789  0.2566
   44MOL   C22711493   3.132   1.395   5.188  0.7323  0.3940  0.8111
   44MOL   H22811494   2.846   1.013   5.096  0.0674 -1.5177 -0.4680
   44MOL   H22911495   2.944   0.893   5.025 -0.7708 -0.2795 -0.0590
   44MOL   H23011496   3.138   1.071   5.010 -0.0986 -0.0142  0.8419
   44MOL   H23111497   3.187   1.292   5.015 -1.2815  0.3323 -0.1470
   44MOL   H23211498   3.206   1.207   5.169 -3.3388 -2.2563  1.5141
   44MOL   H23311499   3.067   1.383   5.275 -0.1353 -0.4080  0.0527
   44MOL   H23411500   3.230   1.427   5.223  1.1303 -0.2349  0.2612
   44MOL   H23511501   3.089   1.474   5.126  0.6953  1.4886  2.1814
   44MOL   C23611502   2.959   1.144   4.893 -0.2802  0.5440 -0.1770
   44MOL   C23711503   3.000   1.074   4.761 -0.5504 -0.8743  0.3153
   44MOL   O23811504   2.979   0.937   4.775  0.3548 -0.5705 -0.2664
   44MOL   C23911505   2.903   0.868   4.668 -0.6421  0.6226 -0.8823
   44MOL   C24011506   2.870   0.729   4.723  0.1408 -0.0841  0.7026
   44MOL   H24111507   2.972   1.252   4.881 -1.3449  0.8052  0.9170
   44MOL   H24211508   2.851   1.127   4.897  0.2031 -2.4975  1.0243
   44MOL   H24311509   2.932   1.116   4.686  0.4719 -0.8897 -0.6257
   44MOL   H24411510   2.968   0.861   4.581 -2.2638  2.2642 -2.2751
   44MOL   H24511511   2.816   0.925   4.634 -1.4880  0.2890  0.6361
   44MOL   H24611512   2.816   0.677   4.643  2.0278 -0.4756 -0.3448
   44MOL   H24711513   2.959   0.669   4.741  0.0060 -0.6357 -0.4460
   44MOL   H24811514   2.806   0.725   4.811 -1.0701 -0.2765 -0.1707
   44MOL   C24911515   3.145   1.105   4.710  0.1143 -0.3374 -0.5082
   44MOL   C25011516   3.136   1.134   4.560 -0.5690  0.1238 -0.7999
   44MOL   O25111517   3.062   1.250   4.538  0.5755  0.3909  0.0257
   44MOL   C25211518   3.059   1.274   4.401 -0.1625  0.0188 -0.3603
   44MOL   C25311519   3.026   1.420   4.384 -0.4905  0.5600  0.0362
   44MOL   H25411520   3.203   1.015   4.733 -1.3932 -1.6923 -1.8697
   44MOL   H25511521   3.181   1.199   4.753  0.9559 -1.8876  2.3405
   44MOL   H25611522   3.239   1.139   4.523 -0.7704 -0.4658 -1.4429
   44MOL   H25711523   3.000   1.201   4.346 -1.4886  1.7599 -1.3262
   44MOL   H25811524   3.160   1.266   4.360  1.0300  0.6700  2.3397
   44MOL   H25911525   2.934   1.465   4.420  1.2837  3.1228  1.5230
   44MOL   H26011526   3.104   1.476   4.436  0.6310 -0.8800 -0.0475
   44MOL   H26111527   3.038   1.457   4.282  1.4159 -0.4054 -0.1210
   44MOL   H26211528   3.108   1.046   4.503  1.6496 -0.6179 -0.8006
   45MOL     C111529   4.389   3.866   3.344  0.8442 -0.4502 -1.0341
   45MOL     C211530   4.301   3.928   3.238  0.0088  0.0073  0.6596
   45MOL     O311531   4.172   3.925   3.291  0.0757  0.3592 -0.1587
   45MOL     C411532   4.111   4.039   3.248  0.0541 -0.4580  0.5134
   45MOL     C511533   3.962   4.022   3.292  0.4533  1.0117  0.5423
   45MOL     H611534   4.494   3.866   3.313  0.8902 -0.8284 -0.8782
   45MOL     H711535   4.370   3.919   3.437  2.1853  1.9282 -2.0838
   45MOL     H811536   4.338   4.027   3.212  0.0996 -0.0092  0.7276
   45MOL     H911537   4.108   4.046   3.139 -1.3829 -0.0886  0.5605
   45MOL    H1011538   4.151   4.132   3.290 -1.7895  1.3423 -1.5800
   45MOL    H1111539   3.925   3.937   3.235 -1.5567  2.5158 -0.4299
   45MOL    H1211540   3.958   4.014   3.401  0.2687 -2.3749  0.3328
   45MOL    H1311541   3.906   4.105   3.251 -1.6970 -1.2443 -1.2274
   45MOL    H1411542   4.367   3.761   3.366 -3.5873  0.9362  1.7194
   45MOL    C1511543   4.290   3.846   3.112 -0.2228 -0.3050 -0.1996
   45MOL    C1611544   4.427   3.811   3.038 -0.0964  0.6568 -0.0143
   45MOL    O1711545   4.515   3.928   3.021  0.6183  0.2861  0.0752
   45MOL    C1811546   4.496   4.025   2.922  0.4732  0.6321  0.1373
   45MOL    C1911547   4.591   4.139   2.949 -0.7664 -0.2665  0.3376
   45MOL    H2011548   4.220   3.891   3.041  1.5584  0.6459 -1.4009
   45MOL    H2111549   4.253   3.746   3.134 -0.0766 -0.3194 -0.0184
   45MOL    H2211550   4.474   3.742   3.108  0.3268  0.2078 -0.7399
   45MOL    H2311551   4.390   4.050   2.918 -0.0787 -1.7587 -1.3106
   45MOL    H2411552   4.531   3.982   2.829 -1.0257  2.4085 -1.2906
   45MOL    H2511553   4.574   4.184   3.047 -0.0652  1.8006 -0.4586
   45MOL    H2611554   4.578   4.227   2.886 -0.5333  0.1815  0.9110
   45MOL    H2711555   4.691   4.097   2.941 -0.8865 -0.4097 -0.4438
   45MOL    C2811556   4.412   3.740   2.898  0.0738  0.2956 -0.5675
   45MOL    C2911557   4.540   3.693   2.824 -0.7220  0.8805 -0.5464
   45MOL    O3011558   4.497   3.666   2.695  0.8782 -0.5985  0.1448
   45MOL    C3111559   4.515   3.766   2.595 -0.2951  0.6409 -0.5829
   45MOL    C3211560   4.437   3.735   2.470 -0.3033 -0.0443  0.4873
   45MOL    H3311561   4.356   3.796   2.823 -1.8508  1.1374  1.4316
   45MOL    H3411562   4.351   3.650   2.907  0.7513 -0.1021  0.1325
   45MOL    H3511563   4.618   3.769   2.827 -0.0166  0.2795 -2.8740
   45MOL    H3611564   4.619   3.787   2.569  0.0611 -1.0188 -0.5351
   45MOL    H3711565   4.484   3.860   2.640 -1.2165  0.1841 -0.2395
   45MOL    H3811566   4.477   3.645   2.423  0.9418  0.6719  0.1520
   45MOL    H3911567   4.332   3.719   2.491  0.4909 -3.9358  1.9521
   45MOL    H4011568   4.453   3.817   2.400  0.7530 -0.0508  0.7066
   45MOL    C4111569   4.605   3.566   2.875 -0.5189  1.3150 -0.4760
   45MOL    C4211570   4.727   3.530   2.786 -0.5592 -0.3017 -0.0063
   45MOL    O4311571   4.759   3.387   2.797  0.0116  0.2572  0.5110
   45MOL    C4411572   4.659   3.304   2.737  1.2698 -0.3996  0.0432
   45MOL    C4511573   4.722   3.176   2.717  0.1390 -0.1481  0.5285
   45MOL    H4611574   4.529   3.487   2.873  0.0018  0.5107  4.7198
   45MOL    H4711575   4.643   3.561   2.977 -2.2343 -2.7082  0.0880
   45MOL    H4811576   4.708   3.558   2.683 -0.5939 -2.7977 -0.7106
   45MOL    H4911577   4.633   3.341   2.637 -0.7464 -1.0130  0.3090
   45MOL    H5011578   4.566   3.287   2.791  1.1942 -0.4442 -0.0999
   45MOL    H5111579   4.737   3.141   2.819 -0.3435  1.8643  1.3161
   45MOL    H5211580   4.659   3.103   2.667  0.0353  0.0535  0.3593
   45MOL    H5311581   4.814   3.186   2.660 -0.9447 -1.2194 -1.4722
   45MOL    C5411582   4.855   3.598   2.845  0.2149 -0.2844 -0.3637
   45MOL    C5511583   4.976   3.595   2.752 -0.4280  0.2926 -0.1608
   45MOL    O5611584   5.095   3.633   2.815 -0.4479  1.0393 -0.1385
   45MOL    C5711585   5.148   3.537   2.907 -0.3161  0.1688  0.7753
   45MOL    C5811586   5.277   3.592   2.973 -0.3792  0.0365  0.0693
   45MOL    H5911587   4.868   3.562   2.947 -0.9877 -1.2341 -0.5251
   45MOL    H6011588   4.837   3.703   2.867  0.9837 -0.3369  0.5296
   45MOL    H6111589   4.989   3.494   2.715 -1.4473  0.0584  0.1125
   45MOL    H6211590   5.157   3.446   2.848  0.8664  1.8013 -1.6352
   45MOL    H6311591   5.073   3.520   2.985  0.5456  0.0590  1.5912
   45MOL    H6411592   5.275   3.685   3.029  0.4442 -0.9438  1.7833
   45MOL    H6511593   5.312   3.518   3.046  1.4290  0.1657 -0.6426
   45MOL    H6611594   5.353   3.592   2.895  1.4614 -2.4783  1.7656
   45MOL    C6711595   4.967   3.666   2.607 -0.4512 -0.0394 -0.7760
   45MOL    C6811596   5.081   3.623   2.513  0.1584 -0.4987  0.2159
   45MOL    O6911597   5.111   3.731   2.429  0.1795 -0.3955 -0.0016
   45MOL    C7011598   5.219   3.817   2.471 -0.0462  0.1534  0.3617
   45MOL    C7111599   5.341   3.766   2.392  0.0396 -0.6509 -0.2428
   45MOL    H7211600   4.976   3.773   2.619  2.1247 -0.3921  0.6241
   45MOL    H7311601   4.868   3.647   2.565 -1.3220 -1.4401  1.7341
   45MOL    H7411602   5.158   3.582   2.578  0.4217  1.6597  1.3137
   45MOL    H7511603   5.244   3.810   2.577 -1.2984 -1.3913  0.5838
   45MOL    H7611604   5.191   3.919   2.443 -3.4525 -1.4210 -2.4532
   45MOL    H7711605   5.311   3.686   2.324 -3.1346  0.0335  0.2670
   45MOL    H7811606   5.388   3.846   2.334 -0.2348  0.8393  1.5531
   45MOL    H7911607   5.410   3.721   2.463  0.0437 -0.3090 -0.0316
   45MOL    C8011608   5.038   3.500   2.427  0.6631 -0.7125 -1.0869
   45MOL    C8111609   4.927   3.529   2.323 -0.3851  0.1181  0.8228
   45MOL    O8211610   4.873   3.406   2.274 -0.3082 -0.2442  0.1934
   45MOL    C8311611   4.769   3.340   2.353 -0.5050 -0.4972  0.1308
   45MOL    C8411612   4.724   3.212   2.286  0.2718  0.4513 -0.7318
   45MOL    H8511613   5.007   3.424   2.498 -0.2032 -1.4714 -2.2581
   45MOL    H8611614   5.127   3.461   2.379  1.4371 -1.5305  0.9538
   45MOL    H8711615   4.847   3.586   2.370 -1.1162 -0.2241  0.0144
   45MOL    H8811616   4.686   3.409   2.365  0.9577  1.3813 -0.2898
   45MOL    H8911617   4.791   3.323   2.458  0.9577 -1.1378 -0.2698
   45MOL    H9011618   4.644   3.162   2.341 -2.0122  0.7907 -3.6103
   45MOL    H9111619   4.689   3.226   2.184 -0.8883  0.2776 -0.3741
   45MOL    H9211620   4.807   3.142   2.289  1.0905  1.4281  0.1801
   45MOL    C9311621   4.984   3.599   2.192 -0.8061  0.5226  0.2427
   45MOL    C9411622   4.868   3.661   2.112 -0.4150  0.0692  1.5413
   45MOL    O9511623   4.913   3.685   1.980 -0.4913 -0.0222  0.1641
   45MOL    C9611624   4.901   3.576   1.897  0.5681 -0.0525  0.0376
   45MOL    C9711625   4.997   3.588   1.770  0.0198  0.4369  0.1754
   45MOL    H9811626   5.046   3.530   2.135  2.6868  1.6419  2.4977
   45MOL    H9911627   5.040   3.686   2.225 -0.1168 -0.2737  1.2147
   45MOL   H10011628   4.782   3.596   2.095  0.3038 -0.9118  1.5936
   45MOL   H10111629   4.797   3.558   1.872  0.9324 -0.2158 -1.3801
   45MOL   H10211630   4.942   3.487   1.944  0.1564 -0.0724  0.3605
   45MOL   H10311631   4.957   3.664   1.703  2.7549 -0.4375 -2.5544
   45MOL   H10411632   5.088   3.641   1.797 -0.9580  1.6848  1.0827
   45MOL   H10511633   5.005   3.500   1.707  0.7882  0.8876 -0.3629
   45MOL   C10611634   4.819   3.795   2.156  0.0445  0.1332 -0.1081
   45MOL   C10711635   4.691   3.854   2.092  0.3208  0.5865 -0.3682
   45MOL   O10811636   4.672   3.974   2.162 -0.0157 -0.2382  0.0486
   45MOL   C10911637   4.744   4.086   2.116 -0.0266 -0.8759  0.1906
   45MOL   C11011638   4.715   4.208   2.208 -0.1922 -0.4142  0.3599
   45MOL   H11111639   4.902   3.865   2.146 -1.5983  2.3438  1.2890
   45MOL   H11211640   4.806   3.798   2.264 -0.7377  1.6561 -0.2245
   45MOL   H11311641   4.724   3.872   1.990  0.4117  0.1620 -0.4147
   45MOL   H11411642   4.717   4.103   2.011  0.5950 -2.2122 -0.1955
   45MOL   H11511643   4.852   4.071   2.112  0.2386  1.3315 -2.6836
   45MOL   H11611644   4.754   4.192   2.309  1.1641 -1.0702 -0.2578
   45MOL   H11711645   4.762   4.293   2.159 -1.8856  1.3055  1.5900
   45MOL   H11811646   4.608   4.232   2.212 -0.6670 -2.4855  0.8222
   45MOL   C11911647   4.565   3.771   2.111 -0.1671 -0.1893 -0.1913
   45MOL   C12011648   4.431   3.839   2.078 -0.2418 -0.0425  0.3687
   45MOL   O12111649   4.322   3.752   2.117 -0.1518 -0.3728 -0.2054
   45MOL   C12211650   4.206   3.822   2.159  0.1448 -0.4815  0.2214
   45MOL   C12311651   4.102   3.717   2.195  0.4688 -0.1228 -0.0211
   45MOL   H12411652   4.552   3.741   2.215 -2.7617  0.3005 -0.3437
   45MOL   H12511653   4.574   3.682   2.048  0.4035  0.4402 -1.0081
   45MOL   H12611654   4.434   3.930   2.139  1.1567 -1.0991  1.9225
   45MOL   H12711655   4.162   3.889   2.085  1.1849  0.4574  0.4257
   45MOL   H12811656   4.232   3.885   2.245  1.8813  1.7801 -1.8916
   45MOL   H12911657   4.011   3.769   2.224  1.6437  3.0716 -1.8998
   45MOL   H13011658   4.071   3.663   2.105 -0.5385  1.0007 -0.3553
   45MOL   H13111659   4.141   3.643   2.265  1.1275  1.6521  1.5373
   45MOL   C13211660   4.416   3.874   1.923 -0.1103  0.9684  0.5025
   45MOL   C13311661   4.441   4.015   1.866  0.6885 -0.2482  0.5307
   45MOL   O13411662   4.330   4.105   1.899  0.0003  0.3103 -0.6842
   45MOL   C13511663   4.363   4.212   1.985  0.0808  0.4036  0.3593
   45MOL   C13611664   4.409   4.341   1.901  0.0373  0.1504 -0.5369
   45MOL   H13711665   4.316   3.858   1.884  0.9798  0.6166 -2.2965
   45MOL   H13811666   4.475   3.800   1.868 -1.6862  0.9565 -1.1969
   45MOL   H13911667   4.529   4.066   1.905 -0.5838 -0.1558  3.3919
   45MOL   H14011668   4.421   4.175   2.069 -1.7021 -0.5083  1.2267
   45MOL   H14111669   4.268   4.235   2.034 -0.3793  0.9640 -0.7810
   45MOL   H14211670   4.417   4.424   1.971 -1.7079 -2.2679  2.6472
   45MOL   H14311671   4.505   4.328   1.850  0.1539 -0.8277 -0.0825
   45MOL   H14411672   4.347   4.360   1.813  2.2241  1.6986 -1.8100
   45MOL   C14511673   4.452   4.026   1.715  0.1721  0.2807  0.4108
   45MOL   C14611674   4.577   3.971   1.645 -0.0872  0.3953  0.3240
   45MOL   O14711675   4.598   3.837   1.683 -0.4012  0.1232 -0.1287
   45MOL   C14811676   4.540   3.745   1.593 -0.0177 -0.3879 -0.5269
   45MOL   C14911677   4.566   3.610   1.653 -0.2632  0.1806  0.0747
   45MOL   H15011678   4.456   4.130   1.683 -0.3109 -0.0429 -0.7373
   45MOL   H15111679   4.363   3.984   1.667  2.9567 -1.6379 -3.3334
   45MOL   H15211680   4.576   3.982   1.537  2.5537 -0.0164  0.2086
   45MOL   H15311681   4.575   3.758   1.491 -1.1122  0.0276 -0.8670
   45MOL   H15411682   4.431   3.754   1.583 -0.0303  0.7144  0.4997
   45MOL   H15511683   4.549   3.618   1.761  1.7704 -0.7771  0.4944
   45MOL   H15611684   4.522   3.524   1.605 -0.9349  1.6462 -2.0018
   45MOL   H15711685   4.673   3.586   1.655 -0.7219 -1.9544  0.1451
   45MOL   C15811686   4.705   4.046   1.689 -0.0252 -0.9813  0.0459
   45MOL   C15911687   4.823   4.036   1.598  0.0663  0.3709 -0.1943
   45MOL   O16011688   4.946   4.059   1.667 -0.3338 -0.1178  0.4987
   45MOL   C16111689   4.997   3.953   1.753 -0.2312 -0.6593 -0.6695
   45MOL   C16211690   5.102   4.012   1.841  0.1040  0.2973 -0.3099
   45MOL   H16311691   4.730   4.014   1.790  1.4179  0.9065  0.3091
   45MOL   H16411692   4.685   4.152   1.703 -0.6588 -1.0365 -0.3989
   45MOL   H16511693   4.830   3.936   1.557 -2.7129  0.4952 -1.0601
   45MOL   H16611694   5.041   3.873   1.694  0.4117  0.9002 -2.3498
   45MOL   H16711695   4.913   3.917   1.812  0.0650 -0.8933 -0.3844
   45MOL   H16811696   5.074   4.078   1.923  1.6643  0.5082  0.0805
   45MOL   H16911697   5.151   3.922   1.878 -0.5738  0.4966  1.0897
   45MOL   H17011698   5.180   4.062   1.782  1.0310 -0.6103  0.1222
   45MOL   C17111699   4.810   4.126   1.478 -0.1432  0.2713 -0.7912
   45MOL   C17211700   4.924   4.098   1.372 -0.1230  0.2920 -0.0506
   45MOL   O17311701   4.951   4.223   1.311 -0.3181 -0.1649 -0.1145
   45MOL   C17411702   5.028   4.315   1.382 -0.2931  0.1361 -0.0499
   45MOL   C17511703   5.059   4.433   1.293 -0.1860  0.4190 -0.2757
   45MOL   H17611704   4.807   4.226   1.521 -1.0620  0.5046 -1.3930
   45MOL   H17711705   4.717   4.115   1.423 -1.1411  0.7166  0.7919
   45MOL   H17811706   5.014   4.065   1.423  0.5079 -0.0323 -1.3640
   45MOL   H17911707   5.119   4.267   1.418 -0.3316 -0.5285 -0.8528
   45MOL   H18011708   4.973   4.350   1.470 -0.1922  1.3888 -0.4662
   45MOL   H18111709   4.976   4.486   1.247  0.5210  0.1984 -1.8108
   45MOL   H18211710   5.112   4.513   1.345 -2.5146  1.3029  0.7942
   45MOL   H18311711   5.132   4.410   1.216 -0.5790  0.0206 -0.5298
   45MOL   C18411712   4.885   4.001   1.260  0.2522 -0.7050  0.2622
   45MOL   C18511713   4.993   3.944   1.174 -0.3715 -0.1821  0.3486
   45MOL   O18611714   4.925   3.890   1.058 -0.2689  0.1342  0.3435
   45MOL   C18711715   4.996   3.905   0.937  0.2642 -0.1675  0.7268
   45MOL   C18811716   4.899   3.912   0.816  0.5041  0.2901 -0.7088
   45MOL   H18911717   4.817   4.051   1.191  0.0104  1.4421  2.0182
   45MOL   H19011718   4.842   3.906   1.293  0.0227 -0.6787  0.0412
   45MOL   H19111719   5.053   4.029   1.143 -1.6130  0.3879 -0.5422
   45MOL   H19211720   5.057   3.815   0.930  0.9163  0.3020  0.3458
   45MOL   H19311721   5.057   3.995   0.943 -0.5095  0.5209 -1.2217
   45MOL   H19411722   4.818   3.982   0.837  0.5475 -0.4946  2.2401
   45MOL   H19511723   4.939   3.959   0.726  1.4614 -0.6066 -0.7587
   45MOL   H19611724   4.852   3.815   0.799  0.4683  0.0808  0.5658
   45MOL   C19711725   5.077   3.823   1.232  0.3490  0.2999 -0.0225
   45MOL   C19811726   5.206   3.856   1.306  0.1160 -0.0646 -0.5512
   45MOL   O19911727   5.309   3.883   1.197  0.0274  0.1390 -0.2918
   45MOL   C20011728   5.388   3.997   1.230  0.5684  0.1760 -0.2850
   45MOL   C20111729   5.523   3.986   1.165 -0.0574 -0.0098 -0.1905
   45MOL   H20211730   5.111   3.756   1.153 -0.6523 -0.2483 -0.0001
   45MOL   H20311731   5.006   3.756   1.280  0.6179 -0.4071 -0.5932
   45MOL   H20411732   5.193   3.942   1.372 -0.2973  0.0992 -0.8427
   45MOL   H20511733   5.398   4.013   1.337 -1.3927  1.7483 -0.3038
   45MOL   H20611734   5.344   4.081   1.175 -2.2177  0.2313  1.8876
   45MOL   H20711735   5.583   4.075   1.187 -2.4901  2.2808 -2.4109
   45MOL   H20811736   5.573   3.900   1.209  0.8995  0.0959 -1.0387
   45MOL   H20911737   5.512   3.988   1.057  1.0913  0.7088 -0.3116
   45MOL   C21011738   5.257   3.734   1.392  0.5503 -0.4320 -0.2878
   45MOL   C21111739   5.390   3.751   1.481 -0.7006  0.0064  0.1747
   45MOL   O21211740   5.424   3.629   1.537  0.1459 -0.3458 -0.4274
   45MOL   C21311741   5.510   3.538   1.466  0.6809  0.2972  0.2685
   45MOL   C21411742   5.513   3.405   1.535 -0.1823 -0.3646  0.5496
   45MOL   H21511743   5.272   3.653   1.320  2.6766 -0.1803 -0.1675
   45MOL   H21611744   5.177   3.699   1.457 -0.1203 -0.7972 -1.2980
   45MOL   H21711745   5.467   3.789   1.414  0.1915 -0.0896  1.1400
   45MOL   H21811746   5.606   3.581   1.439  1.9782 -2.8715 -0.4479
   45MOL   H21911747   5.463   3.526   1.368  1.6648  1.1829 -0.3228
   45MOL   H22011748   5.577   3.338   1.477  0.8918  0.3739  0.8749
   45MOL   H22111749   5.552   3.413   1.637 -1.5790  0.5444  1.0216
   45MOL   H22211750   5.413   3.363   1.544 -0.1055 -0.0026  3.7389
   45MOL   C22311751   5.355   3.848   1.595 -0.7873 -0.6723  0.3025
   45MOL   C22411752   5.483   3.890   1.672  0.7685 -0.0423  0.2448
   45MOL   O22511753   5.448   3.902   1.812 -0.3081 -0.2702  0.4494
   45MOL   C22611754   5.429   3.788   1.893 -0.7651 -0.1306 -0.3868
   45MOL   C22711755   5.439   3.838   2.038 -0.3460  0.1045 -0.7187
   45MOL   H22811756   5.293   3.798   1.670 -0.5759 -0.4434  0.6302
   45MOL   H22911757   5.298   3.935   1.563  1.3427 -0.0795 -2.0437
   45MOL   H23011758   5.558   3.814   1.652 -0.1996 -0.4541 -1.9155
   45MOL   H23111759   5.511   3.718   1.878  1.2347  1.8329  0.8635
   45MOL   H23211760   5.335   3.734   1.882 -0.6687 -0.0315 -1.7327
   45MOL   H23311761   5.343   3.885   2.056 -0.5182 -0.0192 -1.3041
   45MOL   H23411762   5.468   3.768   2.116 -1.1375 -0.5044 -0.9646
   45MOL   H23511763   5.510   3.917   2.059 -1.9428  0.8633  2.0611
   45MOL   C23611764   5.527   4.027   1.630 -0.3308  0.0229  0.0982
   45MOL   C23711765   5.664   4.067   1.690 -0.0235 -0.2514 -0.1403
   45MOL   O23811766   5.658   4.195   1.757 -0.1656  0.5041 -0.2112
   45MOL   C23911767   5.662   4.186   1.895 -0.0712  1.1251  0.4327
   45MOL   C24011768   5.690   4.330   1.945 -0.6599 -0.3648  0.2347
   45MOL   H24111769   5.458   4.102   1.671 -1.6407 -1.2292  0.2384
   45MOL   H24211770   5.527   4.030   1.521 -0.4565 -4.8337 -0.1435
   45MOL   H24311771   5.690   3.984   1.755  0.4563 -0.0056 -0.0142
   45MOL   H24411772   5.736   4.116   1.933  0.1454  1.1075 -0.0128
   45MOL   H24511773   5.559   4.159   1.918  0.1892 -2.0466 -1.8294
   45MOL   H24611774   5.694   4.329   2.054  0.7998 -1.0613  0.1794
   45MOL   H24711775   5.783   4.374   1.910 -0.5695  1.0607  2.1853
   45MOL   H24811776   5.619   4.411   1.927  0.4655  1.4411  3.5351
   45MOL   C24911777   5.776   4.066   1.583 -0.1965 -0.5021 -0.4710
   45MOL   C25011778   5.757   4.154   1.464 -0.3873  0.3162 -0.0729
   45MOL   O25111779   5.852   4.128   1.360  0.8350  0.2241  0.2522
   45MOL   C25211780   5.850   4.229   1.257  0.5432 -0.0116 -0.1960
   45MOL   C25311781   5.957   4.214   1.161 -0.7019 -0.4100 -0.0426
   45MOL   H25411782   5.804   3.964   1.557  0.0578 -0.9128  1.3667
   45MOL   H25511783   5.863   4.104   1.637 -1.2143  2.9758 -1.1240
   45MOL   H25611784   5.660   4.135   1.418 -0.4371  0.3956 -0.0020
   45MOL   H25711785   5.862   4.328   1.301 -1.7174 -0.0044  0.4617
   45MOL   H25811786   5.755   4.234   1.203  0.3031 -0.7971  0.1565
   45MOL   H25911787   6.060   4.212   1.198 -1.1678  3.4862  1.7184
   45MOL   H26011788   5.950   4.129   1.093  1.6426 -0.3420 -0.4163
   45MOL   H26111789   5.944   4.304   1.101 -0.3333  0.1438  0.6999
   45MOL   H26211790   5.757   4.260   1.487 -0.7125  0.3260 -0.1221
   46MOL     C111791   1.691   6.032   7.831 -0.1156  0.0703 -1.0728
   46MOL     C211792   1.704   6.093   7.693 -0.2282 -0.8225  0.6315
   46MOL     O311793   1.578   6.104   7.630 -0.9093  0.4630 -0.5926
   46MOL     C411794   1.495   6.208   7.682 -0.6489  0.0758 -0.3529
   46MOL     C511795   1.351   6.182   7.632  0.2960 -1.0970 -0.0049
   46MOL     H611796   1.627   6.092   0.052  0.4678  0.0483 -0.4654
   46MOL     H711797   1.650   5.931   7.826  2.0003 -0.8988  0.3360
   46MOL     H811798   1.750   6.191   7.704 -1.5711 -0.2128  0.9221
   46MOL     H911799   1.523   6.299   7.630 -2.2486  0.2594 -0.9204
   46MOL    H1011800   1.496   6.209   7.791 -0.5714  2.8755 -0.3344
   46MOL    H1111801   1.329   6.088   7.682  2.0409 -0.0768  2.8486
   46MOL    H1211802   1.280   6.258   7.667  2.5087  1.4228 -0.8412
   46MOL    H1311803   1.334   6.170   7.525  0.7797  1.0947 -0.3688
   46MOL    H1411804   1.787   6.023   0.037 -0.6114  0.8266  0.0611
   46MOL    C1511805   1.782   6.002   7.590  0.6094  0.4437 -0.4404
   46MOL    C1611806   1.793   6.065   7.441  0.3062 -0.2532  0.0537
   46MOL    O1711807   1.863   5.970   7.365 -0.5097 -0.0973  0.3264
   46MOL    C1811808   1.793   5.895   7.264 -0.2868  0.8327 -0.2616
   46MOL    C1911809   1.877   5.795   7.178 -0.1951  0.0705 -0.0790
   46MOL    H2011810   1.742   5.901   7.589  1.4987  0.0694  0.5437
   46MOL    H2111811   1.887   5.997   7.619  1.0514  4.3603 -1.1354
   46MOL    H2211812   1.696   6.091   7.399 -1.1225 -1.9667  2.1565
   46MOL    H2311813   1.748   5.967   7.196 -1.9022  0.8289  0.7608
   46MOL    H2411814   1.718   5.840   7.321  0.4513  0.8928  0.7863
   46MOL    H2511815   1.810   5.741   7.112 -0.2420  0.7329 -0.5737
   46MOL    H2611816   1.927   5.726   7.246  0.4321  1.0568  0.4790
   46MOL    H2711817   1.949   5.841   7.110 -1.0625  2.6969  0.7146
   46MOL    C2811818   1.891   6.188   7.438 -0.3309  0.8291  0.2288
   46MOL    C2911819   1.925   6.249   7.300  0.3842 -0.1644  0.0115
   46MOL    O3011820   1.992   6.381   7.319 -0.9004  0.9831 -0.3766
   46MOL    C3111821   2.133   6.371   7.316 -0.5906  0.4635 -0.2741
   46MOL    C3211822   2.192   6.508   7.295  0.2718 -0.9601 -0.3496
   46MOL    H3311823   1.982   6.154   7.488 -1.6328 -1.9141  0.8001
   46MOL    H3411824   1.842   6.271   7.490  0.3957  1.1541  0.3999
   46MOL    H3511825   1.986   6.188   7.234  1.7395  1.7553 -0.5817
   46MOL    H3611826   2.174   6.315   7.232  0.2252 -0.5953  0.8347
   46MOL    H3711827   2.171   6.329   7.409  1.8477  0.4521 -1.2474
   46MOL    H3811828   2.299   6.524   7.310  0.0472 -1.4324  1.8837
   46MOL    H3911829   2.170   6.545   7.194 -0.2350 -0.9301 -0.2267
   46MOL    H4011830   2.130   6.578   7.349  0.9988 -1.6192  1.3646
   46MOL    C4111831   1.787   6.291   7.228  0.1255 -0.3384  0.3322
   46MOL    C4211832   1.794   6.322   7.072 -0.2806  0.2064  0.1056
   46MOL    O4311833   1.912   6.394   7.037 -0.0827 -0.6426 -0.6458
   46MOL    C4411834   1.955   6.374   6.892 -0.1389 -0.1262  0.2470
   46MOL    C4511835   2.044   6.489   6.848 -0.1674  0.2213 -0.1342
   46MOL    H4611836   1.748   6.372   7.290  0.9089 -0.6860  1.3092
   46MOL    H4711837   1.714   6.210   7.230 -0.7193  0.4299  1.3689
   46MOL    H4811838   1.799   6.222   7.027 -1.5251  0.1740  0.0228
   46MOL    H4911839   1.873   6.373   6.820 -0.2632  0.7507  0.3699
   46MOL    H5011840   1.997   6.274   6.889  1.2243  0.4095  1.1546
   46MOL    H5111841   2.138   6.492   6.904 -2.4695 -0.6580  3.9573
   46MOL    H5211842   2.076   6.468   6.746 -0.1292  0.9643 -0.2786
   46MOL    H5311843   1.990   6.583   6.858  0.5405  0.6162  0.0082
   46MOL    C5411844   1.678   6.408   7.019 -0.0351  0.1859  0.2136
   46MOL    C5511845   1.539   6.336   7.020 -0.3984  0.6455  0.5662
   46MOL    O5611846   1.455   6.386   6.920  0.0840  0.1416 -0.0441
   46MOL    C5711847   1.424   6.292   6.817  0.3899  0.0788 -0.3925
   46MOL    C5811848   1.352   6.360   6.700  0.4178 -0.5106 -0.0215
   46MOL    H5911849   1.699   6.435   6.916 -1.6397 -1.4301 -0.5656
   46MOL    H6011850   1.676   6.503   7.073 -2.3036  1.4790 -2.0319
   46MOL    H6111851   1.563   6.232   6.996 -1.2702  0.7106 -0.6544
   46MOL    H6211852   1.356   6.213   6.848 -1.0793  1.5536  0.1989
   46MOL    H6311853   1.516   6.243   6.784 -0.1313 -0.4566 -1.0504
   46MOL    H6411854   1.250   6.390   6.727  0.0735  0.2403 -2.0486
   46MOL    H6511855   1.407   6.451   6.675  1.0154 -1.6708 -3.1798
   46MOL    H6611856   1.350   6.292   6.614 -0.5825  0.0879 -0.4811
   46MOL    C6711857   1.454   6.354   7.147  0.8283 -0.1449 -0.9765
   46MOL    C6811858   1.339   6.252   7.165  0.2649 -0.3380  0.0441
   46MOL    O6911859   1.240   6.293   7.269  0.2255  0.5468  0.4779
   46MOL    C7011860   1.115   6.340   7.225  0.3248 -0.8126 -0.3443
   46MOL    C7111861   1.039   6.393   7.349  0.3349 -0.1647 -0.0225
   46MOL    H7211862   1.406   6.451   7.136  1.4668  0.1279 -1.4184
   46MOL    H7311863   1.515   6.343   7.237  1.0060 -2.1798 -1.3185
   46MOL    H7411864   1.281   6.252   7.072  0.3842 -1.1673 -0.0289
   46MOL    H7511865   1.069   6.255   7.174  0.6720 -0.7100 -0.8409
   46MOL    H7611866   1.124   6.421   7.153 -1.8071  0.1832  0.4891
   46MOL    H7711867   1.102   6.439   7.424  1.4397 -2.1012  0.2709
   46MOL    H7811868   0.977   6.476   7.316  2.3199  1.5804  0.5652
   46MOL    H7911869   0.980   6.312   7.393 -1.6082  0.5612 -1.2152
   46MOL    C8011870   1.389   6.109   7.198 -0.0584  0.3653 -0.2078
   46MOL    C8111871   1.286   6.010   7.248 -0.2514  0.0728 -0.1004
   46MOL    O8211872   1.356   5.884   7.268 -0.4472  0.0257  0.3687
   46MOL    C8311873   1.386   5.855   7.408  0.3604 -0.0230  0.6253
   46MOL    C8411874   1.422   5.704   7.414  0.0715 -0.3745  0.0739
   46MOL    H8511875   1.463   6.110   7.278  1.7786  1.4446 -1.8816
   46MOL    H8611876   1.428   6.063   7.108  1.4583  0.0449  0.5997
   46MOL    H8711877   1.246   6.040   7.344 -1.6457 -1.9054 -0.0330
   46MOL    H8811878   1.295   5.861   7.467  0.5468 -1.5554  1.0899
   46MOL    H8911879   1.461   5.921   7.452 -0.1242  1.6490 -1.0093
   46MOL    H9011880   1.359   5.646   7.347 -1.6561  0.9512  0.5076
   46MOL    H9111881   1.526   5.687   7.385 -0.4907 -1.5047 -1.3452
   46MOL    H9211882   1.395   5.667   7.513 -3.2363 -0.5042 -0.8271
   46MOL    C9311883   1.174   5.985   7.140 -0.3438  0.3126 -0.0559
   46MOL    C9411884   1.054   5.910   7.196 -0.7148 -0.3971  0.2708
   46MOL    O9511885   0.981   5.863   7.079 -0.2821 -0.5211 -0.1138
   46MOL    C9611886   1.036   5.747   7.021  0.0179  0.1515  0.2693
   46MOL    C9711887   0.920   5.651   6.977  0.0359 -0.4776  0.5294
   46MOL    H9811888   1.229   5.926   7.066  0.6785 -0.3572  1.2181
   46MOL    H9911889   1.152   6.078   7.088  0.4802  0.1009 -0.7905
   46MOL   H10011890   1.083   5.828   7.262 -0.9617  0.4019  1.3945
   46MOL   H10111891   1.106   5.695   7.086  0.4151  0.6563  0.2482
   46MOL   H10211892   1.092   5.786   6.936  0.8220 -1.7133 -0.0793
   46MOL   H10311893   0.954   5.562   6.923  1.5619 -0.1042  0.8513
   46MOL   H10411894   0.853   5.618   7.057 -0.0468  0.0639  0.6826
   46MOL   H10511895   0.859   5.695   6.898  0.9578  0.1721  0.1674
   46MOL   C10611896   0.953   6.007   7.268 -0.1537  0.2804 -0.1483
   46MOL   C10711897   0.838   5.936   7.344 -0.3320  0.5920 -0.1420
   46MOL   O10811898   0.897   5.850   7.435  0.1781  0.3142  0.3473
   46MOL   C10911899   0.964   5.897   7.541  0.2560 -1.0309  0.0288
   46MOL   C11011900   0.924   5.824   7.664 -0.3811 -0.2988  0.0616
   46MOL   H11111901   0.915   6.085   7.202 -0.7245  0.0447 -0.1027
   46MOL   H11211902   1.012   6.061   7.341 -0.5196  2.3237 -1.3112
   46MOL   H11311903   0.786   6.007   7.408  0.5167 -0.6539  1.9994
   46MOL   H11411904   0.923   5.996   7.562  2.1240 -0.0775 -0.7183
   46MOL   H11511905   1.073   5.901   7.530  0.0932 -1.9254 -2.0492
   46MOL   H11611906   0.815   5.830   7.677 -0.4142  2.9540 -1.4449
   46MOL   H11711907   0.983   5.733   7.653  1.0622  0.5679  0.5263
   46MOL   H11811908   0.970   5.863   7.755  1.2340 -2.1323  0.0565
   46MOL   C11911909   0.734   5.869   7.250 -0.7724  0.2753  0.2449
   46MOL   C12011910   0.610   5.820   7.326  0.7180 -0.0551 -0.1919
   46MOL   O12111911   0.653   5.704   7.395 -0.3175  0.1079  0.1773
   46MOL   C12211912   0.568   5.655   7.497  0.1689 -0.4591  0.6655
   46MOL   C12311913   0.651   5.541   7.566  0.4137  0.5103 -0.8859
   46MOL   H12411914   0.788   5.783   7.213 -0.5696  0.5722 -0.1522
   46MOL   H12511915   0.714   5.942   7.172  1.9346  0.7490 -0.0638
   46MOL   H12611916   0.560   5.893   7.390  0.6349  1.2477 -1.7210
   46MOL   H12711917   0.476   5.619   7.452 -0.3126  2.8670 -1.1959
   46MOL   H12811918   0.541   5.735   7.566  2.1302  1.0881 -0.3098
   46MOL   H12911919   0.750   5.583   7.577  0.0228  1.6447 -1.6497
   46MOL   H13011920   0.616   5.492   7.657  2.0093 -1.7942 -1.4711
   46MOL   H13111921   0.649   5.458   7.496 -1.2671 -0.2042 -0.0462
   46MOL   C13211922   0.507   5.776   7.220  0.1500  0.3226  0.3049
   46MOL   C13311923   0.420   5.894   7.155 -0.4084  0.2744 -0.6948
   46MOL   O13411924   0.344   5.938   7.261  0.3322 -0.7098 -0.3513
   46MOL   C13511925   0.314   6.079   7.260  0.1479  0.9436 -0.0842
   46MOL   C13611926   0.238   6.122   7.384  0.5534 -0.0736 -0.3956
   46MOL   H13711927   0.435   5.709   7.268  0.8363 -0.0964  0.7553
   46MOL   H13811928   0.551   5.728   7.132  0.4028 -0.3399  0.7898
   46MOL   H13911929   0.493   5.970   7.127 -2.5501  3.4147  1.9595
   46MOL   H14011930   0.247   6.089   7.174 -1.0708 -2.3334  0.3686
   46MOL   H14111931   0.406   6.133   7.244 -0.1347  1.1389 -1.0735
   46MOL   H14211932   0.310   6.115   7.466 -0.6989  0.4419  0.7671
   46MOL   H14311933   0.201   6.224   7.384 -1.1796 -0.6740  0.3622
   46MOL   H14411934   0.153   6.057   7.406  1.5264 -0.3594  2.7839
   46MOL   C14511935   0.330   5.864   7.033 -0.2574 -0.0204  0.6400
   46MOL   C14611936   0.391   5.782   6.917  0.0046 -0.4375 -0.1642
   46MOL   O14711937   0.499   5.862   6.872 -0.1693 -0.3174  0.2312
   46MOL   C14811938   0.596   5.792   6.790 -0.5900  0.0858  0.7593
   46MOL   C14911939   0.720   5.878   6.775  0.0919 -0.3033  0.2194
   46MOL   H15011940   0.280   5.949   6.986 -2.0411 -1.2918  0.1602
   46MOL   H15111941   0.247   5.802   7.067  1.0423 -2.2226 -0.1184
   46MOL   H15211942   0.411   5.680   6.949 -0.2737 -0.1733  0.8805
   46MOL   H15311943   0.551   5.745   6.702  1.2461 -0.8451  0.3026
   46MOL   H15411944   0.633   5.703   6.840 -0.6149  0.6083  1.7244
   46MOL   H15511945   0.800   5.825   6.724  0.0310 -0.0868 -0.1011
   46MOL   H15611946   0.696   5.958   6.704 -0.5398 -0.2625  0.4725
   46MOL   H15711947   0.759   5.921   6.868  1.8204  0.8741 -1.0188
   46MOL   C15811948   0.289   5.746   6.801 -0.7024 -0.3006 -0.0995
   46MOL   C15911949   0.170   5.657   6.843  0.0177  0.1400  0.1757
   46MOL   O16011950   0.225   5.541   6.910  0.9048 -0.4273 -0.4997
   46MOL   C16111951   0.136   5.475   6.999  0.4418  0.5217 -0.1287
   46MOL   C16211952   0.205   5.482   7.131  0.1837  0.6768 -1.1687
   46MOL   H16311953   0.345   5.712   6.714 -1.2166 -0.8695 -0.2100
   46MOL   H16411954   0.248   5.839   6.760 -1.7359 -1.0954 -0.9083
   46MOL   H16511955   0.116   5.715   6.919 -2.3432 -0.8248 -0.7058
   46MOL   H16611956   0.133   5.371   6.965 -0.4042  0.4392  0.1819
   46MOL   H16711957   0.032   5.509   7.003  0.3534  0.1065  1.0022
   46MOL   H16811958   0.144   5.435   7.208  0.2710  2.8125  0.2551
   46MOL   H16911959   0.303   5.434   7.121 -0.8397 -1.1857 -2.5981
   46MOL   H17011960   0.229   5.582   7.168  0.7536  0.8986 -2.1388
   46MOL   C17111961   0.072   5.603   6.736  0.0300  0.1791  0.4578
   46MOL   C17211962   7.825   5.716   6.669  0.2082 -0.8043 -0.1691
   46MOL   O17311963   0.063   5.800   6.583  0.1125  0.4087 -0.3884
   46MOL   C17411964   0.024   5.830   6.448 -0.3699 -0.5964  0.3858
   46MOL   C17511965   7.779   5.955   6.438 -0.9969  0.2535  0.8606
   46MOL   H17611966   7.838   5.531   6.763  0.7296  0.2007  2.5876
   46MOL   H17711967   0.135   5.544   6.669  0.2867 -1.2714  1.9506
   46MOL   H17811968   7.755   5.655   6.611 -1.1853 -0.5485  1.2118
   46MOL   H17911969   7.812   5.751   6.398 -2.3200  1.1838 -0.3151
   46MOL   H18011970   0.121   5.835   6.397 -0.5123  1.1505  0.2470
   46MOL   H18111971   7.680   5.938   6.481 -2.3259  0.4002 -2.0806
   46MOL   H18211972   7.822   6.047   6.479 -1.2189  0.0677  1.5271
   46MOL   H18311973   7.769   5.981   6.333 -4.3248 -0.2302  1.0206
   46MOL   C18411974   7.736   5.809   6.760  0.9625 -0.2686 -0.2480
   46MOL   C18511975   7.658   5.737   6.877  0.1091 -0.2814  0.0200
   46MOL   O18611976   7.578   5.647   6.813  0.4662 -0.0197  0.0774
   46MOL   C18711977   7.529   5.540   6.891 -0.8830 -0.2464 -0.2445
   46MOL   C18811978   7.504   5.421   6.797  0.0487 -0.0252  0.5666
   46MOL   H18911979   7.665   5.858   6.693  0.6814 -0.4745 -0.0995
   46MOL   H19011980   7.800   5.881   6.811  1.7815 -0.0212 -1.6081
   46MOL   H19111981   7.725   5.692   6.950 -1.5713 -0.4323  1.5027
   46MOL   H19211982   7.444   5.578   6.948 -0.4354  2.7028 -1.4119
   46MOL   H19311983   7.601   5.495   6.958 -0.5050  0.3640 -0.2383
   46MOL   H19411984   7.429   5.432   6.719  0.2858  1.0671  0.4761
   46MOL   H19511985   7.588   5.378   6.744 -0.4213  0.4216 -0.5677
   46MOL   H19611986   7.483   5.338   6.865  0.8301  0.7531  1.7878
   46MOL   C19711987   7.567   5.837   6.955  0.0664 -0.3161  0.2774
   46MOL   C19811988   7.631   5.933   7.058  0.1950 -0.1397  0.1196
   46MOL   O19911989   7.662   5.856   7.168  0.1502  0.1290  0.2379
   46MOL   C20011990   7.796   5.845   7.201  0.0596  0.5730 -0.7703
   46MOL   C20111991   7.810   5.737   7.317  0.0697 -0.3369  0.4486
   46MOL   H20211992   7.504   5.773   7.017 -0.6291 -0.3159 -0.4225
   46MOL   H20311993   7.496   5.883   6.886 -1.3095 -1.6912  0.7351
   46MOL   H20411994   7.717   5.972   7.004 -0.4932  0.7166 -0.3654
   46MOL   H20511995   7.841   5.940   7.229  1.9471 -0.7406  0.8011
   46MOL   H20611996   0.013   5.816   7.115 -2.6409 -0.8455 -2.2409
   46MOL   H20711997   7.786   5.643   7.267 -2.5978  1.8261 -2.5458
   46MOL   H20811998   0.068   5.734   7.358  0.2074  0.5771  0.1950
   46MOL   H20911999   7.747   5.751   7.405  0.3831 -0.0839  0.6358
   46MOL   C21012000   7.552   6.051   7.099 -0.0284 -0.2658 -0.1305
   46MOL   C21112001   7.545   6.153   6.983  0.6375  0.1537  0.1772
   46MOL   O21212002   7.657   6.236   6.992 -0.2526 -0.1751 -0.0117
   46MOL   C21312003   7.755   6.226   6.890 -0.4756 -0.2037 -0.0620
   46MOL   C21412004   0.014   6.332   6.933  0.2224  0.2201  0.3607
   46MOL   H21512005   7.575   6.105   7.191 -0.5046  1.6301 -1.0988
   46MOL   H21612006   7.458   6.003   7.124  0.7902 -1.1036  1.4372
   46MOL   H21712007   7.531   6.101   6.888 -0.6965  0.8150  0.0003
   46MOL   H21812008   7.715   6.265   6.796 -2.4591  1.1939  1.3298
   46MOL   H21912009   7.800   6.127   6.886  0.2884  0.1419 -0.0698
   46MOL   H22012010   7.821   6.426   6.890  0.1245  0.2639  0.5394
   46MOL   H22112011   0.046   6.335   7.037  1.2688 -3.9509  0.2505
   46MOL   H22212012   0.099   6.317   6.866  1.4496  0.6994  1.7800
   46MOL   C22312013   7.421   6.250   7.004  0.1577 -0.4102  0.3721
   46MOL   C22412014   7.290   6.180   6.974  0.4055  0.4561 -0.3501
   46MOL   O22512015   7.286   6.168   6.833  0.8387  0.8145  0.1075
   46MOL   C22612016   7.220   6.061   6.782 -0.2294  0.6100  0.1048
   46MOL   C22712017   7.194   6.076   6.632 -0.4754  0.5597 -0.2330
   46MOL   H22812018   7.442   6.337   6.942 -0.0543  0.3436  1.3442
   46MOL   H22912019   7.424   6.288   7.106 -1.2791  1.2758 -0.1766
   46MOL   H23012020   7.288   6.078   7.014  0.9088 -0.1137 -1.7509
   46MOL   H23112021   7.117   6.065   6.818 -0.1746  3.0862  0.0762
   46MOL   H23212022   7.275   5.972   6.814 -1.0069  0.3640  0.7810
   46MOL   H23312023   7.291   6.078   6.584 -0.1055 -0.2939  0.4594
   46MOL   H23412024   7.145   5.992   6.583  3.1758 -1.8053 -0.0164
   46MOL   H23512025   7.142   6.169   6.608  0.0872  0.0723 -3.4868
   46MOL   C23612026   7.174   6.266   7.023  0.7793 -0.6943  0.8712
   46MOL   C23712027   7.163   6.283   7.174 -0.5696 -0.1083  0.2670
   46MOL   O23812028   7.160   6.144   7.215 -0.2983 -0.8925 -0.6447
   46MOL   C23912029   7.229   6.110   7.338 -0.1394  0.0436 -0.2128
   46MOL   C24012030   7.218   5.957   7.347 -0.0050 -0.0995 -0.8299
   46MOL   H24112031   7.082   6.213   6.998 -0.7311  1.7155  1.1655
   46MOL   H24212032   7.196   6.357   6.968 -0.8030 -0.3654  0.7600
   46MOL   H24312033   7.245   6.342   7.214 -0.4532  0.5388 -0.9205
   46MOL   H24412034   7.186   6.153   7.428  1.6710 -0.0359  0.7200
   46MOL   H24512035   7.336   6.127   7.323 -0.4823  0.6403 -2.1811
   46MOL   H24612036   7.278   5.909   7.270  0.9480  1.5498 -1.1403
   46MOL   H24712037   7.259   5.933   7.445 -2.8717 -0.5306  0.3189
   46MOL   H24812038   7.113   5.926   7.348  0.1085 -0.4829 -0.7895
   46MOL   C24912039   7.026   6.337   7.216  0.2637 -0.4681  0.3396
   46MOL   C25012040   7.002   6.384   7.358 -1.0743  0.8645  0.5289
   46MOL   O25112041   6.976   6.264   7.427 -0.2356  0.0597 -0.0197
   46MOL   C25212042   6.934   6.283   7.563  0.2693  0.0551 -0.5338
   46MOL   C25312043   6.936   6.154   7.648  0.0999  0.3078 -0.4666
   46MOL   H25412044   6.944   6.268   7.193  0.1766  0.1476 -1.2391
   46MOL   H25512045   7.019   6.426   7.155  0.8770 -1.2438 -0.8778
   46MOL   H25612046   7.084   6.442   7.401 -1.9899  2.6235 -0.0632
   46MOL   H25712047   6.840   6.338   7.570  2.0437  3.2789 -1.0091
   46MOL   H25812048   7.001   6.352   7.614 -0.3534  1.2599 -1.3291
   46MOL   H25912049   7.029   6.097   7.651 -1.0589 -1.7429 -2.1541
   46MOL   H26012050   6.903   6.166   7.751  0.2477 -0.0204 -0.3832
   46MOL   H26112051   6.864   6.083   7.606 -2.7681  1.6927  1.9047
   46MOL   H26212052   6.907   6.438   7.367 -1.7655 -0.0957 -0.8249
   47MOL     C112053   1.373   4.871   1.581  0.2610 -0.0913  0.2204
   47MOL     C212054   1.330   4.852   1.727 -0.2007 -0.3894  0.4219
   47MOL     O312055   1.239   4.737   1.728  0.3117  0.1675  0.4903
   47MOL     C412056   1.271   4.647   1.833 -0.2644  0.1014  0.5471
   47MOL     C512057   1.150   4.541   1.829  0.1997 -0.0840  0.5462
   47MOL     H612058   1.411   4.782   1.530 -0.6294  0.8435 -2.1371
   47MOL     H712059   1.297   4.910   1.513 -0.4773 -2.6936 -0.4970
   47MOL     H812060   1.426   4.842   1.778  0.1717 -1.3894 -0.4503
   47MOL     H912061   1.265   4.698   1.929 -2.1330  2.9357 -0.9944
   47MOL    H1012062   1.365   4.594   1.825  0.3062  1.4993 -2.6888
   47MOL    H1112063   1.161   4.484   1.736 -0.2923 -3.3762  2.4461
   47MOL    H1212064   1.172   4.485   1.920  1.7589 -1.3574 -0.5831
   47MOL    H1312065   1.056   4.596   1.831  0.4596  0.4131 -0.3178
   47MOL    H1412066   1.448   4.950   1.571  1.0384 -1.0573 -1.8383
   47MOL    C1512067   1.255   4.973   1.792  0.5081  0.0458 -0.2558
   47MOL    C1612068   1.134   5.038   1.726 -0.2862 -0.8125 -0.1520
   47MOL    O1712069   1.088   5.149   1.805  0.1691 -0.3188 -0.0183
   47MOL    C1812070   1.105   5.279   1.750 -0.6088 -0.6055 -0.1085
   47MOL    C1912071   1.080   5.373   1.867 -1.7162  0.3519 -0.0037
   47MOL    H2012072   1.331   5.049   1.805  1.0512 -0.5005 -0.2012
   47MOL    H2112073   1.220   4.940   1.889  0.5060  1.9405  0.4075
   47MOL    H2212074   1.165   5.061   1.624 -0.4984 -2.3026 -0.5612
   47MOL    H2312075   1.039   5.305   1.668 -4.2489 -2.2120  2.1649
   47MOL    H2412076   1.203   5.287   1.703 -1.7362 -0.3113 -2.4608
   47MOL    H2512077   1.068   5.480   1.853 -1.9555  0.1373 -1.4222
   47MOL    H2612078   1.164   5.363   1.936 -0.9515 -1.1999 -1.1190
   47MOL    H2712079   0.984   5.349   1.913 -1.6578  0.8449  0.3816
   47MOL    C2812080   1.021   4.941   1.699  0.6565  0.5224  0.2830
   47MOL    C2912081   0.887   4.996   1.669 -0.0984 -0.6401  0.7051
   47MOL    O3012082   0.776   4.905   1.669 -0.0308 -0.5161  0.6206
   47MOL    C3112083   0.760   4.834   1.793 -0.9624  0.5300 -0.1737
   47MOL    C3212084   0.648   4.736   1.784  0.1973  0.1451  0.2090
   47MOL    H3312085   1.017   4.881   1.790 -0.6846  0.4957  0.2306
   47MOL    H3412086   1.058   4.875   1.620  0.2618 -0.0443  0.5681
   47MOL    H3512087   0.879   5.069   1.749  1.5998  0.1166  0.2003
   47MOL    H3612088   0.749   4.912   1.869 -1.5665  1.3403 -1.0749
   47MOL    H3712089   0.850   4.779   1.822 -2.3846 -2.1316 -0.7540
   47MOL    H3812090   0.621   4.679   1.872  0.7995 -0.0838  0.2516
   47MOL    H3912091   0.559   4.794   1.760 -0.8732 -1.8786 -0.7817
   47MOL    H4012092   0.653   4.670   1.698  0.3668  2.0404 -1.2786
   47MOL    C4112093   0.884   5.067   1.526  0.0611 -0.3792  0.1835
   47MOL    C4212094   0.765   5.161   1.496  0.2127 -0.4249  0.2722
   47MOL    O4312095   0.768   5.188   1.360  0.3350 -0.4450  0.3171
   47MOL    C4412096   0.703   5.093   1.278  0.1459  0.4311  0.6235
   47MOL    C4512097   0.710   5.136   1.123  0.4380  0.0639 -0.5593
   47MOL    H4612098   0.889   4.992   1.447  1.5825  0.0513 -0.1459
   47MOL    H4712099   0.971   5.129   1.504  0.6466 -1.0961  0.4494
   47MOL    H4812100   0.678   5.096   1.507  0.9026 -1.9274 -2.5520
   47MOL    H4912101   0.599   5.080   1.307  0.2807 -0.6008  0.6580
   47MOL    H5012102   0.748   4.993   1.278  0.8950  0.7583  1.2174
   47MOL    H5112103   0.812   5.168   1.102 -0.4206  2.0188 -1.9595
   47MOL    H5212104   0.676   5.057   1.055 -1.6167  0.1898  0.2847
   47MOL    H5312105   0.655   5.227   1.100 -0.9503 -0.9099 -1.1298
   47MOL    C5412106   0.737   5.286   1.583 -0.0480  0.1710  0.5890
   47MOL    C5512107   0.602   5.367   1.576  0.3454  0.2240  0.1080
   47MOL    O5612108   0.583   5.432   1.449  0.3473 -0.6482 -0.8535
   47MOL    C5712109   0.693   5.511   1.403  0.0840  0.1749 -0.1860
   47MOL    C5812110   0.646   5.569   1.272  0.3429  0.2425  0.4014
   47MOL    H5912111   0.823   5.353   1.584 -0.4186  0.7126 -1.9411
   47MOL    H6012112   0.728   5.235   1.679 -0.3689 -0.5199  0.1980
   47MOL    H6112113   0.525   5.293   1.595  1.5539 -2.0275 -3.3057
   47MOL    H6212114   0.774   5.444   1.373 -1.2830 -2.0310  0.8667
   47MOL    H6312115   0.721   5.591   1.471 -1.9711  0.5943  0.2179
   47MOL    H6412116   0.725   5.634   1.235  0.9702 -0.6791  0.0989
   47MOL    H6512117   0.630   5.491   1.197  0.4787  1.1327 -0.5668
   47MOL    H6612118   0.555   5.630   1.272 -0.3154 -0.7118 -1.3032
   47MOL    C6712119   0.601   5.466   1.693 -0.2891  0.1049 -0.6035
   47MOL    C6812120   0.462   5.542   1.709  0.3010  0.4773  0.2855
   47MOL    O6912121   0.502   5.672   1.736  1.0811 -0.8665  0.5154
   47MOL    C7012122   0.443   5.756   1.635  0.0916  0.4793  0.0770
   47MOL    C7112123   0.505   5.896   1.663 -0.2330 -0.0806 -0.2081
   47MOL    H7212124   0.682   5.538   1.687  0.3112 -0.6053 -1.1684
   47MOL    H7312125   0.615   5.407   1.783  0.5096  1.3633  0.1051
   47MOL    H7412126   0.401   5.538   1.619 -0.0043 -0.4852  0.5317
   47MOL    H7512127   0.335   5.764   1.645 -0.1544 -0.2039 -1.7358
   47MOL    H7612128   0.464   5.727   1.532 -0.6777  1.1993 -0.2942
   47MOL    H7712129   0.441   5.975   1.624 -0.0500 -0.0613 -0.4661
   47MOL    H7812130   0.513   5.904   1.772  2.4289  0.5870 -0.4006
   47MOL    H7912131   0.603   5.908   1.615  0.0919 -0.6598  0.3069
   47MOL    C8012132   0.380   5.492   1.837  0.2241 -0.0818 -0.5885
   47MOL    C8112133   0.295   5.362   1.819 -0.3574  0.2269  0.6303
   47MOL    O8212134   0.389   5.254   1.833 -0.4346  0.0110  0.2638
   47MOL    C8312135   0.397   5.210   1.963  0.2957  0.5835 -0.4049
   47MOL    C8412136   0.503   5.106   1.995  0.1446  0.3153  0.6294
   47MOL    H8512137   0.313   5.575   1.861  2.0994  1.3119 -0.0833
   47MOL    H8612138   0.445   5.496   1.925 -0.0189 -3.8964 -0.1495
   47MOL    H8712139   0.213   5.350   1.890 -2.3858  0.2826 -1.6418
   47MOL    H8812140   0.295   5.183   1.989  0.8940 -0.9763  0.3747
   47MOL    H8912141   0.418   5.302   2.019 -1.0893  1.1150 -0.7504
   47MOL    H9012142   0.489   5.101   2.103 -0.9930 -2.0255  0.4026
   47MOL    H9112143   0.491   5.009   1.947  1.1330  1.0634 -1.1609
   47MOL    H9212144   0.603   5.148   1.981  0.5898 -1.2846 -1.2055
   47MOL    C9312145   0.226   5.358   1.676  0.0714 -0.8208  0.2702
   47MOL    C9412146   0.110   5.456   1.659  0.4992  0.2337 -0.1448
   47MOL    O9512147   0.014   5.445   1.766  0.4811  0.2537 -0.0354
   47MOL    C9612148   7.770   5.558   1.782 -0.1110  0.0643  0.2305
   47MOL    C9712149   7.680   5.540   1.901  0.3333  0.6782  0.0384
   47MOL    H9812150   0.174   5.262   1.672 -0.1569 -0.7576  1.6167
   47MOL    H9912151   0.299   5.346   1.596 -0.3606 -0.3575 -0.1982
   47MOL   H10012152   0.152   5.556   1.662  2.2252 -0.3839 -2.4597
   47MOL   H10112153   7.712   5.575   1.691 -0.3948 -1.6108  0.0905
   47MOL   H10212154   7.831   5.646   1.805 -0.1663  0.3370 -0.6525
   47MOL   H10312155   7.630   5.636   1.915 -1.2338 -0.0449 -0.5418
   47MOL   H10412156   7.605   5.461   1.895  0.3211  0.4940  2.0806
   47MOL   H10512157   7.744   5.521   1.987  1.9746  2.2149 -0.8247
   47MOL   C10612158   0.034   5.437   1.526 -0.5720  0.6138  0.4354
   47MOL   C10712159   0.115   5.460   1.400  0.0197  0.3528 -0.7010
   47MOL   O10812160   0.160   5.590   1.385  0.5266 -0.0853 -0.7810
   47MOL   C10912161   0.288   5.601   1.333 -0.3582  0.4012  0.2635
   47MOL   C11012162   0.298   5.756   1.319  0.0623 -0.2108  0.6205
   47MOL   H11112163   7.785   5.492   1.512 -0.7211  0.5837  1.3035
   47MOL   H11212164   0.014   5.330   1.529  2.4214 -0.0522 -0.8993
   47MOL   H11312165   0.193   5.384   1.404  2.3329  2.5965 -1.4128
   47MOL   H11412166   0.288   5.574   1.228 -1.6215  0.2349  0.2992
   47MOL   H11512167   0.360   5.548   1.395  0.0873  0.5625 -0.1170
   47MOL   H11612168   0.287   5.802   1.417 -0.2848  1.2235 -0.0674
   47MOL   H11712169   0.397   5.788   1.289 -0.2365  0.9238  0.8100
   47MOL   H11812170   0.228   5.805   1.251  0.9649  0.1758 -0.0327
   47MOL   C11912171   0.024   5.412   1.279  0.1035 -0.4346  0.3483
   47MOL   C12012172   0.075   5.293   1.199 -0.3861 -0.3699  0.1405
   47MOL   O12112173   0.195   5.337   1.136 -0.3070 -0.2969  0.8463
   47MOL   C12212174   0.313   5.264   1.151 -0.3264  0.5546  0.5370
   47MOL   C12312175   0.345   5.175   1.031  0.2384 -0.4349  0.1981
   47MOL   H12412176   0.004   5.496   1.212  0.7650 -0.0920  0.5814
   47MOL   H12512177   7.764   5.393   1.309 -0.3475 -0.7883 -1.3637
   47MOL   H12612178   0.097   5.211   1.267 -1.5764 -2.4015 -1.8379
   47MOL   H12712179   0.322   5.208   1.244 -1.5260  0.5873  0.6775
   47MOL   H12812180   0.399   5.331   1.149  0.6811 -0.7554 -0.8961
   47MOL   H12912181   0.372   5.231   0.942  2.1723 -1.2646  0.2369
   47MOL   H13012182   0.411   5.091   1.051  2.4298  1.2657  0.3067
   47MOL   H13112183   0.247   5.137   1.003  0.3342  0.8401 -1.9868
   47MOL   C13212184   7.814   5.232   1.101 -0.3617  0.2124 -0.7576
   47MOL   C13312185   7.739   5.122   1.171 -0.1241  0.8812 -0.1107
   47MOL   O13412186   7.803   4.995   1.151 -0.2461 -0.1405  0.2368
   47MOL   C13512187   7.836   4.917   1.265  0.7085 -0.4671 -0.4439
   47MOL   C13612188   0.102   4.819   1.242 -0.0026 -0.5998  0.3007
   47MOL   H13712189   0.018   5.194   1.010  1.8032  1.6756 -0.2621
   47MOL   H13812190   7.749   5.311   1.065 -0.9895 -0.7778 -1.8747
   47MOL   H13912191   7.715   5.153   1.273 -1.2692 -0.3905  0.0253
   47MOL   H14012192   7.747   4.856   1.282  1.8398 -2.7226 -2.3517
   47MOL   H14112193   0.018   4.973   1.355  1.6008  0.7015 -1.4159
   47MOL   H14212194   0.114   4.757   1.331  0.3833  1.5296  1.7455
   47MOL   H14312195   0.077   4.749   1.162 -0.0320 -1.1025  0.7422
   47MOL   H14412196   0.200   4.863   1.228 -0.2555  0.4728  1.7968
   47MOL   C14512197   7.601   5.084   1.105  0.2455 -0.7066  0.5058
   47MOL   C14612198   7.494   5.192   1.096  0.4084  0.1831  0.1853
   47MOL   O14712199   7.477   5.246   1.226 -0.4351 -0.0648  0.2845
   47MOL   C14812200   7.466   5.385   1.223  0.1707 -0.5477  0.0871
   47MOL   C14912201   7.455   5.430   1.370  0.1740  0.4782 -0.0289
   47MOL   H15012202   7.551   5.006   1.163 -0.4943 -0.0626  0.7462
   47MOL   H15112203   7.603   5.049   1.002  1.0217 -0.3515  0.3990
   47MOL   H15212204   7.534   5.261   1.022 -0.9317 -0.7342 -1.4597
   47MOL   H15312205   7.379   5.416   1.166  0.2882 -0.4247 -0.0254
   47MOL   H15412206   7.555   5.430   1.179 -0.5504  1.0093  0.1802
   47MOL   H15512207   7.452   5.539   1.372 -2.7684  0.3974  1.6771
   47MOL   H15612208   7.360   5.396   1.409  0.6691 -0.6957  0.1785
   47MOL   H15712209   7.544   5.399   1.425 -0.2718  0.1862  0.5286
   47MOL   C15812210   7.348   5.147   1.066 -1.2667  0.3325  0.1300
   47MOL   C15912211   7.324   5.071   0.932  0.2197 -0.2491  0.0587
   47MOL   O16012212   7.336   5.170   0.827 -0.7987 -0.0907 -0.3440
   47MOL   C16112213   7.404   5.132   0.703  0.6914  0.0147 -0.1427
   47MOL   C16212214   7.428   5.251   0.605  0.2278 -0.5250 -0.0229
   47MOL   H16312215   7.277   5.226   1.088 -1.1276  0.4255  0.2508
   47MOL   H16412216   7.327   5.078   1.148 -3.4018  1.3901  0.4959
   47MOL   H16512217   7.406   5.001   0.915  0.4177  0.1167 -0.5190
   47MOL   H16612218   7.346   5.056   0.649 -0.1003  0.6536 -0.1986
   47MOL   H16712219   7.499   5.083   0.725  0.8030 -0.3020 -1.2934
   47MOL   H16812220   7.475   5.333   0.658 -0.7675 -0.9164  1.5100
   47MOL   H16912221   7.491   5.217   0.522 -1.0351 -0.7701 -0.9029
   47MOL   H17012222   7.344   5.300   0.555  1.7674  2.7813  0.5209
   47MOL   C17112223   7.177   5.016   0.927 -0.1591 -0.3255  0.5918
   47MOL   C17212224   7.161   4.888   0.839 -0.6279  0.1584 -0.5296
   47MOL   O17312225   7.022   4.871   0.816  0.0659  0.7988  0.0329
   47MOL   C17412226   6.971   4.792   0.706  0.0252 -0.3195 -0.6281
   47MOL   C17512227   6.816   4.787   0.711  0.1429  0.3066  0.4444
   47MOL   H17612228   7.106   5.095   0.901 -1.5999 -1.3053  1.4724
   47MOL   H17712229   7.140   4.994   1.027  1.1003 -0.9079  0.9431
   47MOL   H17812230   7.210   4.901   0.742 -0.2776  0.7632 -0.2748
   47MOL   H17912231   7.007   4.689   0.715 -1.0670 -0.6196  0.5509
   47MOL   H18012232   7.006   4.851   0.621 -0.6174  0.2943 -0.4685
   47MOL   H18112233   6.784   4.891   0.699  1.2895  0.7374  0.9939
   47MOL   H18212234   6.764   4.735   0.631 -1.8730  0.2540  1.7560
   47MOL   H18312235   6.782   4.749   0.808  0.8373 -0.0891  0.5347
   47MOL   C18412236   7.220   4.757   0.902  0.3710 -0.6815  0.5193
   47MOL   C18512237   7.320   4.678   0.812  0.4268 -0.1999  0.2125
   47MOL   O18612238   7.250   4.576   0.743  0.3613  0.5682  0.0728
   47MOL   C18712239   7.249   4.597   0.601 -0.6412 -0.9641  0.2112
   47MOL   C18812240   7.169   4.488   0.538 -0.1338  0.5770 -0.2450
   47MOL   H18912241   7.141   4.695   0.945 -0.7755  0.8796  0.7220
   47MOL   H19012242   7.266   4.788   0.996 -1.5006  0.8428  0.9507
   47MOL   H19112243   7.382   4.741   0.748  0.0111  0.0937  0.0964
   47MOL   H19212244   7.351   4.589   0.565 -0.4050  1.1572  0.3540
   47MOL   H19312245   7.209   4.698   0.589  0.3831 -0.4807  0.7625
   47MOL   H19412246   7.065   4.518   0.526 -0.2906  1.2645  2.4188
   47MOL   H19512247   7.219   4.459   0.446  1.1879  0.8988  0.3578
   47MOL   H19612248   7.175   4.398   0.600  0.2229  1.2280  0.6703
   47MOL   C19712249   7.435   4.608   0.892 -0.8987 -0.2175 -0.8867
   47MOL   C19812250   7.569   4.574   0.825 -0.4504 -0.1716 -0.2853
   47MOL   O19912251   7.634   4.477   0.906  0.2296  1.0040 -0.0844
   47MOL   C20012252   7.625   4.338   0.855  0.5144  0.3940  0.0228
   47MOL   C20112253   7.706   4.254   0.956 -0.3523 -0.5250 -0.0985
   47MOL   H20212254   7.394   4.518   0.938 -1.8875  1.4243  1.5616
   47MOL   H20312255   7.464   4.658   0.984  0.2010 -2.7590  0.1800
   47MOL   H20412256   7.554   4.543   0.721  1.9451 -1.2952 -0.3396
   47MOL   H20512257   7.660   4.330   0.752 -1.2636  0.3943 -0.6049
   47MOL   H20612258   7.523   4.299   0.856  1.8456 -3.3380  1.3873
   47MOL   H20712259   7.735   4.156   0.918 -1.1062 -0.5169 -0.6993
   47MOL   H20812260   7.796   4.308   0.986  0.1278 -1.6099  0.4125
   47MOL   H20912261   7.672   4.255   1.060  2.9747 -0.0752  1.0455
   47MOL   C21012262   7.661   4.694   0.823 -0.2332  0.7824 -0.0216
   47MOL   C21112263   7.765   4.708   0.702  1.0782  1.3041 -0.0603
   47MOL   O21212264   0.006   4.811   0.739  0.0892  0.2919  0.0281
   47MOL   C21312265   0.118   4.767   0.826  0.9732  0.0211  0.2785
   47MOL   C21412266   0.234   4.856   0.783  0.0035 -0.2826 -0.1511
   47MOL   H21512267   7.721   4.701   0.913  2.7901  0.7872 -1.9556
   47MOL   H21612268   7.605   4.788   0.820 -1.9660 -0.1190  2.6260
   47MOL   H21712269   7.822   4.616   0.687  0.5143  1.3194 -2.4431
   47MOL   H21812270   0.163   4.669   0.810 -0.2104 -0.6433  0.9342
   47MOL   H21912271   0.087   4.773   0.931 -2.6959 -1.5976 -0.6205
   47MOL   H22012272   0.335   4.816   0.780  0.4841  0.9391 -0.9140
   47MOL   H22112273   0.221   4.898   0.683  0.1566  0.2014  0.0279
   47MOL   H22212274   0.241   4.929   0.864  0.0908 -0.0898 -0.3318
   47MOL   C22312275   7.687   4.740   0.570  0.1560  0.2914  0.6346
   47MOL   C22412276   7.780   4.771   0.453 -0.5881  0.3091 -0.4764
   47MOL   O22512277   7.699   4.833   0.356  0.1286 -0.6627 -1.1720
   47MOL   C22612278   7.708   4.975   0.366 -0.7593  0.0113 -0.2407
   47MOL   C22712279   7.572   5.036   0.338  0.1400 -0.2222  0.4667
   47MOL   H22812280   7.612   4.818   0.585  0.5189  0.4417  1.6249
   47MOL   H22912281   7.636   4.647   0.545  2.2327 -0.4424 -1.0308
   47MOL   H23012282   0.014   4.843   0.483 -0.6119  0.4906 -0.8410
   47MOL   H23112283   7.778   4.989   0.284 -1.1630 -0.6258 -0.7023
   47MOL   H23212284   7.755   5.021   0.453  0.7948 -1.4995 -0.2489
   47MOL   H23312285   7.574   5.145   0.349  0.4806 -0.2840  1.0106
   47MOL   H23412286   7.529   5.027   0.238  2.7268  0.0424 -0.7014
   47MOL   H23512287   7.497   4.992   0.403  0.2244 -0.1798  0.5926
   47MOL   C23612288   7.836   4.657   0.371 -0.2427 -0.4266  0.2186
   47MOL   C23712289   0.133   4.603   0.429 -0.1670  0.2037  0.7216
   47MOL   O23812290   0.220   4.710   0.412  0.1230  0.1719 -0.0597
   47MOL   C23912291   0.347   4.704   0.475 -0.2608  0.0406 -0.1018
   47MOL   C24012292   0.422   4.834   0.463  0.4096 -0.0602 -0.1427
   47MOL   H24112293   0.008   4.698   0.271  0.4435  1.3449  1.0455
   47MOL   H24212294   7.768   4.573   0.353  1.8933 -1.6973 -2.3568
   47MOL   H24312295   0.127   4.598   0.538  0.2628  1.4624  0.8109
   47MOL   H24412296   0.399   4.624   0.423  2.2690 -0.1289  2.5286
   47MOL   H24512297   0.339   4.671   0.579  1.8075 -1.5643 -0.4295
   47MOL   H24612298   0.510   4.831   0.526 -1.0443 -0.1023  1.9338
   47MOL   H24712299   0.449   4.831   0.357 -1.7586 -1.3029 -0.6845
   47MOL   H24812300   0.359   4.918   0.495 -0.7237 -1.0901  0.3543
   47MOL   C24912301   0.180   4.469   0.365 -0.0393 -0.3356  0.6504
   47MOL   C25012302   0.098   4.346   0.392  0.0755 -0.2407  0.1204
   47MOL   O25112303   0.170   4.235   0.340 -0.3718  0.8657 -0.4402
   47MOL   C25212304   0.107   4.107   0.328  0.2532 -0.1604 -0.0076
   47MOL   C25312305   0.207   4.013   0.253  0.6200  0.2366  0.2346
   47MOL   H25412306   0.275   4.439   0.410 -0.7989 -2.0566  1.1313
   47MOL   H25512307   0.191   4.491   0.259  0.0111 -0.8856  0.5404
   47MOL   H25612308   0.078   4.328   0.498  1.1381 -1.2956  0.1514
   47MOL   H25712309   0.007   4.103   0.286 -0.0990  1.6770  0.6334
   47MOL   H25812310   0.094   4.066   0.428  1.3424 -0.5728 -0.0279
   47MOL   H25912311   0.198   4.038   0.148  1.7637  2.5159  0.6426
   47MOL   H26012312   0.308   4.016   0.296  0.3925 -2.7340  1.0680
   47MOL   H26112313   0.180   3.908   0.246 -0.0910  0.4334  0.0167
   47MOL   H26212314   7.843   4.358   0.346  0.6903  1.6795 -0.7762
   48MOL     C112315   0.909   2.407   4.559 -0.1478  0.0881 -0.5976
   48MOL     C212316   0.760   2.430   4.555  0.1989 -0.4140  0.3061
   48MOL     O312317   0.743   2.571   4.542 -0.3673  0.0819  0.3987
   48MOL     C412318   0.742   2.607   4.405  0.2809  0.2130  0.2390
   48MOL     C512319   0.750   2.755   4.407  0.3301  1.2863  0.5016
   48MOL     H612320   0.954   2.454   4.647 -0.5896  0.6943 -0.6963
   48MOL     H712321   0.916   2.298   4.567  0.6746  0.0484 -1.7408
   48MOL     H812322   0.731   2.389   4.458  1.0369  0.3098 -0.2613
   48MOL     H912323   0.651   2.568   4.358  0.2212  0.2881  0.2924
   48MOL    H1012324   0.823   2.572   4.341 -0.4225 -0.5323 -0.2580
   48MOL    H1112325   0.669   2.803   4.462 -3.3949 -2.8010 -1.0850
   48MOL    H1212326   0.845   2.779   4.455  0.9560  0.5181 -0.3271
   48MOL    H1312327   0.754   2.819   4.318 -1.3465  1.3364  0.4490
   48MOL    H1412328   0.953   2.444   4.467  0.1402  2.1548  0.3464
   48MOL    C1512329   0.674   2.357   4.663  0.0149 -0.3056 -0.3888
   48MOL    C1612330   0.654   2.204   4.648 -0.0927 -0.3579  0.1063
   48MOL    O1712331   0.548   2.200   4.551  0.1419 -0.0957  0.1429
   48MOL    C1812332   0.541   2.088   4.471 -0.5299  0.4954  0.4591
   48MOL    C1912333   0.405   2.073   4.398  0.5506 -0.1571 -0.0859
   48MOL    H2012334   0.574   2.400   4.666 -1.1630 -2.9357 -0.5257
   48MOL    H2112335   0.714   2.378   4.762  0.9679  1.4127 -1.1249
   48MOL    H2212336   0.736   2.165   4.587  0.6859  0.6417  0.5127
   48MOL    H2312337   0.570   1.995   4.518 -1.0216  0.8417  1.4634
   48MOL    H2412338   0.613   2.103   4.390 -0.3765 -0.1199  0.4793
   48MOL    H2512339   0.377   2.171   4.358 -2.4498 -1.4919 -1.4858
   48MOL    H2612340   0.327   2.028   4.459  0.0297  1.6098  0.5605
   48MOL    H2712341   0.409   2.003   4.314  0.7766 -0.4728  0.1883
   48MOL    C2812342   0.624   2.123   4.773  0.0432  0.3280 -0.3565
   48MOL    C2912343   0.737   2.112   4.870 -0.3716 -0.2491  0.5104
   48MOL    O3012344   0.855   2.080   4.792  0.3100 -0.0151  0.4677
   48MOL    C3112345   0.982   2.093   4.852  0.5946  0.9796 -0.1062
   48MOL    C3212346   1.051   2.232   4.836 -0.1238  0.0202  0.0255
   48MOL    H3312347   0.592   2.022   4.747  2.0944 -0.6453  0.7515
   48MOL    H3412348   0.535   2.167   4.817  1.3553  1.0367  1.6554
   48MOL    H3512349   0.763   2.212   4.903  2.2230 -0.7722  0.1751
   48MOL    H3612350   1.045   2.011   4.818  1.0231  1.4657 -0.4767
   48MOL    H3712351   0.971   2.064   4.957  0.0128  0.5604 -0.2767
   48MOL    H3812352   1.090   2.245   4.736 -0.7882 -1.5317 -0.4474
   48MOL    H3912353   0.987   2.313   4.872 -1.4020 -0.1888 -1.7649
   48MOL    H4012354   1.134   2.233   4.907 -0.7663 -1.6762  0.8226
   48MOL    C4112355   0.711   2.009   4.984 -0.7122  0.4284 -0.2623
   48MOL    C4212356   0.618   2.064   5.102 -0.5178 -0.0420 -0.5355
   48MOL    O4312357   0.482   2.069   5.059 -0.2005  0.2494 -0.0247
   48MOL    C4412358   0.416   1.943   5.030  0.2806  0.2666 -0.4086
   48MOL    C4512359   0.377   1.880   5.162 -0.1350 -0.8817 -0.0373
   48MOL    H4612360   0.801   1.982   5.039 -0.2517  1.1206 -0.6697
   48MOL    H4712361   0.667   1.917   4.947  0.6293 -0.0909 -0.5678
   48MOL    H4812362   0.633   1.994   5.184 -1.4476  0.1269 -0.2160
   48MOL    H4912363   0.463   1.883   4.953 -2.4677 -0.2721 -1.7149
   48MOL    H5012364   0.327   1.973   4.975 -1.4640 -0.6299  1.8490
   48MOL    H5112365   0.346   1.952   5.238  3.5577  0.0311  0.7313
   48MOL    H5212366   0.312   1.795   5.141  0.4635 -1.3271 -0.1068
   48MOL    H5312367   0.461   1.830   5.209 -0.4878 -1.2883  0.1638
   48MOL    C5412368   0.648   2.212   5.157  0.4094  0.1918  0.0513
   48MOL    C5512369   0.789   2.213   5.227 -0.4590  0.5007  0.2080
   48MOL    O5612370   0.773   2.161   5.354 -0.4811  0.4185  0.1917
   48MOL    C5712371   0.833   2.037   5.385  0.2240 -0.8001 -0.1989
   48MOL    C5812372   0.813   2.003   5.527  0.1105 -0.0424  0.4689
   48MOL    H5912373   0.571   2.241   5.229  0.3349 -0.8485  0.3854
   48MOL    H6012374   0.649   2.288   5.079 -2.0633 -1.8878 -2.1251
   48MOL    H6112375   0.857   2.152   5.168 -0.9266 -2.1662  2.3368
   48MOL    H6212376   0.936   2.045   5.349 -0.7463 -2.5328 -3.5250
   48MOL    H6312377   0.782   1.956   5.334  1.3554  0.1543 -2.9504
   48MOL    H6412378   0.712   1.964   5.544 -0.9993  1.5886 -2.0877
   48MOL    H6512379   0.891   1.928   5.537  1.1893  0.8045 -1.4772
   48MOL    H6612380   0.840   2.082   5.597 -0.6567 -0.0756  0.8066
   48MOL    C6712381   0.838   2.352   5.254  0.1101 -0.0259 -0.6807
   48MOL    C6812382   0.983   2.366   5.310 -0.4778  0.6165  0.5654
   48MOL    O6912383   0.986   2.486   5.386 -0.5024 -0.5491 -0.7068
   48MOL    C7012384   0.959   2.464   5.523 -0.2474  0.7876  0.1118
   48MOL    C7112385   0.938   2.595   5.600  0.0312  0.1888 -0.2814
   48MOL    H7212386   0.760   2.389   5.320  1.7352  0.6355  0.9010
   48MOL    H7312387   0.829   2.421   5.169  0.3533  0.2857 -0.4557
   48MOL    H7412388   0.995   2.280   5.375 -1.5502  2.3896  3.2072
   48MOL    H7512389   1.033   2.394   5.563 -0.5242  0.1850 -0.4301
   48MOL    H7612390   0.863   2.413   5.515  0.5734 -0.5260 -1.4275
   48MOL    H7712391   1.024   2.661   5.588  0.3119 -0.2619 -0.7764
   48MOL    H7812392   0.855   2.656   5.562 -2.2117 -3.3617 -1.3367
   48MOL    H7912393   0.904   2.574   5.701  0.1380 -0.0742 -0.3001
   48MOL    C8012394   1.093   2.359   5.201  0.4022  0.5879  0.3105
   48MOL    C8112395   1.241   2.396   5.242  0.1967  0.1073  0.2903
   48MOL    O8212396   1.318   2.374   5.126  0.5217 -0.3809 -0.0991
   48MOL    C8312397   1.363   2.490   5.053 -0.7694  0.4329 -0.3830
   48MOL    C8412398   1.498   2.539   5.082  0.2596 -0.1458 -0.2315
   48MOL    H8512399   1.065   2.422   5.116  0.5996  0.7564  0.3676
   48MOL    H8612400   1.090   2.261   5.154 -2.0496 -0.3545  2.3045
   48MOL    H8712401   1.251   2.498   5.279  0.5745  0.2624 -0.2340
   48MOL    H8812402   1.289   2.570   5.053 -0.2992  0.9140  2.0758
   48MOL    H8912403   1.360   2.458   4.949 -1.1884  0.4506 -0.3772
   48MOL    H9012404   1.498   2.590   5.178 -1.3775 -0.5483  0.0014
   48MOL    H9112405   1.559   2.449   5.088  2.1147  1.1901  1.6757
   48MOL    H9212406   1.536   2.611   5.009 -0.6427  2.0366  1.4054
   48MOL    C9312407   1.278   2.302   5.356 -0.1754 -0.6916  0.2935
   48MOL    C9412408   1.423   2.303   5.400 -0.5711  0.9370  0.0711
   48MOL    O9512409   1.436   2.184   5.484 -0.2047 -0.0834 -0.0592
   48MOL    C9612410   1.567   2.124   5.485  0.1590  0.0134 -0.3091
   48MOL    C9712411   1.562   2.013   5.593  0.8525  0.0218 -0.1411
   48MOL    H9812412   1.264   2.201   5.319  0.3364 -1.7773  2.9298
   48MOL    H9912413   1.212   2.316   5.442  2.0584  1.2621  1.7736
   48MOL   H10012414   1.482   2.310   5.309  1.3998  0.6737  1.3076
   48MOL   H10112415   1.645   2.198   5.497 -0.4296  1.1106 -2.8680
   48MOL   H10212416   1.579   2.068   5.392  0.3590 -0.4933  0.0171
   48MOL   H10312417   1.497   1.928   5.573 -1.1488  1.0643  1.7113
   48MOL   H10412418   1.657   1.972   5.628  0.2343 -0.7508  0.6394
   48MOL   H10512419   1.525   2.064   5.682 -1.8648 -0.5555 -0.9179
   48MOL   C10612420   1.449   2.425   5.489 -0.1492  0.1210  0.0061
   48MOL   C10712421   1.595   2.474   5.517  0.3024  0.5541 -0.3481
   48MOL   O10812422   1.593   2.610   5.575  0.7206  0.3520  0.1955
   48MOL   C10912423   1.552   2.602   5.712  0.5561  0.2157  0.2318
   48MOL   C11012424   1.540   2.745   5.759  0.3361  0.0940 -0.8238
   48MOL   H11112425   1.394   2.409   5.581 -0.2498 -3.5134 -0.6161
   48MOL   H11212426   1.407   2.512   5.439 -2.6084 -2.5810 -2.8477
   48MOL   H11312427   1.631   2.397   5.584  1.8790  0.9853 -0.6840
   48MOL   H11412428   1.622   2.544   5.772  0.1465 -1.5269 -0.9039
   48MOL   H11512429   1.459   2.546   5.724  0.2791  0.4788 -0.6124
   48MOL   H11612430   1.459   2.799   5.710 -0.4711  0.7538  1.1866
   48MOL   H11712431   1.526   2.752   5.867  3.1902  0.0981 -0.4140
   48MOL   H11812432   1.635   2.798   5.753  1.3134 -1.3381  1.3059
   48MOL   C11912433   1.687   2.472   5.400  0.2075 -0.4397  0.3714
   48MOL   C12012434   1.827   2.532   5.425 -0.5418  0.2804  0.4593
   48MOL   O12112435   1.910   2.500   5.309  0.3560 -0.5077 -0.3636
   48MOL   C12212436   1.891   2.578   5.191 -0.3144  0.4669  0.8374
   48MOL   C12312437   2.007   2.568   5.097 -0.2434  0.0737 -0.4165
   48MOL   H12412438   1.638   2.532   5.323 -0.8919 -1.8356 -0.0422
   48MOL   H12512439   1.697   2.373   5.355 -0.0844  0.1812 -1.0951
   48MOL   H12612440   1.817   2.640   5.426  1.1327  0.4573 -0.3881
   48MOL   H12712441   1.884   2.685   5.211  0.8457  0.9468 -1.1611
   48MOL   H12812442   1.796   2.544   5.149  0.8192 -0.2926 -1.2145
   48MOL   H12912443   2.042   2.466   5.078  0.2907  0.2085 -0.1811
   48MOL   H13012444   1.983   2.612   5.000  2.5773 -1.3148 -1.8241
   48MOL   H13112445   2.086   2.629   5.141  0.7826 -2.5622  1.5735
   48MOL   C13212446   1.912   2.478   5.543  0.5507 -1.2010  0.3292
   48MOL   C13312447   2.032   2.565   5.569  0.2536  0.3646 -1.0075
   48MOL   O13412448   2.082   2.510   5.689  0.1249 -0.0970 -0.1348
   48MOL   C13512449   2.177   2.406   5.674  0.0948  0.7649 -0.4332
   48MOL   C13612450   2.208   2.337   5.804 -0.2711 -0.4365  0.0117
   48MOL   H13712451   1.934   2.371   5.537  2.3005 -0.8585  0.1934
   48MOL   H13812452   1.854   2.483   5.635 -1.2116  4.7886 -0.8472
   48MOL   H13912453   2.100   2.563   5.483 -1.5371  1.1368 -2.4662
   48MOL   H14012454   2.269   2.439   5.624 -0.5457  4.1281  0.4613
   48MOL   H14112455   2.137   2.323   5.617  2.0029  0.0078 -0.7047
   48MOL   H14212456   2.114   2.298   5.843 -0.6103  1.2554  0.9314
   48MOL   H14312457   2.279   2.255   5.792  2.9198  2.0498  1.3334
   48MOL   H14412458   2.247   2.404   5.881 -1.2389 -1.2213  1.2113
   48MOL   C14512459   2.008   2.715   5.599 -0.3960  0.1603  0.0761
   48MOL   C14612460   2.132   2.793   5.644 -0.1043 -0.4175  0.0945
   48MOL   O14712461   2.092   2.936   5.632 -0.1269  0.3072  0.1070
   48MOL   C14812462   2.053   3.008   5.746  0.5493  0.7890  0.2443
   48MOL   C14912463   2.037   3.150   5.691 -0.4084 -0.1036 -0.2166
   48MOL   H15012464   1.934   2.732   5.677 -0.7352 -1.0584  0.0286
   48MOL   H15112465   1.975   2.764   5.507 -0.7478  0.0624  0.1493
   48MOL   H15212466   2.143   2.759   5.747  1.5443  0.6234  0.2711
   48MOL   H15312467   2.123   2.989   5.827 -1.3469  1.0421  1.9612
   48MOL   H15412468   1.958   2.966   5.778  0.7851 -0.0978 -0.1859
   48MOL   H15512469   2.016   3.229   5.762  1.9151  1.9852 -1.7660
   48MOL   H15612470   2.133   3.184   5.653 -0.6588  0.9193  0.0496
   48MOL   H15712471   1.963   3.148   5.611 -0.8723  0.7576  0.1880
   48MOL   C15812472   2.267   2.760   5.565  0.4024 -0.4874  0.2720
   48MOL   C15912473   2.380   2.859   5.601 -0.2615  0.3286 -0.3838
   48MOL   O16012474   2.490   2.838   5.520 -0.1851  0.1246 -0.0460
   48MOL   C16112475   2.491   2.870   5.382 -0.3364 -0.2677 -0.3045
   48MOL   C16212476   2.626   2.835   5.318 -0.2297  0.4350 -0.2150
   48MOL   H16312477   2.245   2.757   5.458  0.4639 -0.8318  0.2702
   48MOL   H16412478   2.304   2.661   5.590 -0.6468 -0.8940  0.2123
   48MOL   H16512479   2.349   2.962   5.585  0.1166  0.2586 -1.6945
   48MOL   H16612480   2.470   2.976   5.370 -0.3819 -0.1382  0.8281
   48MOL   H16712481   2.407   2.820   5.332 -0.2479  1.2235 -1.9793
   48MOL   H16812482   2.640   2.727   5.323  0.1412  0.5649  1.8385
   48MOL   H16912483   2.652   2.861   5.215  1.8517 -0.0763  0.1698
   48MOL   H17012484   2.713   2.877   5.367  1.6808 -2.7397 -0.7536
   48MOL   C17112485   2.432   2.860   5.741  0.6873  0.0018  0.2946
   48MOL   C17212486   2.547   2.958   5.786  0.5870 -0.0623 -0.0118
   48MOL   O17312487   2.676   2.911   5.759 -0.2411 -0.2140 -0.4459
   48MOL   C17412488   2.750   2.987   5.658 -0.6842 -1.4009  0.6235
   48MOL   C17512489   2.866   2.904   5.613 -0.2680 -0.2245  0.7649
   48MOL   H17612490   2.485   2.765   5.752  0.0334 -0.5957 -1.5791
   48MOL   H17712491   2.353   2.865   5.816  0.2932  2.6054 -0.2558
   48MOL   H17812492   2.531   3.052   5.735  1.7164  0.1205 -0.0539
   48MOL   H17912493   2.778   3.085   5.696 -1.2719 -1.2462  0.6553
   48MOL   H18012494   2.687   2.995   5.570  0.0440 -0.8153  0.1465
   48MOL   H18112495   2.838   2.799   5.603 -0.1836 -0.0182 -1.7718
   48MOL   H18212496   2.909   2.939   5.520 -0.4575 -0.2574  0.6661
   48MOL   H18312497   2.955   2.911   5.677  2.3295  0.1461 -2.7544
   48MOL   C18412498   2.554   2.978   5.942  0.3814 -0.0903 -0.0116
   48MOL   C18512499   2.435   3.056   5.988  0.0303 -0.2895 -0.3117
   48MOL   O18612500   2.444   3.192   5.935  0.3897  0.3636 -0.1404
   48MOL   C18712501   2.319   3.259   5.907 -0.1020  0.1934 -0.1069
   48MOL   C18812502   2.360   3.397   5.858 -0.4871  0.0816 -0.1801
   48MOL   H18912503   2.647   3.030   5.963 -1.1192  3.3109 -1.4966
   48MOL   H19012504   2.552   2.878   5.986  1.2252  0.4069  1.1718
   48MOL   H19112505   2.346   3.003   5.954  1.1053 -1.8169 -0.7498
   48MOL   H19212506   2.256   3.263   5.997  1.4916 -1.3190  1.1158
   48MOL   H19312507   2.262   3.199   5.836  1.1228 -0.4608 -0.5549
   48MOL   H19412508   2.312   3.482   5.907  0.4648  0.0077  0.8992
   48MOL   H19512509   2.469   3.400   5.866 -0.3800 -0.8127 -1.0952
   48MOL   H19612510   2.350   3.391   5.749  0.9352  0.1797 -0.3263
   48MOL   C19712511   2.420   3.072   6.139 -0.1915 -0.3682 -0.5280
   48MOL   C19812512   2.371   2.940   6.211  0.2487  0.2136 -0.3239
   48MOL   O19912513   2.237   2.901   6.172 -0.3430 -0.3831  0.6846
   48MOL   C20012514   2.235   2.783   6.100 -0.7263 -0.5276  0.2668
   48MOL   C20112515   2.099   2.781   6.044  0.1890 -0.2093  0.2546
   48MOL   H20212516   2.352   3.153   6.165 -1.4437 -1.3704 -0.6472
   48MOL   H20312517   2.515   3.095   6.189 -0.0936 -0.2659 -0.7621
   48MOL   H20412518   2.441   2.860   6.187  0.5689  0.3547  0.1272
   48MOL   H20512519   2.250   2.692   6.158  1.3987 -0.5696 -0.2958
   48MOL   H20612520   2.311   2.778   6.021 -0.1871  0.3185  0.7183
   48MOL   H20712521   2.025   2.779   6.123 -3.2733  2.3033 -2.7606
   48MOL   H20812522   2.073   2.877   5.999  0.5825  0.8032  2.1515
   48MOL   H20912523   2.090   2.697   5.974  0.4755  0.1409 -0.2022
   48MOL   C21012524   2.369   2.963   6.368 -0.5505  0.1853  0.0480
   48MOL   C21112525   2.338   2.830   6.434  1.0784 -0.1422  0.8323
   48MOL   O21212526   2.309   2.853   6.572  0.1541  0.0213 -0.1332
   48MOL   C21312527   2.166   2.879   6.592 -1.0819 -0.2237 -0.2161
   48MOL   C21412528   2.127   2.869   6.738  0.0957  0.1162 -0.4162
   48MOL   H21512529   2.300   3.043   6.396  0.3910  0.7874  0.6801
   48MOL   H21612530   2.464   2.996   6.410 -1.2676  0.4292  1.4936
   48MOL   H21712531   2.255   2.780   6.385  1.8545 -1.5843  0.9533
   48MOL   H21812532   2.105   2.811   6.533  0.5571 -1.3154 -0.6830
   48MOL   H21912533   2.138   2.979   6.560 -0.0811  0.3558  0.6608
   48MOL   H22012534   2.161   2.940   6.813 -2.2324 -0.4144  1.1825
   48MOL   H22112535   2.019   2.859   6.737  0.1162 -0.1100 -0.2109
   48MOL   H22212536   2.151   2.768   6.771  0.1337  0.1431 -0.3624
   48MOL   C22312537   2.461   2.733   6.429 -0.3802  0.7700 -0.1113
   48MOL   C22412538   2.459   2.611   6.520  0.4277  0.4688  0.3566
   48MOL   O22512539   2.565   2.523   6.473  0.2188  0.4935 -0.1155
   48MOL   C22612540   2.608   2.419   6.562  0.5025 -0.3412 -0.3852
   48MOL   C22712541   2.725   2.334   6.496 -0.2246 -0.3272 -0.5163
   48MOL   H22812542   2.547   2.799   6.441  0.7829 -0.9310  1.2841
   48MOL   H22912543   2.459   2.701   6.325 -1.6862 -0.1465  0.1855
   48MOL   H23012544   2.496   2.645   6.616  5.5481 -1.0062 -0.8986
   48MOL   H23112545   2.528   2.353   6.595 -0.4298 -0.1442 -2.1830
   48MOL   H23212546   2.654   2.456   6.653  1.7800 -0.2311 -1.0624
   48MOL   H23312547   2.708   2.278   6.404  1.5628 -1.1206 -0.3917
   48MOL   H23412548   2.811   2.400   6.482 -0.9932  1.4547  2.5825
   48MOL   H23512549   2.741   2.252   6.565 -1.4102  0.6329  0.9257
   48MOL   C23612550   2.320   2.539   6.531  0.3043 -0.0232 -0.4584
   48MOL   C23712551   2.248   2.467   6.417 -0.1438  0.1379 -0.4102
   48MOL   O23812552   2.113   2.415   6.461  0.1388 -0.2003  0.1819
   48MOL   C23912553   2.008   2.512   6.478 -0.1515  1.0072 -0.4219
   48MOL   C24012554   1.864   2.454   6.449  0.4697 -0.0748 -0.1803
   48MOL   H24112555   2.246   2.607   6.574  2.6291  0.9336  2.1974
   48MOL   H24212556   2.327   2.464   6.610 -1.5900 -1.4530 -1.5915
   48MOL   H24312557   2.230   2.523   6.325 -1.7787  0.4982  0.1070
   48MOL   H24412558   2.017   2.600   6.414  1.4057 -0.8155 -2.7675
   48MOL   H24512559   2.009   2.528   6.586  0.6085  0.8969 -0.4098
   48MOL   H24612560   1.791   2.535   6.460  1.7398  0.9875  0.4892
   48MOL   H24712561   1.850   2.413   6.349 -0.2029  1.0863 -0.5698
   48MOL   H24812562   1.854   2.370   6.517  0.5344  0.1973  0.1676
   48MOL   C24912563   2.317   2.327   6.371 -0.6013 -0.9273 -0.2232
   48MOL   C25012564   2.269   2.270   6.239 -0.7170  0.5902 -0.3347
   48MOL   O25112565   2.274   2.132   6.229 -0.0785  0.0342 -0.4069
   48MOL   C25212566   2.358   2.071   6.134  0.9773  0.4910 -0.6296
   48MOL   C25312567   2.338   1.918   6.138  0.3566  0.0472 -0.7065
   48MOL   H25412568   2.296   2.253   6.448 -1.6624 -2.0901 -1.5966
   48MOL   H25512569   2.425   2.341   6.362 -0.6882  0.3887  0.6494
   48MOL   H25612570   2.162   2.292   6.239 -0.5252  1.5201 -1.4041
   48MOL   H25712571   2.465   2.078   6.149  1.0177 -0.8111 -0.2486
   48MOL   H25812572   2.336   2.115   6.036 -1.0821 -3.1496 -1.9175
   48MOL   H25912573   2.382   1.878   6.230  0.3822  0.7540 -0.4027
   48MOL   H26012574   2.233   1.892   6.128  1.0809 -1.8097 -4.1197
   48MOL   H26112575   2.383   1.887   6.044 -1.7835 -1.6098 -1.2070
   48MOL   H26212576   2.305   2.321   6.151 -0.6695 -0.9207 -1.2083
   49MOL     C112577   4.791   0.898   2.032  0.4379 -0.1193  1.1770
   49MOL     C212578   4.918   0.979   2.071  0.1530  0.1038  0.2081
   49MOL     O312579   5.020   0.885   2.092  0.1475  0.3786 -0.2031
   49MOL     C412580   5.074   0.832   1.965  0.3116 -0.0975  0.2933
   49MOL     C512581   5.147   0.701   1.999 -0.4767 -0.0811  0.1772
   49MOL     H612582   4.804   0.855   1.933 -1.9485  1.1522  0.2810
   49MOL     H712583   4.778   0.817   2.104  0.0825  1.1812  2.5906
   49MOL     H812584   4.947   1.037   1.983  1.3173 -2.7107 -1.3142
   49MOL     H912585   5.137   0.907   1.917  0.1165 -0.4222 -0.4823
   49MOL    H1012586   4.992   0.800   1.900  0.9861 -1.5772  0.1497
   49MOL    H1112587   5.221   0.713   2.077  0.0821 -0.8177 -0.2351
   49MOL    H1212588   5.075   0.635   2.048  0.7818 -0.9446  0.8643
   49MOL    H1312589   5.197   0.649   1.918  0.6135 -1.7736  1.9012
   49MOL    H1412590   4.701   0.959   2.031  0.5010 -0.0366 -0.0166
   49MOL    C1512591   4.895   1.065   2.192  0.1864  0.2637  0.7280
   49MOL    C1612592   5.017   1.141   2.256  0.1752  0.3094  0.4789
   49MOL    O1712593   4.979   1.211   2.374  0.0578 -0.3818  0.0552
   49MOL    C1812594   4.953   1.128   2.486  0.5178  0.1720 -0.6259
   49MOL    C1912595   4.933   1.208   2.618 -0.2235  0.1383 -0.5388
   49MOL    H2012596   4.841   0.997   2.258 -0.2537  0.0325  0.1308
   49MOL    H2112597   4.813   1.134   2.171  2.4607  2.0366 -2.6427
   49MOL    H2212598   5.083   1.062   2.290 -0.8513  0.2665  2.4958
   49MOL    H2312599   5.029   1.054   2.510  1.4364  1.9182  2.0936
   49MOL    H2412600   4.863   1.067   2.482  0.5581  0.1167 -0.6925
   49MOL    H2512601   4.854   1.278   2.594 -0.7359 -0.0084  0.6588
   49MOL    H2612602   5.022   1.255   2.659 -0.0712 -3.0088  3.0220
   49MOL    H2712603   4.889   1.145   2.696  2.7419 -1.7437 -0.3000
   49MOL    C2812604   5.058   1.257   2.165  0.5445  0.1003  0.0684
   49MOL    C2912605   5.196   1.316   2.185  0.3705  0.4961  0.1361
   49MOL    O3012606   5.198   1.442   2.124 -0.3168 -0.5844  0.8365
   49MOL    C3112607   5.299   1.533   2.173 -0.2658  0.0034  0.8430
   49MOL    C3212608   5.280   1.679   2.125 -0.6579 -0.2943  0.1877
   49MOL    H3312609   4.986   1.339   2.161  1.0999  0.5476 -0.9387
   49MOL    H3412610   5.064   1.217   2.064  0.1328  1.8417 -0.6559
   49MOL    H3512611   5.211   1.331   2.292 -1.7155 -3.3153  1.0517
   49MOL    H3612612   5.395   1.497   2.137 -1.0134 -1.8333  0.6624
   49MOL    H3712613   5.287   1.524   2.281 -1.6238 -1.2606  0.6064
   49MOL    H3812614   5.291   1.684   2.016 -2.0933 -0.8178  0.0079
   49MOL    H3912615   5.178   1.703   2.152 -1.1928 -0.5551 -1.5186
   49MOL    H4012616   5.346   1.758   2.162 -2.2788  1.2365 -0.1518
   49MOL    C4112617   5.309   1.216   2.139 -0.3761  0.1233 -0.4305
   49MOL    C4212618   5.376   1.129   2.240 -0.4533  0.5146 -0.1814
   49MOL    O4312619   5.435   1.209   2.339  0.4334 -0.4182 -0.3107
   49MOL    C4412620   5.369   1.213   2.468  0.0786  0.2066 -0.1062
   49MOL    C4512621   5.464   1.297   2.552 -0.3825 -0.0121  0.1080
   49MOL    H4612622   5.396   1.266   2.097 -0.9713  1.2011 -0.4287
   49MOL    H4712623   5.268   1.155   2.058 -1.1535  1.4055 -1.0259
   49MOL    H4812624   5.298   1.075   2.294 -0.9660 -0.1131 -1.5187
   49MOL    H4912625   5.352   1.118   2.518 -0.9296  0.4479  0.0179
   49MOL    H5012626   5.266   1.249   2.468  0.8721  2.5928  0.5371
   49MOL    H5112627   5.566   1.261   2.539 -0.0077  0.4666  1.6541
   49MOL    H5212628   5.474   1.396   2.507 -0.8652 -0.5602 -1.2432
   49MOL    H5312629   5.442   1.292   2.659  1.6304 -3.8520  0.4074
   49MOL    C5412630   5.474   1.025   2.194  0.6314  0.8096  0.6563
   49MOL    C5512631   5.484   0.917   2.297 -0.5526  0.4694 -0.3109
   49MOL    O5612632   5.600   0.840   2.291 -0.0195  0.0042 -0.0833
   49MOL    C5712633   5.730   0.902   2.282  0.5362  0.4189  0.2001
   49MOL    C5812634   5.753   0.993   2.407 -0.2130 -0.1679 -0.7601
   49MOL    H5912635   5.566   1.081   2.176  1.2001 -0.2488  0.2099
   49MOL    H6012636   5.447   0.986   2.096  2.4418  1.1500  0.0082
   49MOL    H6112637   5.488   0.962   2.396  0.0121 -2.8676  1.2572
   49MOL    H6212638   5.746   0.956   2.189  0.0955 -0.1081 -0.1845
   49MOL    H6312639   5.804   0.822   2.284  0.1033 -0.0526 -1.6138
   49MOL    H6412640   5.857   1.027   2.407 -0.7331  1.4643 -0.5212
   49MOL    H6512641   5.690   1.081   2.408 -2.8271 -1.9822 -1.4431
   49MOL    H6612642   5.743   0.937   2.501 -0.2474  3.7895  1.6902
   49MOL    C6712643   5.365   0.820   2.291 -0.1071 -0.5102  0.6371
   49MOL    C6812644   5.310   0.774   2.428 -0.6986  0.6589 -0.9585
   49MOL    O6912645   5.284   0.632   2.416  0.1415  0.2170  0.4328
   49MOL    C7012646   5.400   0.549   2.425  0.4427 -0.1408 -0.0824
   49MOL    C7112647   5.348   0.408   2.460  0.0689 -0.1137  0.0118
   49MOL    H7212648   5.400   0.741   2.224 -3.2301  0.8463 -2.7702
   49MOL    H7312649   5.280   0.860   2.236 -0.3255 -0.1572  1.2284
   49MOL    H7412650   5.384   0.794   2.505 -1.0577  1.4307 -0.8097
   49MOL    H7512651   5.465   0.584   2.506 -0.5716 -2.5991  1.8742
   49MOL    H7612652   5.452   0.537   2.330 -2.2366 -0.7172 -1.5229
   49MOL    H7712653   5.279   0.375   2.382  0.8065 -1.5473 -0.0437
   49MOL    H7812654   5.422   0.331   2.477  0.4125  0.2150  0.0174
   49MOL    H7912655   5.272   0.411   2.538 -2.4056  0.8982 -2.3485
   49MOL    C8012656   5.177   0.834   2.481  0.4661  0.2790 -0.1033
   49MOL    C8112657   5.142   0.793   2.625 -0.0175  0.1014 -0.0935
   49MOL    O8212658   5.011   0.842   2.651 -0.1107  0.4367 -0.4293
   49MOL    C8312659   4.908   0.759   2.603  0.0916 -0.0630  0.3996
   49MOL    C8412660   4.842   0.704   2.734 -0.0397  0.5521 -0.0714
   49MOL    H8512661   5.102   0.793   2.413  1.2978 -2.0821  0.3345
   49MOL    H8612662   5.192   0.941   2.471  2.9790 -0.2036 -2.1375
   49MOL    H8712663   5.152   0.687   2.650 -0.7770  0.0655  0.0615
   49MOL    H8812664   4.934   0.676   2.537  0.8499  1.7905 -1.7093
   49MOL    H8912665   4.844   0.813   2.533  1.3320 -0.2334 -0.8901
   49MOL    H9012666   4.914   0.636   2.779 -1.3293 -0.7513  0.0644
   49MOL    H9112667   4.815   0.782   2.806 -0.6105  0.9133 -0.6653
   49MOL    H9212668   4.752   0.649   2.708 -0.0333 -0.5403  2.0749
   49MOL    C9312669   5.235   0.871   2.723 -0.3338 -0.3648 -0.0003
   49MOL    C9412670   5.187   0.886   2.869 -0.2254 -0.5523 -0.0847
   49MOL    O9512671   5.283   0.972   2.937  0.0270  0.3560 -0.1005
   49MOL    C9612672   5.246   1.107   2.933 -0.8796 -0.3506 -0.0043
   49MOL    C9712673   5.297   1.170   3.062  0.5397  0.0943  0.0966
   49MOL    H9812674   5.242   0.978   2.705 -1.7255  0.0569  1.7708
   49MOL    H9912675   5.334   0.827   2.720 -0.8863 -1.5093 -2.8355
   49MOL   H10012676   5.089   0.933   2.861  1.0385  1.9080 -1.7519
   49MOL   H10112677   5.139   1.123   2.924 -0.9147 -1.5200 -1.8159
   49MOL   H10212678   5.310   1.153   2.857 -0.2796 -0.3997  0.4628
   49MOL   H10312679   5.406   1.164   3.070  0.4709 -0.9554  0.3502
   49MOL   H10412680   5.275   1.277   3.060  0.2199  0.0513  1.0154
   49MOL   H10512681   5.249   1.113   3.142  1.5682  0.9689  1.3709
   49MOL   C10612682   5.157   0.752   2.938 -0.3106  0.6041  0.0534
   49MOL   C10712683   5.094   0.763   3.074 -0.4567 -0.2328 -0.0078
   49MOL   O10812684   5.112   0.636   3.135  0.4796  0.2136  0.2068
   49MOL   C10912685   5.164   0.636   3.263  0.4989  0.1705 -0.1926
   49MOL   C11012686   5.141   0.498   3.318  0.3493 -0.0070 -0.8680
   49MOL   H11112687   5.248   0.692   2.934 -0.2155  0.8463 -1.9538
   49MOL   H11212688   5.095   0.686   2.879  2.6766 -0.9121 -1.5170
   49MOL   H11312689   5.142   0.847   3.124 -3.1532  2.5799 -1.9063
   49MOL   H11412690   5.109   0.705   3.328  2.4807 -1.1457  3.0464
   49MOL   H11512691   5.266   0.673   3.256 -0.1308  1.5582 -2.6388
   49MOL   H11612692   5.159   0.512   3.425 -2.9332  0.3538 -0.3181
   49MOL   H11712693   5.041   0.462   3.293  0.2049 -0.6686  0.6339
   49MOL   H11812694   5.216   0.431   3.276 -0.7541 -2.6691  1.2789
   49MOL   C11912695   4.946   0.793   3.078  0.6301  0.3865 -0.0804
   49MOL   C12012696   4.902   0.870   3.202  0.2233  0.5029  0.4001
   49MOL   O12112697   4.885   0.783   3.314  0.6172  0.0874  0.3379
   49MOL   C12212698   4.911   0.840   3.439  0.2617 -0.3772 -0.0532
   49MOL   C12312699   4.890   0.740   3.559 -0.4436  0.2671 -0.0813
   49MOL   H12412700   4.891   0.699   3.072 -2.0153  1.9668 -1.5789
   49MOL   H12512701   4.916   0.852   2.991  0.9487 -0.2871 -0.6555
   49MOL   H12612702   4.973   0.949   3.226  1.1611  0.6652 -2.6839
   49MOL   H12712703   4.843   0.921   3.466 -0.2187 -0.3295 -1.3720
   49MOL   H12812704   5.006   0.893   3.441 -0.2902  0.6277  2.7217
   49MOL   H12912705   4.898   0.799   3.650 -0.0243 -0.7677  0.5706
   49MOL   H13012706   4.788   0.702   3.561 -0.4252  0.1738 -0.9976
   49MOL   H13112707   4.946   0.646   3.559 -3.1081 -1.4000 -0.7226
   49MOL   C13212708   4.759   0.934   3.189  0.3358  0.0179 -0.0592
   49MOL   C13312709   4.750   1.063   3.103  0.0883  0.5403 -0.8640
   49MOL   O13412710   4.832   1.160   3.160 -0.3481 -0.6015  0.3800
   49MOL   C13512711   4.802   1.219   3.285 -0.2119  0.1257 -0.0145
   49MOL   C13612712   4.915   1.316   3.321 -0.1479  0.1796 -0.5294
   49MOL   H13712713   4.705   0.958   3.281 -0.2051  0.1130 -0.4004
   49MOL   H13812714   4.702   0.848   3.156  0.7882 -0.7615  1.1686
   49MOL   H13912715   4.789   1.044   3.003 -0.6167 -1.6409 -0.7440
   49MOL   H14012716   4.773   1.144   3.359 -0.1177 -0.5856 -0.6962
   49MOL   H14112717   4.713   1.279   3.268  0.3315  1.5694  2.1039
   49MOL   H14212718   4.883   1.380   3.403  1.4745  0.3066  0.0069
   49MOL   H14312719   5.003   1.257   3.345  1.2562  2.4305 -0.0116
   49MOL   H14412720   4.929   1.383   3.236  1.3759  0.9981  0.3655
   49MOL   C14512721   4.605   1.120   3.074  0.1632 -0.0133  0.0506
   49MOL   C14612722   4.515   1.027   3.000 -0.6197 -0.7819  0.5063
   49MOL   O14712723   4.559   1.029   2.861  0.5750 -0.8831  0.1497
   49MOL   C14812724   4.512   0.921   2.786  0.0372  0.0914 -0.5501
   49MOL   C14912725   4.547   0.936   2.637 -0.1599 -0.3001 -0.6121
   49MOL   H15012726   4.615   1.218   3.028 -2.5349  1.8491  3.1855
   49MOL   H15112727   4.550   1.139   3.166  0.5791 -1.5197  0.6140
   49MOL   H15212728   4.524   0.926   3.041 -0.2908 -0.3493  1.4969
   49MOL   H15312729   4.404   0.911   2.797  0.0246  0.9083  0.1456
   49MOL   H15412730   4.564   0.834   2.825 -1.8096 -0.3191  1.0768
   49MOL   H15512731   4.530   0.846   2.579 -0.0764 -0.8705  0.2536
   49MOL   H15612732   4.488   1.014   2.588 -0.0491  0.9252  1.1434
   49MOL   H15712733   4.654   0.955   2.630 -0.0502 -1.1250 -1.1867
   49MOL   C15812734   4.362   1.061   3.017  0.0560  0.6443 -0.5566
   49MOL   C15912735   4.318   1.209   3.002 -0.1135  0.6350  0.2050
   49MOL   O16012736   4.176   1.202   3.020 -0.1168 -0.8459 -0.0229
   49MOL   C16112737   4.125   1.265   3.138 -0.1870  0.4050 -0.3121
   49MOL   C16212738   3.973   1.235   3.145  0.1538  0.1413 -0.4020
   49MOL   H16312739   4.337   1.026   3.117 -0.2444  0.2811 -0.7578
   49MOL   H16412740   4.303   1.009   2.942  1.2194  1.1621 -1.8580
   49MOL   H16512741   4.378   1.264   3.075  0.1072 -0.2447  0.6874
   49MOL   H16612742   4.149   1.369   3.157 -0.8209  0.7214 -1.1975
   49MOL   H16712743   4.176   1.207   3.214 -0.2421 -0.2564 -0.7725
   49MOL   H16812744   3.932   1.288   3.231 -0.0003 -0.0936 -0.3327
   49MOL   H16912745   3.934   1.271   3.049  1.2833 -1.0007 -1.3102
   49MOL   H17012746   3.956   1.128   3.141 -0.4538  0.2753 -1.5720
   49MOL   C17112747   4.351   1.284   2.868  0.2387 -0.4046 -1.0923
   49MOL   C17212748   4.311   1.432   2.870 -0.0832 -0.5729  0.8852
   49MOL   O17312749   4.316   1.484   2.731 -0.4778 -0.3027 -0.1383
   49MOL   C17412750   4.231   1.422   2.639  0.5641 -0.2263  0.2944
   49MOL   C17512751   4.199   1.525   2.530 -0.0112 -0.3092 -0.9417
   49MOL   H17612752   4.302   1.226   2.789  0.3906  0.4665 -1.8346
   49MOL   H17712753   4.459   1.274   2.857  0.5370  0.9461  0.4702
   49MOL   H17812754   4.209   1.450   2.905 -0.9796  0.3960 -2.1146
   49MOL   H17912755   4.137   1.381   2.675  0.5024 -0.8140 -0.5339
   49MOL   H18012756   4.288   1.341   2.593  0.2151  0.3043 -1.1040
   49MOL   H18112757   4.140   1.487   2.446  0.0793 -0.3200 -1.0008
   49MOL   H18212758   4.149   1.610   2.575  1.1593  0.0806 -0.3752
   49MOL   H18312759   4.299   1.552   2.495  0.0408  2.2794  1.0976
   49MOL   C18412760   4.408   1.518   2.959  0.2501  0.1777 -0.0788
   49MOL   C18512761   4.365   1.665   2.968 -0.1168  0.8124 -0.3148
   49MOL   O18612762   4.463   1.709   3.070  0.2442  0.7585 -0.1357
   49MOL   C18712763   4.473   1.853   3.085 -0.5022  0.0932  0.5425
   49MOL   C18812764   4.580   1.914   2.988  0.4219  0.6735 -0.5180
   49MOL   H18912765   4.511   1.513   2.923  0.7804  0.2015  1.3916
   49MOL   H19012766   4.404   1.469   3.056  0.6066  1.8096  0.7743
   49MOL   H19112767   4.380   1.721   2.876  1.3293  2.4025  0.8546
   49MOL   H19212768   4.515   1.863   3.185 -0.8391 -0.9879  0.8035
   49MOL   H19312769   4.380   1.908   3.073 -1.7755 -1.7112  1.8005
   49MOL   H19412770   4.635   1.994   3.037  0.4725 -0.1717  0.8099
   49MOL   H19512771   4.655   1.846   2.949 -0.6172  0.2925 -1.9125
   49MOL   H19612772   4.543   1.961   2.897  2.7054  0.3002 -1.6594
   49MOL   C19712773   4.219   1.687   3.019 -0.2455  0.5255 -0.4394
   49MOL   C19812774   4.119   1.729   2.911 -0.0462 -0.0036  0.4021
   49MOL   O19912775   4.141   1.862   2.869 -0.1542 -0.2976  0.2081
   49MOL   C20012776   4.177   1.892   2.736  0.1440  0.8230 -0.2414
   49MOL   C20112777   4.151   2.042   2.719 -0.3150 -0.0352 -0.4039
   49MOL   H20212778   4.224   1.751   3.107 -0.5125 -2.9454  2.2194
   49MOL   H20312779   4.180   1.594   3.060 -3.5519  1.4552 -1.3451
   49MOL   H20412780   4.119   1.660   2.827  1.3315 -1.7661  1.8212
   49MOL   H20512781   4.125   1.822   2.671  0.7729 -0.7642  0.9420
   49MOL   H20612782   4.283   1.876   2.716 -0.2163 -2.7173  0.4460
   49MOL   H20712783   4.048   2.070   2.741 -1.0175 -2.4144 -0.5784
   49MOL   H20812784   4.206   2.107   2.787 -0.4751  1.4045 -1.6285
   49MOL   H20912785   4.175   2.078   2.619 -0.6787  0.0049 -0.4772
   49MOL   C21012786   3.969   1.719   2.959  1.1018  0.4231  0.0014
   49MOL   C21112787   3.864   1.678   2.846  0.4414 -0.1781  0.1144
   49MOL   O21212788   3.729   1.708   2.885 -0.0468 -0.2386  0.1389
   49MOL   C21312789   3.707   1.848   2.914  0.3461  0.0160  0.0076
   49MOL   C21412790   3.565   1.893   2.860  0.2414  0.0500  0.5269
   49MOL   H21512791   3.936   1.810   3.009 -1.0275 -0.6980  0.6757
   49MOL   H21612792   3.965   1.634   3.027 -1.0535  1.0691  0.7217
   49MOL   H21712793   3.884   1.729   2.752  0.3738 -1.1221 -0.4216
   49MOL   H21812794   3.783   1.911   2.868  0.1865  0.6246  0.5577
   49MOL   H21912795   3.714   1.857   3.022 -1.8372  0.2246  0.1648
   49MOL   H22012796   3.543   1.999   2.872  0.9718  0.4501 -1.3951
   49MOL   H22112797   3.545   1.866   2.756 -0.4646 -0.2253  0.7296
   49MOL   H22212798   3.486   1.839   2.912 -0.9350  0.4045 -0.8564
   49MOL   C22312799   3.866   1.527   2.819 -0.2258 -0.4863 -0.0182
   49MOL   C22412800   3.765   1.475   2.717 -0.0493  0.2600 -0.1842
   49MOL   O22512801   3.791   1.336   2.675 -0.1915 -0.2934  0.5571
   49MOL   C22612802   3.698   1.238   2.716  0.2701  0.3888  0.6470
   49MOL   C22712803   3.687   1.142   2.596  0.0719  0.3520  0.1771
   49MOL   H22812804   3.861   1.475   2.915  0.7578 -1.1226 -0.3121
   49MOL   H22912805   3.963   1.488   2.790  0.3378 -0.3392  1.5749
   49MOL   H23012806   3.667   1.473   2.763 -0.9031 -1.1627 -2.0014
   49MOL   H23112807   3.605   1.282   2.753 -0.0451 -0.1756  0.5274
   49MOL   H23212808   3.727   1.195   2.812 -1.0258  1.7902  1.6857
   49MOL   H23312809   3.663   1.205   2.510  1.8962  0.3522 -0.3447
   49MOL   H23412810   3.779   1.090   2.570 -0.5757  0.4196 -2.4134
   49MOL   H23512811   3.616   1.059   2.601  0.7849 -0.1140  3.1448
   49MOL   C23612812   3.763   1.552   2.582  0.0161 -0.2769  0.0098
   49MOL   C23712813   3.667   1.503   2.469  0.3044 -0.2351 -0.4017
   49MOL   O23812814   3.673   1.575   2.346  0.4637  0.3039 -0.7938
   49MOL   C23912815   3.795   1.567   2.272 -0.3052 -0.2945  0.2623
   49MOL   C24012816   3.784   1.666   2.148 -0.2445 -0.4247 -1.0390
   49MOL   H24112817   3.867   1.560   2.551 -0.0083  0.6125  0.1267
   49MOL   H24212818   3.730   1.655   2.600  0.0597  0.0589 -1.7582
   49MOL   H24312819   3.683   1.397   2.450 -2.7188 -1.0537  1.2759
   49MOL   H24412820   3.807   1.463   2.241  2.5631  0.3349 -0.9115
   49MOL   H24512821   3.882   1.590   2.333  0.5716 -2.5233 -0.1039
   49MOL   H24612822   3.863   1.741   2.154 -1.0765  0.2508  2.2846
   49MOL   H24712823   3.783   1.604   2.058  0.0365 -1.9399 -0.0252
   49MOL   H24812824   3.694   1.726   2.148 -0.3633 -0.6003 -0.5478
   49MOL   C24912825   3.523   1.497   2.519  0.7422  0.4840 -0.1304
   49MOL   C25012826   3.468   1.624   2.584  0.3245 -0.0443 -0.1918
   49MOL   O25112827   3.324   1.627   2.602 -0.2855 -0.6752 -0.0648
   49MOL   C25212828   3.284   1.745   2.663  0.0939 -0.6686  0.0534
   49MOL   C25312829   3.132   1.753   2.644 -0.3412 -0.3362  0.7521
   49MOL   H25412830   3.493   1.407   2.573  3.1678 -0.2519  0.0367
   49MOL   H25512831   3.463   1.488   2.429  1.4861 -1.8409 -0.4229
   49MOL   H25612832   3.507   1.622   2.686  0.3762 -0.9001 -0.2271
   49MOL   H25712833   3.334   1.830   2.618 -0.2956 -1.1098 -1.2281
   49MOL   H25812834   3.301   1.737   2.771 -0.4940  0.3195  0.2292
   49MOL   H25912835   3.104   1.773   2.541  1.2247 -1.4196  0.0906
   49MOL   H26012836   3.085   1.659   2.672 -0.1214 -0.4747  0.6573
   49MOL   H26112837   3.087   1.837   2.697  0.0515  1.0203 -1.0194
   49MOL   H26212838   3.493   1.714   2.527  1.0677  1.1521  1.9546
   50MOL     C112839   6.483   0.723   5.792  0.5076  0.4899 -0.4295
   50MOL     C212840   6.414   0.713   5.656  0.3380 -0.3666 -0.1138
   50MOL     O312841   6.424   0.579   5.602 -0.3639 -0.1001  0.1166
   50MOL     C412842   6.383   0.477   5.689 -0.4462 -0.2616  0.8043
   50MOL     C512843   6.336   0.356   5.622 -0.2092 -0.0245 -0.7317
   50MOL     H612844   6.416   0.677   5.864 -2.0292  2.1997 -1.6492
   50MOL     H712845   6.584   0.683   5.781  0.6052  1.2045 -2.3096
   50MOL     H812846   6.313   0.749   5.677  0.6023 -0.1899  0.8746
   50MOL     H912847   6.293   0.509   5.743 -2.6098 -2.3280 -1.4863
   50MOL    H1012848   6.451   0.456   5.772 -0.4864 -2.6748  0.2537
   50MOL    H1112849   6.251   0.389   5.562  0.1924  0.4587 -1.0323
   50MOL    H1212850   6.410   0.309   5.558  2.2978  1.6662  0.8286
   50MOL    H1312851   6.300   0.286   5.698 -4.5367  1.0591 -1.6447
   50MOL    H1412852   6.494   0.825   5.831  0.1519  0.3792 -0.0335
   50MOL    C1512853   6.478   0.802   5.545 -0.1871  0.8179 -0.2557
   50MOL    C1612854   6.385   0.795   5.424 -0.6316 -0.0403  0.4603
   50MOL    O1712855   6.458   0.735   5.304 -0.1267  0.3201 -0.1460
   50MOL    C1812856   6.449   0.595   5.293  0.0662 -0.6802 -0.2936
   50MOL    C1912857   6.524   0.553   5.174 -0.4966 -0.8097 -0.1095
   50MOL    H2012858   6.577   0.779   5.505 -1.1904  1.0570 -3.0154
   50MOL    H2112859   6.485   0.905   5.580  2.1422  1.0018 -1.1595
   50MOL    H2212860   6.294   0.739   5.445  0.3162 -1.5718  0.5013
   50MOL    H2312861   6.342   0.576   5.279 -0.0307  0.0482 -0.5819
   50MOL    H2412862   6.483   0.549   5.385  0.8503 -1.3210 -0.8957
   50MOL    H2512863   6.526   0.444   5.171 -0.6878 -0.7953 -0.9142
   50MOL    H2612864   6.630   0.575   5.186 -0.6578  1.9243 -2.8780
   50MOL    H2712865   6.487   0.605   5.086  0.0914 -2.3481 -1.2764
   50MOL    C2812866   6.337   0.940   5.384  0.5708  0.1743  0.1883
   50MOL    C2912867   6.229   0.953   5.272  0.6125  0.6454 -0.1988
   50MOL    O3012868   6.238   1.065   5.180 -0.9069 -0.6411  0.1026
   50MOL    C3112869   6.357   1.075   5.102  0.0853  0.2545  0.0067
   50MOL    C3212870   6.348   1.191   5.001  0.2889 -0.3581  0.2579
   50MOL    H3312871   6.424   1.001   5.358  0.6484  0.4711  1.1334
   50MOL    H3412872   6.298   0.991   5.472  0.1558 -0.0037  0.1072
   50MOL    H3512873   6.243   0.856   5.224  2.1374 -1.5295  4.2882
   50MOL    H3612874   6.354   0.992   5.032 -1.5969  0.6376 -0.4091
   50MOL    H3712875   6.449   1.067   5.159  0.8327 -2.4032 -1.5436
   50MOL    H3812876   6.260   1.184   4.937  1.1349 -1.3032 -0.8266
   50MOL    H3912877   6.350   1.288   5.051  0.4765  0.3315 -1.0513
   50MOL    H4012878   6.436   1.188   4.936  0.4449 -0.4213  0.4716
   50MOL    C4112879   6.087   0.959   5.326 -0.0252 -0.1840  0.2982
   50MOL    C4212880   6.026   0.814   5.352  0.1014  0.0202  0.5829
   50MOL    O4312881   5.995   0.759   5.223 -0.2085 -0.0479  0.5549
   50MOL    C4412882   6.023   0.626   5.206 -0.1337 -0.3248  0.7289
   50MOL    C4512883   6.035   0.581   5.060  0.7472  0.0280 -0.2933
   50MOL    H4612884   6.020   1.011   5.257  1.2243 -0.5204 -1.2055
   50MOL    H4712885   6.090   1.016   5.419  1.1806 -0.6288  0.5453
   50MOL    H4812886   6.097   0.756   5.410  1.2890 -1.1900 -2.0189
   50MOL    H4912887   5.961   0.568   5.275 -1.1132 -0.0701  0.0720
   50MOL    H5012888   6.130   0.619   5.228  0.4332 -0.0548 -1.8212
   50MOL    H5112889   6.094   0.490   5.057  0.8806  0.0814  0.5632
   50MOL    H5212890   5.933   0.575   5.021  1.2219 -0.4951 -1.4467
   50MOL    H5312891   6.096   0.650   5.002 -0.5543  0.2588 -1.4260
   50MOL    C5412892   5.895   0.817   5.432 -0.2894  0.4631  1.1516
   50MOL    C5512893   5.910   0.842   5.580 -0.6550  0.8415 -0.6375
   50MOL    O5612894   5.908   0.730   5.665  0.4728  0.3380 -0.5519
   50MOL    C5712895   6.014   0.637   5.643  0.1016  0.6835  1.2107
   50MOL    C5812896   6.009   0.536   5.756  0.3614  0.3848  0.7122
   50MOL    H5912897   5.835   0.727   5.419 -0.4653  0.9974 -2.4336
   50MOL    H6012898   5.834   0.899   5.393 -0.3798 -1.3806 -2.8339
   50MOL    H6112899   6.000   0.901   5.596  0.8164 -0.8817 -2.2787
   50MOL    H6212900   6.104   0.699   5.646  0.2408  0.5043  0.7242
   50MOL    H6312901   6.014   0.584   5.548  1.9919 -1.6948  2.4787
   50MOL    H6412902   6.055   0.576   5.847 -0.1397 -2.3097  2.1961
   50MOL    H6512903   5.904   0.516   5.773  0.5450  0.7380  2.4442
   50MOL    H6612904   6.065   0.446   5.730  1.5878  1.3272  0.0079
   50MOL    C6712905   5.795   0.933   5.633 -0.1791  0.3349  0.0799
   50MOL    C6812906   5.812   1.083   5.604  0.8635  0.3163  0.1557
   50MOL    O6912907   5.939   1.110   5.666 -0.3881 -0.5105  0.7253
   50MOL    C7012908   6.005   1.225   5.609 -0.7059 -0.1757  0.1514
   50MOL    C7112909   6.155   1.234   5.656 -0.3947  0.2042  0.4510
   50MOL    H7212910   5.780   0.921   5.741  1.2205 -2.6465 -0.0022
   50MOL    H7312911   5.699   0.902   5.594  0.2518 -0.1774 -0.5732
   50MOL    H7412912   5.799   1.107   5.498  1.6002  1.9453  0.4244
   50MOL    H7512913   5.955   1.318   5.638 -1.2640 -1.1641  2.5071
   50MOL    H7612914   5.999   1.226   5.500 -0.4687  2.0442  0.1304
   50MOL    H7712915   6.217   1.148   5.633 -0.0960  0.6543 -0.4690
   50MOL    H7812916   6.207   1.324   5.623 -0.9402 -0.3039 -1.9175
   50MOL    H7912917   6.165   1.242   5.764 -0.2120  0.2062  0.4322
   50MOL    C8012918   5.700   1.167   5.679 -0.5633  0.0561 -0.2916
   50MOL    C8112919   5.560   1.186   5.611 -0.3000  0.0839 -0.3971
   50MOL    O8212920   5.494   1.061   5.620 -0.9395 -0.4748 -0.2378
   50MOL    C8312921   5.436   1.012   5.740 -0.0689 -0.3280  0.2066
   50MOL    C8412922   5.382   0.870   5.708  0.5822 -0.3384  0.1501
   50MOL    H8512923   5.742   1.267   5.680 -0.0105 -0.1719 -0.6038
   50MOL    H8612924   5.696   1.143   5.786  1.0176 -0.6299 -0.3767
   50MOL    H8712925   5.502   1.267   5.656 -2.0497 -1.0932 -0.5042
   50MOL    H8812926   5.358   1.079   5.777  0.6573 -0.2174  1.5476
   50MOL    H8912927   5.515   0.992   5.813  0.8921  2.4901 -0.0113
   50MOL    H9012928   5.333   0.833   5.798  0.5304  0.2610  0.3710
   50MOL    H9112929   5.312   0.899   5.630  2.2145  1.6335 -0.6525
   50MOL    H9212930   5.464   0.805   5.675  0.8916  1.7532 -3.4694
   50MOL    C9312931   5.560   1.231   5.463 -0.4013 -0.2626  0.6160
   50MOL    C9412932   5.623   1.368   5.439  0.4262  0.0947 -0.0334
   50MOL    O9512933   5.548   1.463   5.513  0.6871 -0.1271  0.9788
   50MOL    C9612934   5.623   1.556   5.585  0.2353  0.3038  0.2517
   50MOL    C9712935   5.521   1.652   5.653  0.3000 -0.1669 -0.3363
   50MOL    H9812936   5.459   1.216   5.424 -1.0763 -0.0614  2.2430
   50MOL    H9912937   5.616   1.160   5.403 -0.2217 -2.4543  3.2967
   50MOL   H10012938   5.728   1.371   5.469  0.4183  0.5834 -0.0470
   50MOL   H10112939   5.693   1.607   5.519 -1.2097  0.0035 -1.5809
   50MOL   H10212940   5.685   1.512   5.662 -2.4799 -1.1499  1.6647
   50MOL   H10312941   5.575   1.736   5.697 -2.8592  1.1267  1.2192
   50MOL   H10412942   5.451   1.687   5.577 -1.5995 -1.7795  0.6247
   50MOL   H10512943   5.458   1.594   5.720 -0.0625  1.4444  0.7489
   50MOL   C10612944   5.603   1.423   5.301  0.3886  0.8243 -0.1511
   50MOL   C10712945   5.659   1.340   5.189 -0.1250 -0.1081  0.0136
   50MOL   O10812946   5.750   1.423   5.109  0.1274  0.3161 -0.3561
   50MOL   C10912947   5.887   1.420   5.151 -0.2250 -0.8540  0.5336
   50MOL   C11012948   5.965   1.488   5.041  0.4149  0.0279  0.0673
   50MOL   H11112949   5.637   1.526   5.290  2.3265  0.2730  0.6391
   50MOL   H11212950   5.494   1.425   5.293  0.5158  0.0281 -2.5097
   50MOL   H11312951   5.716   1.251   5.216  3.1051  1.4680 -1.3802
   50MOL   H11412952   5.917   1.316   5.163 -0.9374 -1.3079 -1.3727
   50MOL   H11512953   5.884   1.470   5.248 -2.0668 -1.2913  0.7303
   50MOL   H11612954   5.940   1.594   5.032  1.7629  0.5033  1.6544
   50MOL   H11712955   6.070   1.497   5.069  0.0302  0.7285  1.3412
   50MOL   H11812956   5.964   1.446   4.941 -1.4008  0.8798 -0.3008
   50MOL   C11912957   5.546   1.303   5.081  0.1718 -0.0030  0.3176
   50MOL   C12012958   5.602   1.190   4.984 -0.0686 -0.2793  0.2020
   50MOL   O12112959   5.527   1.219   4.867  0.5257  0.3188  0.0477
   50MOL   C12212960   5.602   1.194   4.739  0.3415  0.1928  0.4152
   50MOL   C12312961   5.511   1.224   4.624  0.4888  0.5202  0.6357
   50MOL   H12412962   5.521   1.394   5.026 -0.0527 -0.6596 -0.6695
   50MOL   H12512963   5.455   1.275   5.133  0.0337 -0.1928 -0.0297
   50MOL   H12612964   5.710   1.187   4.969 -0.2666  3.5468 -2.9396
   50MOL   H12712965   5.649   1.096   4.731 -0.2345  0.0942 -2.0428
   50MOL   H12812966   5.685   1.265   4.742 -0.4761  1.1619  0.1694
   50MOL   H12912967   5.487   1.330   4.630  0.9677  0.7100 -0.5957
   50MOL   H13012968   5.552   1.199   4.526  3.4634  0.6373  1.7825
   50MOL   H13112969   5.420   1.165   4.625  0.0819  1.1493  1.8942
   50MOL   C13212970   5.552   1.053   5.039 -0.3241 -0.0569  0.3326
   50MOL   C13312971   5.607   0.923   4.979  0.2965 -0.1762  0.2990
   50MOL   O13412972   5.739   0.931   4.920  0.2307 -0.1705 -0.2140
   50MOL   C13512973   5.839   0.939   5.011  0.5197  0.1954 -0.3330
   50MOL   C13612974   5.970   0.952   4.932 -0.3979  0.0507  0.0338
   50MOL   H13712975   5.443   1.042   5.035 -0.5067  1.9376 -1.0301
   50MOL   H13812976   5.580   1.050   5.144 -1.1376  2.5013  0.6505
   50MOL   H13912977   5.615   0.842   5.051 -1.2574 -1.1751 -0.6284
   50MOL   H14012978   5.835   0.843   5.062  1.3984  0.8487  0.9962
   50MOL   H14112979   5.820   1.021   5.081  0.0430  0.0078 -0.2405
   50MOL   H14212980   6.061   0.946   4.991 -0.8239 -0.3577  0.6668
   50MOL   H14312981   5.987   0.870   4.862  2.4086  0.0284  0.6806
   50MOL   H14412982   5.967   1.040   4.869  1.3242  0.3007  0.2843
   50MOL   C14512983   5.511   0.876   4.866  0.2660  0.1354 -0.0494
   50MOL   C14612984   5.578   0.791   4.750  0.4043  0.2597  0.8809
   50MOL   O14712985   5.483   0.736   4.667 -0.0577  0.2189 -0.0307
   50MOL   C14812986   5.422   0.823   4.567  0.7505  0.8370 -0.6708
   50MOL   C14912987   5.516   0.848   4.458  0.1494  0.7916  0.0018
   50MOL   H15012988   5.478   0.968   4.816  1.4021 -0.3543 -1.7656
   50MOL   H15112989   5.427   0.813   4.895 -0.9132  0.6436 -2.1724
   50MOL   H15212990   5.657   0.842   4.696 -0.2469 -0.6004 -0.9234
   50MOL   H15312991   5.390   0.914   4.618 -2.6011 -0.3436 -0.4800
   50MOL   H15412992   5.334   0.770   4.531  0.6184  0.4970  0.1444
   50MOL   H15512993   5.595   0.916   4.489 -0.2046  1.4009 -0.4229
   50MOL   H15612994   5.566   0.767   4.405 -0.6280  0.5162 -0.3297
   50MOL   H15712995   5.469   0.897   4.373 -0.1301  0.7486  0.1322
   50MOL   C15812996   5.639   0.664   4.815  0.4604 -0.4677  0.4915
   50MOL   C15912997   5.731   0.585   4.724 -0.3433 -0.0593  0.4423
   50MOL   O16012998   5.730   0.460   4.782 -0.3198  0.0872  0.6468
   50MOL   C16112999   5.671   0.363   4.708  0.6776 -0.0425  0.0778
   50MOL   C16213000   5.656   0.238   4.794 -0.6021 -0.6615 -0.3666
   50MOL   H16313001   5.558   0.604   4.858 -0.8385  2.1863  1.8777
   50MOL   H16413002   5.700   0.695   4.899  0.5665 -1.7049  0.8878
   50MOL   H16513003   5.695   0.576   4.622  2.6872 -0.5200 -0.6587
   50MOL   H16613004   5.732   0.334   4.622 -0.9200  0.0366 -1.1078
   50MOL   H16713005   5.570   0.394   4.678  0.3321 -1.0752  0.1534
   50MOL   H16813006   5.594   0.256   4.882  1.6676 -3.2355  1.8704
   50MOL   H16913007   5.616   0.145   4.755  0.2505 -2.2730  2.4484
   50MOL   H17013008   5.742   0.194   4.843 -1.2805 -2.7673 -1.0268
   50MOL   C17113009   5.877   0.631   4.713  0.0319 -0.4635 -0.1564
   50MOL   C17213010   5.958   0.570   4.595 -0.3230  0.3956 -0.3454
   50MOL   O17313011   6.102   0.570   4.604  0.1098 -0.0734  0.3174
   50MOL   C17413012   6.149   0.449   4.664 -0.2095  0.1365 -0.3320
   50MOL   C17513013   6.280   0.455   4.727 -0.5557 -0.1497 -0.1500
   50MOL   H17613014   5.931   0.603   4.804 -0.6932 -0.9850  0.1151
   50MOL   H17713015   5.876   0.737   4.691  0.2811 -0.7352 -1.5261
   50MOL   H17813016   5.926   0.467   4.577 -2.1964  0.9108 -0.1129
   50MOL   H17913017   6.144   0.365   4.594 -0.1370 -0.5969  0.5287
   50MOL   H18013018   6.082   0.420   4.745 -0.6800 -1.1931 -1.1764
   50MOL   H18113019   6.280   0.543   4.792 -0.5729 -0.3158  0.0724
   50MOL   H18213020   6.302   0.360   4.775  0.5895 -0.4588 -1.2458
   50MOL   H18313021   6.354   0.469   4.648 -1.2519  2.0141 -0.4524
   50MOL   C18413022   5.929   0.643   4.468  0.0550 -0.7152  0.0370
   50MOL   C18513023   5.963   0.573   4.337 -0.5158 -0.4171  0.3392
   50MOL   O18613024   5.913   0.442   4.330  0.4065 -0.2882 -0.1888
   50MOL   C18713025   5.776   0.420   4.322 -0.1634  0.0260 -0.1992
   50MOL   C18813026   5.741   0.272   4.298  0.0549 -0.7670 -0.1802
   50MOL   H18913027   5.973   0.742   4.461  0.0828 -0.8190 -1.3074
   50MOL   H19013028   5.821   0.657   4.470  0.1011  0.1732 -2.1507
   50MOL   H19113029   5.910   0.629   4.260 -1.3182  1.0885  1.9758
   50MOL   H19213030   5.733   0.476   4.240 -3.3366 -0.1092  1.2976
   50MOL   H19313031   5.734   0.452   4.418  0.2625 -2.2578  0.7971
   50MOL   H19413032   5.632   0.278   4.287 -0.0698 -1.7067  0.5015
   50MOL   H19513033   5.786   0.237   4.205  2.3988  0.5859  0.4250
   50MOL   H19613034   5.751   0.195   4.374 -2.0229  0.0602  0.9627
   50MOL   C19713035   6.109   0.594   4.284  0.1496  0.5746 -0.6490
   50MOL   C19813036   6.134   0.609   4.139  0.2806  0.5313 -0.3606
   50MOL   O19913037   6.119   0.484   4.085  0.0464  0.1341  0.2660
   50MOL   C20013038   6.009   0.465   3.998 -0.3539  0.3673 -0.5295
   50MOL   C20113039   5.990   0.314   3.975 -0.4320 -0.4042  0.1356
   50MOL   H20213040   6.174   0.517   4.327  1.4061  2.3304  0.6573
   50MOL   H20313041   6.150   0.679   4.338  3.0494  0.1744 -2.1507
   50MOL   H20413042   6.069   0.684   4.093  0.2034  0.4890 -0.3189
   50MOL   H20513043   6.027   0.513   3.901  0.5435 -1.0823 -1.1070
   50MOL   H20613044   5.923   0.512   4.045  0.3987 -0.4525  1.7318
   50MOL   H20713045   5.904   0.295   3.912 -0.1322  0.3661 -0.5147
   50MOL   H20813046   6.079   0.266   3.934 -0.9691 -1.0826 -0.2488
   50MOL   H20913047   5.971   0.255   4.065  2.5893 -1.3464  0.2284
   50MOL   C21013048   6.271   0.674   4.089  0.6182 -0.0748  0.6353
   50MOL   C21113049   6.280   0.830   4.084 -0.1759  0.5251 -0.1085
   50MOL   O21213050   6.222   0.873   3.958 -0.0986  0.4297 -0.0510
   50MOL   C21313051   6.158   1.002   3.949  0.7547 -0.1609  0.5162
   50MOL   C21413052   6.155   1.048   3.804 -0.7470 -0.2481 -0.5995
   50MOL   H21513053   6.288   0.642   3.986 -1.1978 -0.9145  0.5785
   50MOL   H21613054   6.355   0.638   4.149 -0.1744 -0.5280  1.4825
   50MOL   H21713055   6.227   0.885   4.162  0.0965  0.7591 -0.0889
   50MOL   H21813056   6.210   1.074   4.013 -0.5764  0.9132  0.3960
   50MOL   H21913057   6.057   1.004   3.990 -0.8285  0.0016 -3.1896
   50MOL   H22013058   6.086   0.990   3.742 -0.6639  0.4610 -1.3639
   50MOL   H22113059   6.123   1.152   3.800  0.2916  0.0372 -2.6563
   50MOL   H22213060   6.257   1.039   3.766 -0.9631 -0.0213 -1.2425
   50MOL   C22313061   6.423   0.894   4.095  0.3454 -0.1092  0.3393
   50MOL   C22413062   6.514   0.867   4.218  0.7384  0.2581  0.4936
   50MOL   O22513063   6.440   0.901   4.334  0.2181 -0.1121 -0.1103
   50MOL   C22613064   6.440   0.805   4.428  0.2290 -0.4612 -0.2337
   50MOL   C22713065   6.345   0.831   4.547  0.3816 -0.2734  0.6792
   50MOL   H22813066   6.400   1.000   4.085  0.6991 -0.0837 -0.2535
   50MOL   H22913067   6.483   0.859   4.011  1.0435  1.6420  0.0715
   50MOL   H23013068   6.540   0.761   4.211 -0.2876  0.0197  0.2255
   50MOL   H23113069   6.539   0.797   4.472 -0.2378 -0.6260  0.7980
   50MOL   H23213070   6.401   0.712   4.385 -2.8859  0.6865  0.0110
   50MOL   H23313071   6.385   0.911   4.609 -1.0684  1.7454 -0.9435
   50MOL   H23413072   6.244   0.856   4.514 -0.4567 -0.9707  2.6336
   50MOL   H23513073   6.339   0.742   4.610  0.4032 -0.1473  0.8616
   50MOL   C23613074   6.642   0.955   4.220  0.3716  0.0973  0.1558
   50MOL   C23713075   6.725   0.974   4.090 -0.4974 -0.4008 -0.4726
   50MOL   O23813076   6.761   0.849   4.046 -0.6246 -0.3174  0.3055
   50MOL   C23913077   6.762   0.835   3.901 -0.4089  0.3312 -0.0500
   50MOL   C24013078   6.805   0.689   3.869 -0.9181  0.0910  0.0936
   50MOL   H24113079   6.713   0.918   4.294  1.0757 -1.3513 -1.1935
   50MOL   H24213080   6.612   1.055   4.252 -1.1472 -0.3079  0.0401
   50MOL   H24313081   6.672   1.033   4.016 -4.5473 -2.0524  0.9939
   50MOL   H24413082   6.819   0.915   3.855 -0.6291  1.2980  1.3081
   50MOL   H24513083   6.668   0.859   3.853 -0.9529 -0.4738  0.5994
   50MOL   H24613084   6.749   0.619   3.931 -2.1571 -0.6795 -1.8358
   50MOL   H24713085   6.764   0.668   3.770  0.5379 -1.6909 -0.1403
   50MOL   H24813086   6.913   0.675   3.870 -1.2267 -2.4198  0.3088
   50MOL   C24913087   6.862   1.056   4.115 -0.2290 -0.1762  0.2200
   50MOL   C25013088   6.844   1.203   4.135 -0.1768 -0.3624  0.0346
   50MOL   O25113089   6.839   1.281   4.025 -0.1068 -0.0536  0.5757
   50MOL   C25213090   6.809   1.417   4.054 -0.4601 -0.1129 -0.4448
   50MOL   C25313091   6.851   1.500   3.927  0.3561 -0.3207  0.3040
   50MOL   H25413092   6.937   1.041   4.038  1.8256 -0.4097  2.2251
   50MOL   H25513093   6.917   1.010   4.196  0.1434 -0.8908 -0.4379
   50MOL   H25613094   6.749   1.219   4.186  1.0451 -0.2652  2.3462
   50MOL   H25713095   6.864   1.455   4.140  0.7730 -0.5367 -1.0342
   50MOL   H25813096   6.703   1.419   4.076 -0.4624 -1.3391 -0.2786
   50MOL   H25913097   6.777   1.482   3.849  1.5321 -0.1291 -0.8727
   50MOL   H26013098   6.861   1.606   3.954 -0.3573  0.1230 -1.0963
   50MOL   H26113099   6.948   1.461   3.897  0.8767 -0.9045  2.6570
   50MOL   H26213100   6.927   1.241   4.194 -2.1494  0.6046  2.2811
   51MOL     C113101   5.875   4.047   7.460  0.0060  0.3219 -0.5244
   51MOL     C213102   5.891   4.156   7.564 -0.1955  0.6573 -0.6679
   51MOL     O313103   5.869   4.103   7.697 -0.0457  0.7272  0.1471
   51MOL     C413104   5.979   4.044   7.766 -0.0530 -0.3028  0.5626
   51MOL     C513105   5.924   4.004   0.054  0.2286 -0.2039  0.1415
   51MOL     H613106   5.931   3.962   7.497 -1.4007 -0.4826 -0.1990
   51MOL     H713107   5.780   3.997   7.442  0.5499 -0.9043  0.0006
   51MOL     H813108   5.994   4.191   7.556 -0.9050  2.9731 -0.2571
   51MOL     H913109   6.064   4.111   7.779 -0.0692  0.0806 -1.2054
   51MOL    H1013110   6.014   3.954   7.716 -0.0043 -0.0565  0.1475
   51MOL    H1113111   5.838   3.941   0.029 -1.4601  0.8812  2.9123
   51MOL    H1213112   5.996   3.942   0.106 -1.1715 -0.7967  1.4187
   51MOL    H1313113   5.904   4.088   0.121  0.0386  0.9736 -1.3517
   51MOL    H1413114   5.883   4.085   7.358  1.3211  0.8507 -0.2278
   51MOL    C1513115   5.796   4.264   7.546  0.5662 -0.2377  0.1077
   51MOL    C1613116   5.807   4.341   7.420 -0.1479 -0.2095  0.8137
   51MOL    O1713117   5.922   4.420   7.425  0.2733 -0.6086  0.0113
   51MOL    C1813118   6.015   4.419   7.319  0.0990  0.7251 -0.1139
   51MOL    C1913119   6.134   4.512   7.345 -0.3853  0.7148  0.0066
   51MOL    H2013120   5.803   4.334   7.630  0.6013  0.9419 -0.8731
   51MOL    H2113121   5.693   4.229   7.556  0.7933 -0.5320  1.6559
   51MOL    H2213122   5.813   4.278   7.332 -0.1726  1.0574 -0.1164
   51MOL    H2313123   5.983   4.450   7.220  2.2382  1.3260 -0.6351
   51MOL    H2413124   6.043   4.314   7.310  0.1837  0.3590  3.6016
   51MOL    H2513125   6.100   4.614   7.330  0.2710  0.4838 -3.4248
   51MOL    H2613126   6.209   4.509   7.266  0.5480 -0.4473  0.9203
   51MOL    H2713127   6.186   4.508   7.441 -0.1646 -0.3413 -0.1523
   51MOL    C2813128   5.682   4.433   7.399  0.5069  0.2531 -0.1099
   51MOL    C2913129   5.648   4.447   7.249 -0.3964  0.2617 -0.2376
   51MOL    O3013130   5.602   4.574   7.230  0.1006  0.4235 -0.1747
   51MOL    C3113131   5.681   4.676   7.174  0.6152  0.2928  0.2868
   51MOL    C3213132   5.780   4.722   7.279 -0.0632  0.6064  0.2972
   51MOL    H3313133   5.716   4.531   7.432 -1.1821  1.1146 -0.8788
   51MOL    H3413134   5.594   4.408   7.459 -0.1226  2.3491 -0.1328
   51MOL    H3513135   5.746   4.438   7.200 -0.4615  2.6699 -0.8374
   51MOL    H3613136   5.607   4.756   7.165  0.1155 -0.0780  1.0632
   51MOL    H3713137   5.731   4.659   7.079  2.7504  0.2380  1.3771
   51MOL    H3813138   5.730   4.746   7.373 -2.5970 -0.6856 -0.6966
   51MOL    H3913139   5.856   4.646   7.298  0.5153  1.6772  2.4661
   51MOL    H4013140   5.832   4.814   7.250  0.2922  0.0863 -0.7323
   51MOL    C4113141   5.546   4.347   7.184  1.1662 -0.5425  0.1327
   51MOL    C4213142   5.515   4.371   7.035 -0.4174  1.1390 -0.3358
   51MOL    O4313143   5.404   4.287   7.012  0.6649  0.2693 -0.0450
   51MOL    C4413144   5.354   4.276   6.878  0.5660 -0.2376  0.0135
   51MOL    C4513145   5.258   4.157   6.858  0.0235 -0.2584 -0.2592
   51MOL    H4613146   5.455   4.360   7.243  1.4601 -0.6756  0.6119
   51MOL    H4713147   5.565   4.240   7.179  0.6059 -0.5458 -2.3546
   51MOL    H4813148   5.493   4.475   7.014 -1.9516  0.5203 -1.9066
   51MOL    H4913149   5.430   4.284   6.800  0.8042  0.5785  0.3255
   51MOL    H5013150   5.296   4.367   6.867  1.3306  0.0514 -1.9242
   51MOL    H5113151   5.170   4.143   6.920  0.1100 -0.2940 -0.1439
   51MOL    H5213152   5.221   4.151   6.755  1.4287  0.3056 -0.8092
   51MOL    H5313153   5.315   4.066   6.875  2.2118  1.1622  0.1465
   51MOL    C5413154   5.639   4.336   6.950 -0.5585 -0.5014  0.0889
   51MOL    C5513155   5.685   4.444   6.846 -0.0086 -0.4259 -0.7988
   51MOL    O5613156   5.598   4.427   6.733  0.3819  0.0911 -0.7500
   51MOL    C5713157   5.517   4.540   6.699 -1.0796  0.4672 -0.4386
   51MOL    C5813158   5.450   4.530   6.562 -0.3668  0.9813  0.2217
   51MOL    H5913159   5.630   4.245   6.891  0.2443  0.2565 -1.2260
   51MOL    H6013160   5.725   4.306   7.010  0.0787  2.8368  0.9495
   51MOL    H6113161   5.674   4.546   6.884 -0.2321 -0.6558 -0.2417
   51MOL    H6213162   5.580   4.628   6.688 -1.2862  0.9891  2.1718
   51MOL    H6313163   5.448   4.569   6.779 -0.3841  1.6959 -0.2652
   51MOL    H6413164   5.383   4.616   6.550 -0.2894  0.6964 -2.5565
   51MOL    H6513165   5.499   4.524   6.465  0.2103 -0.8088  0.6186
   51MOL    H6613166   5.378   4.449   6.554  1.3974 -0.2854 -4.0482
   51MOL    C6713167   5.837   4.417   6.802  0.1897  0.1331 -0.3845
   51MOL    C6813168   5.914   4.541   6.749 -0.1028 -0.1282 -0.1241
   51MOL    O6913169   6.038   4.498   6.698 -0.4930  0.3520 -0.2306
   51MOL    C7013170   6.035   4.465   6.561  0.1868 -0.4282  0.0982
   51MOL    C7113171   6.160   4.407   6.504 -0.0063  0.6042 -0.3561
   51MOL    H7213172   5.842   4.330   6.737 -2.3243 -1.8235  1.9096
   51MOL    H7313173   5.880   4.372   6.891 -3.1102  0.0470  1.2528
   51MOL    H7413174   5.853   4.579   6.666  0.5943 -1.9863 -1.5024
   51MOL    H7513175   6.005   4.550   6.499 -2.0021 -0.3087  1.2616
   51MOL    H7613176   5.958   4.388   6.547  1.2256 -1.0595 -2.3439
   51MOL    H7713177   6.141   4.365   6.405 -0.2231  0.6539 -0.3378
   51MOL    H7813178   6.235   4.484   6.488 -1.7316  2.3017 -0.4664
   51MOL    H7913179   6.201   4.327   6.566 -1.5749 -0.3163 -0.4699
   51MOL    C8013180   5.942   4.648   6.851 -0.2929  0.3839 -0.4483
   51MOL    C8113181   6.042   4.757   6.798 -0.0554 -0.6318 -0.3291
   51MOL    O8213182   6.074   4.833   6.906  0.2061 -0.2581 -0.7890
   51MOL    C8313183   6.191   4.796   6.984  0.1242 -0.4214  0.4603
   51MOL    C8413184   6.156   4.817   7.130 -0.2493 -0.7482  0.6294
   51MOL    H8513185   5.977   4.596   6.940  1.3024  1.8898 -0.1836
   51MOL    H8613186   5.848   4.689   6.887 -1.0516 -1.6296 -0.0499
   51MOL    H8713187   6.125   4.706   6.748  0.4050  0.8002 -1.0441
   51MOL    H8813188   6.266   4.868   6.952 -1.0344 -0.1238 -1.6926
   51MOL    H8913189   6.213   4.693   6.958 -1.0387 -0.7817  0.8596
   51MOL    H9013190   6.239   4.785   7.192  0.7262 -2.3828 -1.4387
   51MOL    H9113191   6.136   4.921   7.154  0.9495 -0.1114 -1.0729
   51MOL    H9213192   6.067   4.756   7.152  0.1958 -1.4518  0.5000
   51MOL    C9313193   5.975   4.845   6.691 -0.0408 -0.0636 -0.5189
   51MOL    C9413194   6.070   4.952   6.629 -0.1856  0.6244 -0.1471
   51MOL    O9513195   6.052   5.082   6.699  0.0482 -0.1716  0.7275
   51MOL    C9613196   6.155   5.110   6.790  0.1139  0.2998 -0.0915
   51MOL    C9713197   6.151   5.268   6.795  0.3163 -0.1338  0.2226
   51MOL    H9813198   5.888   4.896   6.732 -0.1412  0.0231 -0.8391
   51MOL    H9913199   5.956   4.777   6.608  1.6892 -2.0587  0.6570
   51MOL   H10013200   6.175   4.921   6.638 -0.2808  0.0495 -1.0390
   51MOL   H10113201   6.256   5.088   6.754 -0.4916  0.8555 -2.1828
   51MOL   H10213202   6.134   5.069   6.889  1.1165 -0.0506 -0.0175
   51MOL   H10313203   6.154   5.301   6.691 -0.3109  0.3638  0.3597
   51MOL   H10413204   6.059   5.310   6.836 -0.4192 -1.0331 -0.4677
   51MOL   H10513205   6.238   5.303   6.850 -0.1123  1.7572 -0.2781
   51MOL   C10613206   6.039   4.995   6.484  0.2296  0.4918 -0.3678
   51MOL   C10713207   6.090   4.894   6.380  0.0305 -0.3409  0.1161
   51MOL   O10813208   6.229   4.884   6.403  0.3039 -0.4358  0.3885
   51MOL   C10913209   6.275   4.753   6.433  0.0544 -0.6319  0.5529
   51MOL   C11013210   6.424   4.761   6.421 -0.9858 -0.1819  0.2285
   51MOL   H11113211   6.092   5.085   6.456 -1.1062  1.3370 -0.2344
   51MOL   H11213212   5.932   5.013   6.475  0.2849  2.0330  1.6308
   51MOL   H11313213   6.045   4.795   6.392  0.4315 -0.3912  1.3554
   51MOL   H11413214   6.232   4.686   6.358 -0.6265  0.0729  0.3039
   51MOL   H11513215   6.231   4.724   6.528  0.6050 -1.0041  0.6947
   51MOL   H11613216   6.453   4.787   6.319  0.1802 -0.0598  0.5873
   51MOL   H11713217   6.463   4.834   6.492  0.3127  0.3735 -1.0309
   51MOL   H11813218   6.473   4.666   6.439 -0.2937  0.0221 -0.5287
   51MOL   C11913219   6.063   4.948   6.241 -0.5652  0.1882 -0.1667
   51MOL   C12013220   5.918   4.931   6.197 -0.7617 -0.7120 -0.2193
   51MOL   O12113221   5.893   4.791   6.203  0.7963 -0.1263 -0.4948
   51MOL   C12213222   5.754   4.757   6.220  0.2402 -0.0718 -0.4867
   51MOL   C12313223   5.739   4.717   6.369 -0.4650  0.8572  0.0494
   51MOL   H12413224   6.127   4.881   6.185 -1.0782 -3.3959  3.2938
   51MOL   H12513225   6.095   5.050   6.219 -0.0445  0.2526  0.8261
   51MOL   H12613226   5.842   4.981   6.258 -0.7548 -0.1464 -0.6760
   51MOL   H12713227   5.709   4.682   6.155  1.9759  1.3136 -3.3867
   51MOL   H12813228   5.687   4.841   6.198 -0.6297 -1.1088 -1.8894
   51MOL   H12913229   5.810   4.637   6.388 -1.2569  0.0143 -0.4679
   51MOL   H13013230   5.757   4.803   6.432 -0.5370 -0.9295  2.5846
   51MOL   H13113231   5.644   4.663   6.376  1.2160 -2.2804 -0.5199
   51MOL   C13213232   5.905   4.971   6.056 -0.0745 -0.0080  0.5102
   51MOL   C13313233   5.876   5.116   6.043  0.9098 -0.7898  0.0898
   51MOL   O13413234   5.740   5.127   6.075  0.3462 -0.4648 -0.0841
   51MOL   C13513235   5.685   5.257   6.104  0.2114  0.0130 -0.4444
   51MOL   C13613236   5.532   5.224   6.115  0.7729 -0.1800 -0.7100
   51MOL   H13713237   5.821   4.918   6.010  1.3914  1.1542 -3.7106
   51MOL   H13813238   5.985   4.941   5.988  0.4959  0.3451  1.0201
   51MOL   H13913239   5.921   5.182   6.117 -2.3134  0.5133  0.9986
   51MOL   H14013240   5.692   5.330   6.023 -1.2376 -0.6383 -1.1705
   51MOL   H14113241   5.744   5.287   6.191 -0.0798  0.6416 -0.4628
   51MOL   H14213242   5.481   5.321   6.125 -1.8774 -1.8051  2.9239
   51MOL   H14313243   5.486   5.180   6.027  0.8379  0.1398 -0.9042
   51MOL   H14413244   5.510   5.156   6.198 -0.0068  0.7274 -0.1475
   51MOL   C14513245   5.904   5.168   5.901 -0.1710 -0.3522 -0.3372
   51MOL   C14613246   6.048   5.187   5.851  0.0891 -0.2053  0.5719
   51MOL   O14713247   6.098   5.061   5.820  0.1207  0.7345  0.3189
   51MOL   C14813248   6.224   5.054   5.758  0.2080 -0.1430 -0.4347
   51MOL   C14913249   6.222   4.930   5.666  1.1805 -0.1998 -0.0388
   51MOL   H15013250   5.857   5.264   5.879 -1.7128 -0.8393  0.7479
   51MOL   H15113251   5.848   5.112   5.827  1.4587 -1.2340 -0.9412
   51MOL   H15213252   6.042   5.241   5.757 -0.3685 -0.3943  0.4940
   51MOL   H15313253   6.302   5.041   5.833  0.2630  2.5817  0.0106
   51MOL   H15413254   6.245   5.152   5.717 -0.2954  0.3723  0.5074
   51MOL   H15513255   6.182   4.838   5.708 -1.1962  0.7928  0.0210
   51MOL   H15613256   6.136   4.952   5.603  1.7092  1.9309 -0.0747
   51MOL   H15713257   6.312   4.919   5.607  1.4409  2.1611 -0.1562
   51MOL   C15813258   6.138   5.263   5.954 -0.2808  0.0263  0.0366
   51MOL   C15913259   6.104   5.407   5.972  0.6415  1.1227 -0.6847
   51MOL   O16013260   6.112   5.453   5.837  0.0981 -0.1975 -0.4614
   51MOL   C16113261   6.011   5.548   5.799  0.3777 -0.0733 -0.6948
   51MOL   C16213262   6.053   5.613   5.676 -0.2305 -0.1925 -0.0944
   51MOL   H16313263   6.236   5.266   5.905  1.7216  1.1959  3.8743
   51MOL   H16413264   6.141   5.218   6.053  2.1490 -1.1166 -0.5058
   51MOL   H16513265   6.001   5.405   6.006  0.4285 -0.9528 -1.3595
   51MOL   H16613266   6.003   5.627   5.873 -0.0275  1.8665 -2.7366
   51MOL   H16713267   5.916   5.499   5.777 -0.6669  2.4858 -2.1059
   51MOL   H16813268   5.984   5.690   5.641 -0.4688 -0.3320  0.0677
   51MOL   H16913269   6.152   5.654   5.695  0.0425 -1.4246  1.2394
   51MOL   H17013270   6.062   5.553   5.586 -1.9630 -1.1160  0.3406
   51MOL   C17113271   6.204   5.501   6.056 -0.3640 -0.9664  0.4025
   51MOL   C17213272   6.239   5.450   6.203 -0.1354 -0.4830 -0.4491
   51MOL   O17313273   6.114   5.441   6.274  1.0820  0.0196  0.6924
   51MOL   C17413274   6.126   5.392   6.407 -0.1365  0.7734 -0.3041
   51MOL   C17513275   5.985   5.400   6.469 -0.0348 -1.0448  0.0311
   51MOL   H17613276   6.160   5.601   6.050  0.6728 -0.5860 -1.4120
   51MOL   H17713277   6.295   5.493   5.997 -1.2042  0.0442 -1.0754
   51MOL   H17813278   6.272   5.347   6.196  1.2251  0.0568 -2.2586
   51MOL   H17913279   6.192   5.444   6.476  0.0769  1.8523 -1.3008
   51MOL   H18013280   6.167   5.291   6.405 -2.0169 -0.0279  0.7406
   51MOL   H18113281   5.909   5.360   6.403 -0.2244 -0.0853 -0.3414
   51MOL   H18213282   5.976   5.338   6.558  0.7275  0.5396  1.2436
   51MOL   H18313283   5.944   5.495   6.503 -0.6468 -0.2570 -2.8009
   51MOL   C18413284   6.341   5.544   6.274  0.2873 -0.3098  0.0450
   51MOL   C18513285   6.290   5.684   6.308 -0.5583 -0.9185 -0.4630
   51MOL   O18613286   6.275   5.764   6.185  0.1476  0.0335 -0.7838
   51MOL   C18713287   6.196   5.887   6.201 -0.2774 -0.5570 -0.1760
   51MOL   C18813288   6.132   5.919   6.064  0.4631  0.0203 -0.4982
   51MOL   H18913289   6.433   5.551   6.217  1.2715 -0.0779  1.6201
   51MOL   H19013290   6.373   5.499   6.368 -0.5168 -0.5667  0.2011
   51MOL   H19113291   6.188   5.673   6.345 -0.9554  0.6224 -1.0628
   51MOL   H19213292   6.261   5.972   6.222 -0.1606 -1.4491  3.4979
   51MOL   H19313293   6.119   5.884   6.279  0.4209  0.2317  0.5567
   51MOL   H19413294   6.088   6.019   6.062  1.3987  0.4293 -2.2767
   51MOL   H19513295   6.205   5.911   5.984 -0.7798 -0.8979 -1.5548
   51MOL   H19613296   6.043   5.866   6.030 -0.2678  2.2353 -2.1762
   51MOL   C19713297   6.376   5.758   6.412  0.4454 -0.2065  0.4189
   51MOL   C19813298   6.349   5.722   6.563  0.1197  0.1449  0.0472
   51MOL   O19913299   6.214   5.755   6.596  0.0794  0.2367  0.1789
   51MOL   C20013300   6.152   5.690   6.711  0.0331  0.2308  0.6623
   51MOL   C20113301   6.019   5.763   6.721  0.3509 -0.0624 -0.3216
   51MOL   H20213302   6.374   5.864   6.388  1.2187 -0.2919 -0.0218
   51MOL   H20313303   6.477   5.725   6.386  0.2851 -0.3276 -0.0558
   51MOL   H20413304   6.352   5.615   6.582 -0.5969  0.6346  3.2533
   51MOL   H20513305   6.205   5.709   6.804 -1.7671  1.2360  1.5012
   51MOL   H20613306   6.140   5.582   6.705 -0.5080  0.3726 -1.2867
   51MOL   H20713307   5.955   5.750   6.634  0.6891 -1.9887 -0.3112
   51MOL   H20813308   5.978   5.705   6.803 -0.1095  1.3516  0.4480
   51MOL   H20913309   6.020   5.863   6.763 -2.0100 -0.6778  1.3068
   51MOL   C21013310   6.442   5.791   6.667  0.3234  0.3450 -0.5592
   51MOL   C21113311   6.588   5.773   6.641 -0.1978 -0.1001 -0.9722
   51MOL   O21213312   6.621   5.641   6.648 -0.3741  0.3472  0.7007
   51MOL   C21313313   6.738   5.584   6.582 -0.6454 -0.3618  0.1331
   51MOL   C21413314   6.708   5.581   6.430  0.3723  0.0400 -0.1291
   51MOL   H21513315   6.423   5.760   6.770  0.4163 -1.5605 -1.0944
   51MOL   H21613316   6.422   5.898   6.660  0.5883  0.4181 -0.1744
   51MOL   H21713317   6.595   5.806   6.537 -1.8710 -1.5114 -1.5669
   51MOL   H21813318   6.763   5.486   6.622 -0.9366 -0.4140  0.1899
   51MOL   H21913319   6.833   5.633   6.604 -1.1975  0.3106  1.0466
   51MOL   H22013320   6.699   5.677   6.379  4.0473  0.1459 -0.7689
   51MOL   H22113321   6.785   5.518   6.383 -0.3853 -0.5212 -0.6370
   51MOL   H22213322   6.615   5.528   6.409 -0.7135  2.4793 -1.6279
   51MOL   C22313323   6.681   5.864   6.726  0.6076  0.4301  0.6173
   51MOL   C22413324   6.685   6.006   6.662 -0.1888 -0.5516  1.0111
   51MOL   O22513325   6.796   6.003   6.564  0.0774  0.1806 -0.2174
   51MOL   C22613326   6.781   6.091   6.455 -0.3046  0.4594  0.2261
   51MOL   C22713327   6.900   6.059   6.362 -0.7589  0.8788 -0.6051
   51MOL   H22813328   6.781   5.820   6.724  0.0856 -0.7676 -4.7034
   51MOL   H22913329   6.644   5.856   6.828  2.7565 -1.0710  1.3297
   51MOL   H23013330   6.595   6.037   6.609  0.6688  0.0443 -0.1324
   51MOL   H23113331   6.793   6.194   6.488 -2.1442  0.7401  0.0890
   51MOL   H23213332   6.683   6.071   6.411 -0.1252 -0.1661  0.0981
   51MOL   H23313333   6.895   6.114   6.268 -1.9024  0.1312 -0.9912
   51MOL   H23413334   6.981   6.115   6.410 -0.6848 -0.8919  1.3849
   51MOL   H23513335   6.918   5.956   6.330  0.7297  1.2738 -1.0847
   51MOL   C23613336   6.739   6.111   6.764  0.2308 -1.1207  0.6634
   51MOL   C23713337   6.640   6.147   6.864  0.3333 -0.0430  0.1379
   51MOL   O23813338   6.529   6.205   6.791  1.0606  0.2231 -0.1758
   51MOL   C23913339   6.410   6.231   6.862 -0.0496 -0.4059 -0.1604
   51MOL   C24013340   6.332   6.102   6.890  0.4777  0.2351 -0.2791
   51MOL   H24113341   6.776   6.202   6.718  0.2954 -1.3641  0.2311
   51MOL   H24213342   6.826   6.070   6.816  0.8588  0.4802  0.8929
   51MOL   H24313343   6.601   6.059   6.914  1.6244  0.1555  1.5151
   51MOL   H24413344   6.351   6.303   6.806  2.9449  2.6486  0.4260
   51MOL   H24513345   6.436   6.283   6.955 -0.1057 -1.1341  0.2683
   51MOL   H24613346   6.300   6.049   6.800 -0.3223  0.4390 -0.1246
   51MOL   H24713347   6.375   6.032   6.961 -1.8614  0.1827  1.1453
   51MOL   H24813348   6.236   6.127   6.936  1.1954  1.5394  0.5094
   51MOL   C24913349   6.692   6.230   6.983  0.1293  0.5003  0.8996
   51MOL   C25013350   6.749   6.372   6.949 -0.3139 -0.2640 -0.3461
   51MOL   O25113351   6.887   6.374   6.925 -0.1792 -0.0549 -0.1912
   51MOL   C25213352   6.932   6.465   6.828 -0.2980  0.5272  1.4153
   51MOL   C25313353   6.909   6.612   6.872 -0.3275  0.1022 -0.2643
   51MOL   H25413354   6.760   6.165   7.037 -2.1426 -1.8680  1.0043
   51MOL   H25513355   6.613   6.253   7.054 -1.1035  3.0874 -1.1894
   51MOL   H25613356   6.689   6.418   6.871  0.0161 -1.7334 -1.4815
   51MOL   H25713357   6.896   6.441   6.728  1.8156  1.6153  0.3608
   51MOL   H25813358   7.040   6.456   6.825  0.0752  4.4748 -2.2069
   51MOL   H25913359   6.951   6.636   6.970  1.2950  0.3116 -1.0042
   51MOL   H26013360   6.947   6.682   6.798  1.0332 -1.4936 -1.1269
   51MOL   H26113361   6.801   6.622   6.879 -0.2428  1.4218 -0.8109
   51MOL   H26213362   6.738   6.436   7.037 -1.0537 -1.6536  0.5909
   52MOL     C113363   4.190   1.938   1.521  0.1747  0.2051  0.5271
   52MOL     C213364   4.316   1.946   1.428 -0.0600 -0.4037 -0.5210
   52MOL     O313365   4.419   1.864   1.477 -0.1802 -0.4430  0.3031
   52MOL     C413366   4.401   1.724   1.450 -0.6166 -0.6585 -0.0262
   52MOL     C513367   4.422   1.641   1.578  0.7847  0.3898 -0.3232
   52MOL     H613368   4.105   2.000   1.492 -1.4066 -1.1369  2.2218
   52MOL     H713369   4.150   1.837   1.523  1.2079 -0.2550 -0.8767
   52MOL     H813370   4.289   1.925   1.324  1.3241  0.9367 -1.1596
   52MOL     H913371   4.478   1.704   1.375 -0.8416 -0.3388 -0.3423
   52MOL    H1013372   4.302   1.706   1.408 -0.5804  0.7605 -0.7383
   52MOL    H1113373   4.527   1.621   1.598  1.4509  4.3924  0.7085
   52MOL    H1213374   4.381   1.688   1.667 -0.5088 -1.5550  0.1459
   52MOL    H1313375   4.367   1.547   1.571 -0.5008  1.2106 -1.5627
   52MOL    H1413376   4.208   1.949   1.628 -2.0740  0.1595  0.9384
   52MOL    C1513377   4.373   2.089   1.427  0.7044 -0.5280  0.7235
   52MOL    C1613378   4.514   2.109   1.362 -0.1211 -0.0907  0.4744
   52MOL    O1713379   4.561   2.238   1.399  0.2179  0.8281 -0.7206
   52MOL    C1813380   4.667   2.219   1.497  0.4122 -0.1477 -0.8686
   52MOL    C1913381   4.692   2.361   1.545  0.0819  0.3308  0.0473
   52MOL    H2013382   4.385   2.124   1.530  0.3060  0.3096  0.4866
   52MOL    H2113383   4.300   2.156   1.382  1.8171 -0.6304 -1.2967
   52MOL    H2213384   4.574   2.030   1.408 -1.0062 -0.7107  0.5831
   52MOL    H2313385   4.757   2.171   1.458  0.7503 -0.6125  0.4666
   52MOL    H2413386   4.631   2.152   1.576  1.2057  0.8392  0.3432
   52MOL    H2513387   4.771   2.407   1.485  1.4432 -1.3047  0.5569
   52MOL    H2613388   4.732   2.362   1.646 -1.0212 -0.1919  0.4981
   52MOL    H2713389   4.606   2.427   1.533  1.7834  2.6654  0.2914
   52MOL    C2813390   4.498   2.106   1.203 -0.0290  0.3200  0.7983
   52MOL    C2913391   4.624   2.076   1.125 -0.6491  0.4630 -0.2415
   52MOL    O3013392   4.676   1.954   1.186  0.0840 -0.6807  0.1285
   52MOL    C3113393   4.667   1.836   1.104  0.1776  0.0249  0.0214
   52MOL    C3213394   4.804   1.808   1.028 -0.4250 -0.3329  0.1179
   52MOL    H3313395   4.455   2.202   1.172  3.4569  2.2115  1.5037
   52MOL    H3413396   4.423   2.029   1.183  1.4579 -1.2079  1.0194
   52MOL    H3513397   4.591   2.062   1.022 -0.7687  0.3253 -0.1850
   52MOL    H3613398   4.587   1.841   1.030  1.1609  0.0062 -1.0700
   52MOL    H3713399   4.646   1.751   1.168 -0.3132  0.4633  0.4472
   52MOL    H3813400   4.849   1.885   0.965 -0.3523 -2.6451 -2.7680
   52MOL    H3913401   4.882   1.779   1.098  0.9614  0.3369 -1.1254
   52MOL    H4013402   4.797   1.715   0.972 -0.1887  0.5801 -1.4686
   52MOL    C4113403   4.728   2.188   1.130 -0.2109 -0.0683  0.6572
   52MOL    C4213404   4.850   2.184   1.038  0.1374  0.6304 -0.3262
   52MOL    O4313405   4.949   2.285   1.064 -0.2433 -0.3878  0.3968
   52MOL    C4413406   5.004   2.301   1.194  1.2827  0.0572  0.2596
   52MOL    C4513407   5.122   2.212   1.219 -0.0810 -0.6824  0.2770
   52MOL    H4613408   4.764   2.188   1.233  1.0279  0.0619  0.2301
   52MOL    H4713409   4.690   2.290   1.126 -0.9063 -0.3109  0.9589
   52MOL    H4813410   4.893   2.084   1.049  3.8182  2.2522  1.1494
   52MOL    H4913411   4.935   2.291   1.277  3.0403  0.5915  1.8133
   52MOL    H5013412   5.033   2.406   1.207 -1.4781  0.7001  1.5266
   52MOL    H5113413   5.161   2.232   1.319  1.3651  1.1985 -0.6234
   52MOL    H5213414   5.095   2.106   1.216 -2.1241 -0.1597 -0.8533
   52MOL    H5313415   5.209   2.219   1.154  0.7719  2.6173  1.6747
   52MOL    C5413416   4.799   2.205   0.892 -0.4615 -0.5236 -0.7450
   52MOL    C5513417   4.901   2.221   0.778  0.8481  0.3589  0.1226
   52MOL    O5613418   4.834   2.245   0.663  0.1028 -0.2822  0.0342
   52MOL    C5713419   4.832   2.381   0.635  1.1797 -0.2486  0.2818
   52MOL    C5813420   4.756   2.420   0.503 -0.0093 -0.1445  0.6138
   52MOL    H5913421   4.736   2.294   0.891  0.7862  0.3966  0.3933
   52MOL    H6013422   4.718   2.134   0.873  0.2663 -1.2209 -1.2898
   52MOL    H6113423   4.974   2.299   0.801  1.9502 -0.7558  0.4633
   52MOL    H6213424   4.929   2.431   0.638  0.8588  0.6092 -2.3153
   52MOL    H6313425   4.784   2.433   0.719  0.7542 -0.2618  0.0502
   52MOL    H6413426   4.775   2.525   0.482 -0.4862  0.2522  2.1062
   52MOL    H6513427   4.809   2.373   0.420  1.2231  2.1033  0.0797
   52MOL    H6613428   4.649   2.401   0.503 -0.4765  2.2520  1.8373
   52MOL    C6713429   4.982   2.092   0.757  0.3796 -0.1933  0.5033
   52MOL    C6813430   5.113   2.106   0.683  0.8582  0.9519  0.2001
   52MOL    O6913431   5.172   1.977   0.661 -0.2959  0.0121  0.3994
   52MOL    C7013432   5.132   1.931   0.530 -0.2029 -0.5498  0.0463
   52MOL    C7113433   5.166   1.783   0.527  0.5788  0.2874  0.2921
   52MOL    H7213434   4.925   2.013   0.707  1.2338  0.3424 -1.3592
   52MOL    H7313435   5.012   2.052   0.854  0.4106  1.4555  1.1857
   52MOL    H7413436   5.090   2.150   0.586 -0.9578 -0.2207  0.0764
   52MOL    H7513437   5.188   1.987   0.455  1.9932 -2.3141  0.2838
   52MOL    H7613438   5.023   1.938   0.524 -0.2002  1.8813  1.9781
   52MOL    H7713439   5.090   1.727   0.581 -0.5307 -0.1076 -1.6418
   52MOL    H7813440   5.158   1.741   0.427  2.7979  0.5867 -0.0285
   52MOL    H7913441   5.264   1.761   0.568 -0.1564 -1.8740  0.9580
   52MOL    C8013442   5.216   2.185   0.747 -0.3167  0.1860 -0.4321
   52MOL    C8113443   5.327   2.235   0.662 -0.0725 -0.3083  0.9680
   52MOL    O8213444   5.420   2.297   0.757  0.6509 -0.2903 -0.2858
   52MOL    C8313445   5.561   2.244   0.760  0.4926 -0.2681 -0.4229
   52MOL    C8413446   5.636   2.334   0.863 -0.6548  0.3933 -0.2716
   52MOL    H8513447   5.252   2.136   0.837  1.9679 -1.3536 -2.1425
   52MOL    H8613448   5.179   2.280   0.787 -0.4886 -0.7695  1.7247
   52MOL    H8713449   5.367   2.143   0.618 -1.4701 -0.2858 -0.4013
   52MOL    H8813450   5.615   2.235   0.666 -0.6334 -0.9498 -1.0169
   52MOL    H8913451   5.552   2.144   0.804  1.4538  0.4385  1.4576
   52MOL    H9013452   5.729   2.289   0.899  0.9748  2.5041 -1.7211
   52MOL    H9113453   5.651   2.430   0.814  2.0697 -0.2346 -0.7512
   52MOL    H9213454   5.581   2.352   0.955  0.2430  2.3698 -0.1066
   52MOL    C9313455   5.297   2.342   0.560 -0.2200 -0.7362 -0.6647
   52MOL    C9413456   5.298   2.281   0.414  0.3076 -0.1076 -1.0273
   52MOL    O9513457   5.436   2.252   0.377  0.2638  0.1337 -0.1812
   52MOL    C9613458   5.452   2.141   0.295  0.3357  0.2905  0.1324
   52MOL    C9713459   5.601   2.122   0.263  0.5032 -0.0460 -0.4981
   52MOL    H9813460   5.369   2.423   0.561 -0.4822 -0.5105 -0.0423
   52MOL    H9913461   5.202   2.391   0.581  0.7747  1.7957 -1.9311
   52MOL   H10013462   5.235   2.193   0.399  1.0295 -0.5459 -1.5652
   52MOL   H10113463   5.394   2.155   0.204 -0.1000  0.9434  0.5068
   52MOL   H10213464   5.405   2.053   0.339  1.2859 -0.4717 -0.3769
   52MOL   H10313465   5.653   2.057   0.333  1.7353  0.9042 -0.5226
   52MOL   H10413466   5.606   2.066   0.170  0.6199 -1.4238  0.3245
   52MOL   H10513467   5.666   2.209   0.259 -1.2377  1.3743  0.9674
   52MOL   C10613468   5.249   2.391   0.318 -0.3831 -0.2851 -0.4078
   52MOL   C10713469   5.097   2.399   0.296 -0.0725  0.2685  0.4266
   52MOL   O10813470   5.070   2.286   0.221 -0.6247 -0.4999 -0.1430
   52MOL   C10913471   4.941   2.231   0.235 -0.4782 -0.0763  0.4149
   52MOL   C11013472   4.928   2.118   0.142  0.3294  0.7616 -0.7156
   52MOL   H11113473   5.301   2.380   0.223 -0.4355 -2.6891 -0.1872
   52MOL   H11213474   5.281   2.486   0.361 -0.6328  0.2958 -1.4920
   52MOL   H11313475   5.062   2.395   0.399  0.1823 -3.7132  0.4492
   52MOL   H11413476   4.867   2.308   0.218 -0.6135 -0.4510 -0.7125
   52MOL   H11513477   4.939   2.195   0.338  0.8110  0.2308  0.5588
   52MOL   H11613478   4.985   2.034   0.181  0.0639  0.6095 -0.6618
   52MOL   H11713479   4.825   2.083   0.133  1.1804 -1.5687 -1.8659
   52MOL   H11813480   4.965   2.135   0.041 -1.5370 -0.4622 -1.6362
   52MOL   C11913481   5.040   2.519   0.218  0.5977  0.0223  0.3067
   52MOL   C12013482   5.068   2.655   0.287  0.3070 -0.0085  0.3254
   52MOL   O12113483   5.017   2.652   0.415 -0.2088  0.4633  0.2331
   52MOL   C12213484   5.095   2.728   0.506 -0.8498  0.1769  0.2719
   52MOL   C12313485   5.028   2.750   0.642  0.4379  0.2492 -0.5499
   52MOL   H12413486   4.932   2.514   0.205  0.6722 -0.2615 -0.2252
   52MOL   H12513487   5.102   2.505   0.130 -0.3693  1.7428 -0.6780
   52MOL   H12613488   5.174   2.683   0.283  0.2173  0.1796 -0.9592
   52MOL   H12713489   5.150   2.813   0.465 -0.9001  0.9485  1.7691
   52MOL   H12813490   5.172   2.652   0.525  0.1572  1.0486 -0.2957
   52MOL   H12913491   4.985   2.661   0.687 -1.4934  0.8612 -1.1332
   52MOL   H13013492   5.108   2.784   0.708  1.2970 -1.1810 -0.8438
   52MOL   H13113493   4.948   2.822   0.628  0.5535  0.9549  2.0455
   52MOL   C13213494   5.003   2.779   0.217  0.1613 -0.1482 -0.2827
   52MOL   C13313495   5.044   2.798   0.069  0.4289 -0.6560 -0.2522
   52MOL   O13413496   5.180   2.829   0.059 -0.9418  0.5242 -0.5691
   52MOL   C13513497   5.232   2.794   7.777  0.2068 -0.1716  0.4655
   52MOL   C13613498   5.383   2.800   7.778  0.3788 -0.2569  0.7295
   52MOL   H13713499   5.043   2.868   0.264  0.0506  0.2138 -0.8762
   52MOL   H13813500   4.895   2.790   0.223  0.0946 -0.7886 -0.2259
   52MOL   H13913501   5.027   2.706   0.012 -0.2121  0.0061 -1.1324
   52MOL   H14013502   5.196   2.862   7.700 -0.6245 -1.3966 -0.2445
   52MOL   H14113503   5.199   2.693   7.754  0.9191 -0.3789  0.3235
   52MOL   H14213504   5.420   2.741   7.694 -1.3645 -0.0614 -0.2037
   52MOL   H14313505   5.422   2.902   7.777 -0.0057 -0.0986  1.9961
   52MOL   H14413506   5.432   2.761   0.023  0.9965  0.2561  0.6213
   52MOL   C14513507   4.955   2.902   7.841  0.8902  0.0196 -0.8052
   52MOL   C14613508   4.960   3.039   0.073  0.5027  0.2402 -0.5669
   52MOL   O14713509   4.867   3.034   0.185  0.3543  0.3779  0.5012
   52MOL   C14813510   4.887   3.129   0.292 -0.5681  0.0416  0.4347
   52MOL   C14913511   4.797   3.092   0.412 -0.0027  0.3473 -1.1989
   52MOL   H15013512   4.853   2.866   0.008  1.6568 -1.8379  0.4203
   52MOL   H15113513   4.979   2.900   7.734  0.0643 -0.1731 -0.9926
   52MOL   H15213514   5.060   3.050   0.114 -0.1809  0.1351  1.1701
   52MOL   H15313515   4.870   3.230   0.256 -1.3049  0.1268  1.0228
   52MOL   H15413516   4.993   3.118   0.315  0.3200  1.6191 -2.6575
   52MOL   H15513517   4.801   3.175   0.483 -3.6641 -0.7557  0.4048
   52MOL   H15613518   4.693   3.092   0.378 -0.6338  0.8439  0.6734
   52MOL   H15713519   4.833   2.994   0.441  0.8469  0.3499 -2.2108
   52MOL   C15813520   4.907   3.156   7.831  0.0199  0.0622 -0.4844
   52MOL   C15913521   5.009   3.205   7.714 -0.3823  0.0718 -0.4554
   52MOL   O16013522   5.127   3.259   7.780  0.1202 -0.0171  0.6867
   52MOL   C16113523   5.239   3.176   7.759 -0.2597 -0.7537 -0.0697
   52MOL   C16213524   5.366   3.222   7.825 -0.1360  0.1304  0.1739
   52MOL   H16313525   4.893   3.246   0.047 -0.5035  0.6006 -1.4131
   52MOL   H16413526   4.815   3.130   7.779 -0.4349 -0.3605  0.5148
   52MOL   H16513527   5.032   3.132   7.636  0.8723  0.0609 -0.0878
   52MOL   H16613528   5.270   3.160   7.656 -1.5391 -0.1713 -0.5420
   52MOL   H16713529   5.220   3.077   7.801 -1.3295 -0.4746  0.1235
   52MOL   H16813530   5.344   3.239   0.087  0.3909 -1.9449  0.6358
   52MOL   H16913531   5.436   3.140   7.809  1.5477  1.7708 -1.0578
   52MOL   H17013532   5.400   3.316   7.781  1.2769 -0.4893 -0.0604
   52MOL   C17113533   4.955   3.318   7.634 -0.1449  0.2000 -0.3126
   52MOL   C17213534   4.835   3.287   7.540 -0.0320  0.4288 -0.2821
   52MOL   O17313535   4.891   3.207   7.437  0.5697 -0.3134 -0.6668
   52MOL   C17413536   4.806   3.112   7.369  0.5242 -0.3064 -0.3191
   52MOL   C17513537   4.875   3.030   7.258  0.2286 -0.4968  0.3117
   52MOL   H17613538   5.036   3.363   7.576  0.5179  1.0107  1.2062
   52MOL   H17713539   4.921   3.397   7.702  0.8775  0.7797 -0.4539
   52MOL   H17813540   4.759   3.228   7.591  0.1952 -0.5135 -1.0294
   52MOL   H17913541   4.723   3.166   7.326 -0.5458 -2.4533 -1.0130
   52MOL   H18013542   4.770   3.039   7.442  1.4085  0.5081  0.9622
   52MOL   H18113543   4.888   3.101   7.176  2.3128  0.1616  1.1594
   52MOL   H18213544   4.977   2.999   7.282 -0.0129 -1.5462 -0.0133
   52MOL   H18313545   4.819   2.946   7.219 -1.5837 -0.6169  3.0162
   52MOL   C18413546   4.776   3.418   7.473 -0.7007 -0.6469 -0.1283
   52MOL   C18513547   4.700   3.503   7.574  0.4426  0.3694 -0.6225
   52MOL   O18613548   4.590   3.424   7.632 -0.5013 -0.2316  0.5219
   52MOL   C18713549   4.601   3.427   7.771  0.2274  1.1504  0.4464
   52MOL   C18813550   4.498   3.328   7.840  0.3131  0.0011 -0.3246
   52MOL   H18913551   4.700   3.394   7.398  1.4239 -0.1410 -2.5213
   52MOL   H19013552   4.850   3.481   7.424 -1.8142 -0.4242 -1.5604
   52MOL   H19113553   4.775   3.538   7.646  0.3735 -0.7142 -0.0071
   52MOL   H19213554   4.591   3.526   7.816 -0.8569  0.8838  0.8190
   52MOL   H19313555   4.702   3.400   7.801 -0.9668  0.1430  3.7559
   52MOL   H19413556   4.396   3.362   7.823 -0.0368 -1.6567 -1.6581
   52MOL   H19513557   4.512   3.230   7.795 -0.3573  0.4181 -1.4524
   52MOL   H19613558   4.498   3.318   0.105  0.0459  0.6295 -0.2652
   52MOL   C19713559   4.635   3.623   7.503 -0.0465 -0.1190  0.4432
   52MOL   C19813560   4.720   3.743   7.460 -0.0723 -0.0976 -0.6409
   52MOL   O19913561   4.790   3.790   7.578  0.0816 -0.6909 -0.2858
   52MOL   C20013562   4.926   3.821   7.561  1.0149 -0.0424  0.6712
   52MOL   C20113563   4.987   3.873   7.693  0.7538  0.8735  0.2496
   52MOL   H20213564   4.552   3.663   7.562 -1.6752  0.3184 -2.0647
   52MOL   H20313565   4.588   3.582   7.413 -1.8361 -0.8308  1.6704
   52MOL   H20413566   4.796   3.732   7.382  0.6996  0.0134  0.0772
   52MOL   H20513567   4.923   3.900   7.485  0.0678  1.1443  1.9129
   52MOL   H20613568   4.986   3.740   7.519  0.4992 -0.4786  0.7854
   52MOL   H20713569   4.973   3.790   7.763 -0.6894 -1.3377 -2.5109
   52MOL   H20813570   5.092   3.900   7.683  0.7578  0.9131  0.4082
   52MOL   H20913571   4.939   3.963   7.732 -0.8027 -0.0614  0.5705
   52MOL   C21013572   4.645   3.872   7.408 -0.1070  0.2470 -0.0805
   52MOL   C21113573   4.590   3.865   7.258 -0.1287  0.4476 -0.2719
   52MOL   O21213574   4.489   3.774   7.257 -0.0324 -0.0739 -0.3736
   52MOL   C21313575   4.374   3.816   7.329  0.8624  0.4249  0.1855
   52MOL   C21413576   4.244   3.751   7.267  0.7654  0.1389 -0.1833
   52MOL   H21513577   4.714   3.956   7.407 -3.1875  2.8879  0.1850
   52MOL   H21613578   4.575   3.902   7.487 -0.6075  2.7466 -1.4218
   52MOL   H21713579   4.558   3.966   7.235  0.1908  0.2184 -1.7907
   52MOL   H21813580   4.358   3.922   7.308 -1.0181  0.4285  1.5197
   52MOL   H21913581   4.377   3.791   7.435  1.7741 -1.1545 -0.2138
   52MOL   H22013582   4.152   3.797   7.304  0.4234 -0.1805 -0.6256
   52MOL   H22113583   4.250   3.755   7.158  0.9739 -0.4092 -0.1940
   52MOL   H22213584   4.225   3.647   7.296 -1.0200  0.2889 -0.7515
   52MOL   C22313585   4.684   3.818   7.144  0.3564  0.4240 -0.0584
   52MOL   C22413586   4.817   3.898   7.145  0.2795 -0.0963  0.4439
   52MOL   O22513587   4.796   4.025   7.075 -0.1650  0.0750  0.1023
   52MOL   C22613588   4.824   4.141   7.148  0.0991  0.3987  0.4378
   52MOL   C22713589   4.861   4.246   7.047 -0.1483  0.4542 -0.1695
   52MOL   H22813590   4.633   3.824   7.048 -1.9827  1.9837  1.2508
   52MOL   H22913591   4.713   3.715   7.164  0.0970  0.3945  0.1547
   52MOL   H23013592   4.854   3.908   7.247 -1.0629 -0.2925  0.9730
   52MOL   H23113593   4.904   4.129   7.221 -0.5629 -0.1932  1.0804
   52MOL   H23213594   4.727   4.162   7.193 -0.6718 -1.1685 -0.4479
   52MOL   H23313595   4.954   4.222   6.995  0.5213  0.8441  0.8471
   52MOL   H23413596   4.772   4.253   6.983  0.0359 -1.6140 -0.6809
   52MOL   H23513597   4.887   4.344   7.088 -3.3135  0.8949  0.9051
   52MOL   C23613598   4.925   3.818   7.067  0.4178 -0.1636  0.2144
   52MOL   C23713599   5.071   3.869   7.082  0.1925 -0.0794 -0.4443
   52MOL   O23813600   5.144   3.833   6.964  0.7870  0.3100 -0.1046
   52MOL   C23913601   5.153   3.690   6.942  0.1958 -0.0825 -0.7544
   52MOL   C24013602   5.220   3.685   6.800  0.5013  0.0234  0.1811
   52MOL   H24113603   4.903   3.830   6.960 -0.6125  1.4889  0.5925
   52MOL   H24213604   4.930   3.713   7.097  0.4667 -0.5702 -1.1714
   52MOL   H24313605   5.056   3.977   7.090  1.1292 -0.0930  1.5644
   52MOL   H24413606   5.062   3.631   6.948 -0.7852  1.5208  0.6574
   52MOL   H24513607   5.225   3.658   7.017 -1.6358 -0.0482  1.0615
   52MOL   H24613608   5.154   3.716   6.719 -0.7816 -1.1127  0.7548
   52MOL   H24713609   5.312   3.743   6.807  0.1155  0.4653  2.0797
   52MOL   H24813610   5.242   3.585   6.763 -2.4486 -0.2832 -0.8489
   52MOL   C24913611   5.141   3.829   7.212 -0.9613 -0.0802 -0.2087
   52MOL   C25013612   5.277   3.888   7.226  0.6673 -0.5364  0.2718
   52MOL   O25113613   5.324   3.844   7.347 -0.0033 -0.2258 -0.1396
   52MOL   C25213614   5.456   3.899   7.368  0.1416 -0.2238  0.2430
   52MOL   C25313615   5.503   3.877   7.518 -0.1730 -0.6019  1.1026
   52MOL   H25413616   5.152   3.721   7.203  0.4560  0.1647 -1.6713
   52MOL   H25513617   5.081   3.857   7.299 -0.3712 -0.8370  0.4449
   52MOL   H25613618   5.341   3.871   7.139  1.0926 -0.3223  0.5375
   52MOL   H25713619   5.456   4.008   7.361  2.5588 -0.2794 -1.4451
   52MOL   H25813620   5.535   3.858   7.305  0.8234  0.4838  0.6229
   52MOL   H25913621   5.600   3.923   7.538 -0.0039 -0.3002 -0.3676
   52MOL   H26013622   5.431   3.923   7.587  0.4037 -0.7802  1.8298
   52MOL   H26113623   5.512   3.770   7.534  1.0404 -0.8741 -1.2992
   52MOL   H26213624   5.265   3.997   7.233  1.4068 -0.4833  0.7656
   53MOL     C113625   1.058   3.327   6.781 -0.6053 -0.1634 -0.2204
   53MOL     C213626   0.910   3.366   6.763 -0.1249  0.0744  0.4413
   53MOL     O313627   0.832   3.253   6.715  0.1508  0.4885  0.1179
   53MOL     C413628   0.799   3.168   6.815 -0.5125 -0.2589 -0.6303
   53MOL     C513629   0.748   3.042   6.748 -0.6752  0.9032 -0.5356
   53MOL     H613630   1.118   3.304   6.693 -1.0507  0.8059 -0.7740
   53MOL     H713631   1.097   3.413   6.836  0.4242 -1.8490  1.7759
   53MOL     H813632   0.873   3.390   6.863  0.9936 -0.6031  1.0274
   53MOL     H913633   0.727   3.216   6.881  0.4885 -1.2797  1.2430
   53MOL    H1013634   0.886   3.146   6.876 -1.0408 -0.8092 -0.0701
   53MOL    H1113635   0.673   3.058   6.670  0.4346 -0.2675 -1.8933
   53MOL    H1213636   0.833   2.993   6.701 -2.2743 -2.5124 -0.0290
   53MOL    H1313637   0.710   2.962   6.811  0.1142  1.6728  0.9325
   53MOL    H1413638   1.075   3.245   6.851  0.9115 -0.1672 -0.5809
   53MOL    C1513639   0.884   3.477   6.666  0.1600 -0.7052 -0.1096
   53MOL    C1613640   0.742   3.540   6.675  0.3950 -0.4124 -0.3382
   53MOL    O1713641   0.702   3.601   6.555 -0.2812 -0.9223  0.1853
   53MOL    C1813642   0.645   3.513   6.458 -0.2132 -0.2615  0.1760
   53MOL    C1913643   0.676   3.580   6.327  0.4386 -0.0469  0.2592
   53MOL    H2013644   0.897   3.442   6.563 -1.8754  0.3522 -0.7583
   53MOL    H2113645   0.963   3.550   6.681  2.1439 -2.3372 -2.2452
   53MOL    H2213646   0.672   3.457   6.683  2.4169 -2.1133  0.1887
   53MOL    H2313647   0.539   3.514   6.481 -0.2587 -1.3709  0.0725
   53MOL    H2413648   0.685   3.411   6.458 -1.7879 -0.9335  2.1607
   53MOL    H2513649   0.636   3.526   6.242  1.9662 -3.0990  1.4081
   53MOL    H2613650   0.783   3.561   6.316  0.3020 -1.7278  1.6260
   53MOL    H2713651   0.652   3.686   6.328  2.3203  0.4233 -0.9063
   53MOL    C2813652   0.728   3.647   6.783  0.0251 -0.3250  0.4617
   53MOL    C2913653   0.576   3.665   6.805 -0.5635 -0.6152  0.7728
   53MOL    O3013654   0.551   3.801   6.815 -0.2435  0.1551  0.0735
   53MOL    C3113655   0.449   3.853   6.737 -0.0676  0.0113  0.3689
   53MOL    C3213656   0.486   3.878   6.589  1.1253 -0.2612  0.5981
   53MOL    H3313657   0.780   3.740   6.758  0.9842 -0.8789  0.3911
   53MOL    H3413658   0.777   3.613   6.874 -2.3168 -0.1290  1.8441
   53MOL    H3513659   0.527   3.623   6.717 -0.5593 -0.6080  0.7668
   53MOL    H3613660   0.422   3.951   6.778 -1.6070  0.0294 -0.6899
   53MOL    H3713661   0.363   3.788   6.749  1.5953 -1.9625  1.8930
   53MOL    H3813662   0.395   3.902   6.533  1.2786  0.5108  0.6691
   53MOL    H3913663   0.563   3.953   6.571 -0.0387  0.8942  0.3334
   53MOL    H4013664   0.522   3.786   6.544 -1.3874 -0.5172 -1.0054
   53MOL    C4113665   0.510   3.592   6.925 -0.2751  0.5005  0.5660
   53MOL    C4213666   0.510   3.438   6.917 -1.0754  0.2926  0.8202
   53MOL    O4313667   0.423   3.405   6.814  0.2571  0.5660 -0.7102
   53MOL    C4413668   0.450   3.281   6.759 -0.5528 -0.5507  0.1626
   53MOL    C4513669   0.390   3.274   6.620  0.2763  0.1046 -0.5436
   53MOL    H4613670   0.409   3.631   6.933 -0.8875 -0.9219 -0.1329
   53MOL    H4713671   0.564   3.615   7.018  0.9951  0.6372 -0.1897
   53MOL    H4813672   0.609   3.405   6.888 -0.7326  1.9995 -0.0306
   53MOL    H4913673   0.407   3.205   6.825  0.4593 -1.4718 -0.2006
   53MOL    H5013674   0.554   3.251   6.740 -0.2421 -0.6170  1.8370
   53MOL    H5113675   0.284   3.300   6.621  0.3211  0.3894 -2.2272
   53MOL    H5213676   0.439   3.347   6.555  3.6682 -0.2009  1.5459
   53MOL    H5313677   0.395   3.175   6.575 -0.1738 -0.5092  0.7214
   53MOL    C5413678   0.460   3.368   7.047 -0.0500  0.0577 -0.2725
   53MOL    C5513679   0.540   3.386   7.179  0.1833  0.3305 -0.2227
   53MOL    O5613680   0.670   3.366   7.142  0.0545  0.0615 -0.1336
   53MOL    C5713681   0.764   3.457   7.203 -0.1357 -0.0101  0.1178
   53MOL    C5813682   0.900   3.393   7.177 -0.1409 -0.2419  0.2153
   53MOL    H5913683   0.453   3.263   7.021 -1.5390  0.0731  0.0395
   53MOL    H6013684   0.357   3.400   7.060 -0.8787 -1.9119 -1.8564
   53MOL    H6113685   0.512   3.488   7.204  1.7470  1.5786 -3.2400
   53MOL    H6213686   0.761   3.468   7.311  0.6247  1.9383 -0.0256
   53MOL    H6313687   0.759   3.554   7.154 -0.3694  0.3538  0.8555
   53MOL    H6413688   0.977   3.463   7.209  0.9534 -0.5309 -1.6995
   53MOL    H6513689   0.913   3.290   7.208  0.0192 -0.0221  0.8869
   53MOL    H6613690   0.906   3.384   7.068  3.4594 -0.5290  0.4080
   53MOL    C6713691   0.495   3.292   7.285  0.1101  0.6074 -0.0057
   53MOL    C6813692   0.516   3.142   7.263 -0.2454  0.2424  0.2775
   53MOL    O6913693   0.404   3.066   7.304 -0.1427  0.8323 -0.3617
   53MOL    C7013694   0.295   3.057   7.214  0.0278  0.1631  0.3990
   53MOL    C7113695   0.321   2.968   7.095  0.2661 -0.0573  0.1573
   53MOL    H7213696   0.390   3.318   7.297  0.3710  2.0597 -0.7876
   53MOL    H7313697   0.543   3.320   7.379 -0.9155 -1.9351  1.3317
   53MOL    H7413698   0.531   3.122   7.157  0.2953 -3.1341  0.9331
   53MOL    H7513699   0.256   3.157   7.194 -0.1179 -0.1134 -0.7136
   53MOL    H7613700   0.214   3.007   7.269 -0.9069  0.2750 -0.8522
   53MOL    H7713701   0.223   2.920   7.089 -0.1330  0.3397  2.5758
   53MOL    H7813702   0.353   3.013   7.001 -1.1640  1.4760  0.3677
   53MOL    H7913703   0.383   2.884   7.126 -0.5345  0.4778  3.4862
   53MOL    C8013704   0.631   3.083   7.346  0.3408  0.4666  0.1977
   53MOL    C8113705   0.678   2.942   7.307  0.1277 -0.0225 -0.0418
   53MOL    O8213706   0.781   2.895   7.390  1.0998 -0.1666 -0.0192
   53MOL    C8313707   0.733   2.833   7.516  0.6873  0.1294  0.3806
   53MOL    C8413708   0.849   2.802   7.611 -0.2461  0.1503  0.0857
   53MOL    H8513709   0.590   3.087   7.447 -1.2275 -0.3205 -0.3866
   53MOL    H8613710   0.712   3.156   7.337 -0.1639  1.1905  1.3624
   53MOL    H8713711   0.588   2.880   7.304  0.1770 -0.0355 -1.7909
   53MOL    H8813712   0.679   2.747   7.478  3.1056 -1.7899  1.1953
   53MOL    H8913713   0.667   2.910   7.556 -1.6305 -0.7784 -1.5210
   53MOL    H9013714   0.901   2.890   7.651 -2.0151  1.0975  0.3425
   53MOL    H9113715   0.816   2.751   7.701  0.3210 -0.4906 -0.0727
   53MOL    H9213716   0.925   2.743   7.559 -0.7902 -0.1804 -0.3384
   53MOL    C9313717   0.747   2.943   7.168 -0.2555  0.0735  0.0721
   53MOL    C9413718   0.818   2.817   7.114  0.1163  0.4779  0.7517
   53MOL    O9513719   0.891   2.851   6.993 -0.6392 -0.9086 -0.0277
   53MOL    C9613720   1.027   2.888   7.029 -0.0440 -0.2224  0.2498
   53MOL    C9713721   1.108   2.885   6.898 -0.2841 -0.5621  0.3597
   53MOL    H9813722   0.816   3.028   7.168  0.1966 -0.2883 -0.2558
   53MOL    H9913723   0.676   2.970   7.089  1.7848 -0.0212 -1.8594
   53MOL   H10013724   0.876   2.773   7.195 -1.6612 -0.3068  1.6124
   53MOL   H10113725   1.068   2.816   7.100  1.9328  1.1392  0.5435
   53MOL   H10213726   1.031   2.989   7.070  2.1582 -0.4898  0.7611
   53MOL   H10313727   1.214   2.870   6.919 -0.3427  0.9161  1.8578
   53MOL   H10413728   1.077   2.799   6.839 -3.7125  1.1887 -0.5081
   53MOL   H10513729   1.116   2.974   6.836  1.7242 -1.3055 -0.4658
   53MOL   C10613730   0.711   2.719   7.066 -0.3976  0.0627 -0.6961
   53MOL   C10713731   0.768   2.579   7.034 -0.1448  0.0791  0.1890
   53MOL   O10813732   0.670   2.532   6.937 -0.0121  0.1793 -0.3926
   53MOL   C10913733   0.711   2.559   6.799  0.5875 -0.3374 -0.1913
   53MOL   C11013734   0.591   2.502   6.718 -0.2336  0.1689  0.4850
   53MOL   H11113735   0.653   2.763   6.985 -0.5230  1.4939  0.1487
   53MOL   H11213736   0.633   2.705   7.141  0.6212  0.5232  0.4569
   53MOL   H11313737   0.867   2.601   6.994 -0.0051  0.1489  0.5693
   53MOL   H11413738   0.802   2.502   6.778  1.8145  1.5302 -0.0374
   53MOL   H11513739   0.734   2.660   6.765 -0.0386 -0.1913 -0.1706
   53MOL   H11613740   0.506   2.568   6.731  0.3036  1.3091 -1.4985
   53MOL   H11713741   0.615   2.496   6.612  1.0030  2.9279  0.5764
   53MOL   H11813742   0.553   2.407   6.756 -0.2867 -1.2009 -2.8035
   53MOL   C11913743   0.788   2.472   7.146 -0.2387  0.4153 -0.2287
   53MOL   C12013744   0.869   2.345   7.104  0.1591 -0.2603 -0.7386
   53MOL   O12113745   0.812   2.244   7.190  0.1619  0.1020  0.5600
   53MOL   C12213746   0.694   2.182   7.145  0.2333  0.3181  0.4398
   53MOL   C12313747   0.631   2.118   7.272  0.7241  0.5905 -0.4243
   53MOL   H12413748   0.708   2.449   7.217  0.1432  1.2366  0.4839
   53MOL   H12513749   0.866   2.514   7.210  1.6041 -0.6793 -1.6965
   53MOL   H12613750   0.857   2.316   6.999  2.1433 -1.6826 -0.6063
   53MOL   H12713751   0.721   2.113   7.064 -2.2805 -1.7396  1.2895
   53MOL   H12813752   0.623   2.250   7.098 -1.0393  0.6689  2.8195
   53MOL   H12913753   0.613   2.192   7.350  1.0594  0.3646 -0.1331
   53MOL   H13013754   0.533   2.072   7.254  0.1614  1.4833  0.3262
   53MOL   H13113755   0.698   2.038   7.301  0.5507 -0.3121 -2.3622
   53MOL   C13213756   1.023   2.357   7.144  0.2335  0.0018  0.2633
   53MOL   C13313757   1.120   2.250   7.101 -0.0840  0.1456  0.3579
   53MOL   O13413758   1.129   2.239   6.960  0.6927 -0.4241  0.3182
   53MOL   C13513759   1.195   2.345   6.896  0.0493 -0.8149 -0.0224
   53MOL   C13613760   1.231   2.282   6.759 -0.3543  0.1239 -0.3076
   53MOL   H13713761   1.026   2.381   7.251  0.7817  2.3520 -0.2343
   53MOL   H13813762   1.048   2.457   7.107  1.6538 -1.2166 -2.1296
   53MOL   H13913763   1.220   2.282   7.134 -0.2617  0.5724  0.4891
   53MOL   H14013764   1.293   2.378   6.931 -0.6229  0.4035  0.7259
   53MOL   H14113765   1.129   2.431   6.886 -0.4788 -1.2796 -0.6132
   53MOL   H14213766   1.137   2.256   6.710 -0.1285  0.4984 -0.9356
   53MOL   H14313767   1.289   2.352   6.699  2.3307 -0.5742  1.3563
   53MOL   H14413768   1.292   2.193   6.773 -1.2809 -0.8838 -2.4852
   53MOL   C14513769   1.106   2.107   7.164  0.4140 -0.5320  0.4088
   53MOL   C14613770   1.147   2.079   7.309  0.6413  0.0649  0.6809
   53MOL   O14713771   1.289   2.100   7.314  0.0708  0.0961  0.4487
   53MOL   C14813772   1.338   2.157   7.434 -0.5339  0.0747  0.2719
   53MOL   C14913773   1.490   2.136   7.436  1.5165 -0.2294 -0.2007
   53MOL   H15013774   1.154   2.038   7.095 -2.2103 -1.2485 -0.7571
   53MOL   H15113775   1.005   2.069   7.153  0.3371 -1.1626  2.9305
   53MOL   H15213776   1.091   2.158   7.359 -1.0126  0.3281 -1.5152
   53MOL   H15313777   1.291   2.113   7.522 -0.0168  1.3961  1.2097
   53MOL   H15413778   1.308   2.261   7.445  1.8031  0.5472  2.6613
   53MOL   H15513779   1.523   2.179   7.531  1.3624  1.8201 -1.0617
   53MOL   H15613780   1.521   2.032   7.422  0.7741 -0.3540 -0.9354
   53MOL   H15713781   1.533   2.200   7.360 -0.6728  0.7674 -0.6348
   53MOL   C15813782   1.126   1.941   7.363  0.3878 -0.2070  0.2376
   53MOL   C15913783   0.995   1.936   7.439  0.0812  0.7246  0.5120
   53MOL   O16013784   1.010   2.003   7.562  0.1357 -0.0655  0.5737
   53MOL   C16113785   0.887   2.041   7.618 -0.3849 -0.5211  0.5566
   53MOL   C16213786   0.934   2.128   7.738  0.2154 -0.6061  0.3373
   53MOL   H16313787   1.205   1.912   7.432  1.3693  0.3428 -0.6274
   53MOL   H16413788   1.130   1.861   7.289 -0.0935  1.1615 -1.2961
   53MOL   H16513789   0.918   1.986   7.380 -0.4280 -1.9453 -1.2004
   53MOL   H16613790   0.835   1.952   7.653 -0.6492 -1.4756 -2.1604
   53MOL   H16713791   0.815   2.094   7.555 -1.1969 -2.7154 -0.3828
   53MOL   H16813792   0.984   2.065   7.812 -1.8822 -1.2778  1.2129
   53MOL   H16913793   1.006   2.203   7.706  0.5245 -1.0274  0.0307
   53MOL   H17013794   0.851   2.170   7.794 -0.4717 -0.8175 -0.5090
   53MOL   C17113795   0.946   1.784   7.449 -0.1429 -0.2066  0.3984
   53MOL   C17213796   1.042   1.681   7.512  1.0415  0.5309  0.1603
   53MOL   O17313797   1.025   1.553   7.451 -0.4290 -0.2042 -0.6251
   53MOL   C17413798   0.898   1.500   7.459  0.0494  0.3696  0.0495
   53MOL   C17513799   0.901   1.372   7.378  0.2182  0.0484  0.0864
   53MOL   H17613800   0.924   1.751   7.347 -1.9161  2.4602 -0.1437
   53MOL   H17713801   0.847   1.767   7.490 -0.0717  0.2503  0.7639
   53MOL   H17813802   1.146   1.701   7.487  0.7048  1.3373 -0.6688
   53MOL   H17913803   0.821   1.566   7.419 -2.0648 -0.5308  2.4728
   53MOL   H18013804   0.869   1.478   7.562  2.9750  0.3616  0.9258
   53MOL   H18113805   0.985   1.307   7.403 -0.5950 -0.6694  0.9923
   53MOL   H18213806   0.806   1.322   7.398 -0.6180  1.6364  0.1766
   53MOL   H18313807   0.893   1.390   7.271  0.6148 -0.5660 -0.0506
   53MOL   C18413808   1.034   1.670   7.675 -0.2340  0.0401 -0.3542
   53MOL   C18513809   1.123   1.563   7.745 -0.1359  0.0451  0.2630
   53MOL   O18613810   1.068   1.434   7.717  0.7457  0.5622 -0.4111
   53MOL   C18713811   1.150   1.325   7.737  0.2112  0.2946  0.3585
   53MOL   C18813812   1.082   1.209   7.679  0.1543  1.0566 -0.1926
   53MOL   H18913813   0.932   1.638   7.693 -0.3144 -1.2554 -2.8119
   53MOL   H19013814   1.049   1.772   7.712  3.0652 -0.6786  0.5219
   53MOL   H19113815   1.222   1.556   7.700 -0.4695 -2.8152 -0.1108
   53MOL   H19213816   1.164   1.311   0.000  0.7480  0.3212  0.2928
   53MOL   H19313817   1.239   1.344   7.677 -1.9124  1.8683 -2.4003
   53MOL   H19413818   1.139   1.121   7.706 -0.5320  0.6627 -0.0304
   53MOL   H19513819   0.977   1.205   7.708 -0.2457  0.6457 -1.6434
   53MOL   H19613820   1.079   1.216   7.570 -2.2917 -2.9102 -0.4831
   53MOL   C19713821   1.134   1.590   0.054  0.3921 -0.3233  0.0962
   53MOL   C19813822   1.220   1.722   0.095  0.1196 -0.4004  0.4722
   53MOL   O19913823   1.353   1.722   0.038 -0.5527 -0.8500 -0.4231
   53MOL   C20013824   1.395   1.846   7.832 -0.1659  0.2464 -0.4309
   53MOL   C20113825   1.532   1.837   7.767  0.4296 -0.3434  0.0924
   53MOL   H20213826   1.168   1.498   0.101 -2.6465 -0.6454  1.8531
   53MOL   H20313827   1.038   1.616   0.100  0.4475  1.1064 -0.5573
   53MOL   H20413828   1.162   1.803   0.050  0.3908  0.0955  1.0051
   53MOL   H20513829   1.389   1.928   0.060  0.6959  0.7688 -0.9353
   53MOL   H20613830   1.318   1.883   7.765 -1.1951 -2.7438 -0.9691
   53MOL   H20713831   1.606   1.798   7.836  0.9888  1.0173  0.2850
   53MOL   H20813832   1.540   1.760   7.691 -2.4312  0.7635 -1.4063
   53MOL   H20913833   1.565   1.933   7.727 -1.4028  0.5026  0.5515
   53MOL   C21013834   1.240   1.741   0.247 -0.3012 -0.1216 -0.4060
   53MOL   C21113835   1.211   1.889   0.308  0.4779 -0.0538  0.1512
   53MOL   O21213836   1.276   1.888   0.429  0.1913 -0.0948 -0.4967
   53MOL   C21313837   1.410   1.933   0.439  0.1068 -0.2206  0.8939
   53MOL   C21413838   1.443   1.987   0.581  0.7682  0.5866 -0.5904
   53MOL   H21513839   1.340   1.702   0.269 -1.1510 -2.5689 -0.7327
   53MOL   H21613840   1.176   1.669   0.298 -2.5701  1.1115 -1.4311
   53MOL   H21713841   1.261   1.955   0.238  2.6342  0.7832  2.4540
   53MOL   H21813842   1.438   2.009   0.366  0.0041  0.7161  1.7969
   53MOL   H21913843   1.475   1.850   0.413  0.1071  0.7142 -2.1900
   53MOL   H22013844   1.549   2.001   0.599  0.2737 -0.3207  3.4710
   53MOL   H22113845   1.391   2.081   0.599 -0.2096 -0.1837  0.6786
   53MOL   H22213846   1.410   1.919   0.659  1.2641  1.4526  0.3795
   53MOL   C22313847   1.063   1.925   0.320  0.1519 -0.2041 -0.7054
   53MOL   C22413848   1.033   2.072   0.360 -0.0109  0.4234  0.1368
   53MOL   O22513849   0.892   2.088   0.363 -0.1217  0.2079  0.2206
   53MOL   C22613850   0.831   2.046   0.480 -0.0666 -0.4422  0.4728
   53MOL   C22713851   0.694   2.113   0.469 -0.4209 -0.4141 -0.0071
   53MOL   H22813852   1.012   1.860   0.391 -1.2318 -0.3664 -1.8126
   53MOL   H22913853   1.003   1.898   0.233  0.7773  1.8278 -1.8195
   53MOL   H23013854   1.077   2.079   0.460  0.9485  2.9818 -0.4184
   53MOL   H23113855   0.885   2.073   0.571  2.6214 -0.7090 -1.0053
   53MOL   H23213856   0.830   1.937   0.479  0.2463 -0.4374 -0.2088
   53MOL   H23313857   0.699   2.221   0.460  2.9165 -0.2997  2.2538
   53MOL   H23413858   0.635   2.063   0.392 -1.3499  1.9444 -0.8710
   53MOL   H23513859   0.632   2.094   0.557  1.3123  1.5963  1.6942
   53MOL   C23613860   1.102   2.177   0.275  0.6932  0.0047 -0.4158
   53MOL   C23713861   1.087   2.318   0.329  0.2041  0.1484 -0.2734
   53MOL   O23813862   1.153   2.402   0.235 -0.8210 -0.5376  0.2727
   53MOL   C23913863   1.095   2.528   0.221  0.5450 -0.7049  0.7235
   53MOL   C24013864   0.969   2.503   0.136 -0.0791  0.1138  0.3049
   53MOL   H24113865   1.053   2.178   0.178 -0.9615  0.7921  0.3927
   53MOL   H24213866   1.208   2.154   0.268  1.2324  2.0228  0.7854
   53MOL   H24313867   0.982   2.346   0.337 -0.1017 -0.8311 -0.8859
   53MOL   H24413868   1.171   2.587   0.170  1.8482 -0.9768  2.3062
   53MOL   H24513869   1.067   2.581   0.312 -2.3547  1.6472 -1.4310
   53MOL   H24613870   0.984   2.423   0.064 -2.8656 -0.2534  0.0655
   53MOL   H24713871   0.879   2.482   0.194 -1.0057  3.0299  0.0192
   53MOL   H24813872   0.948   2.603   0.098  1.3926  1.2564  2.3977
   53MOL   C24913873   1.158   2.347   0.462  0.0674  0.3054 -0.1386
   53MOL   C25013874   1.315   2.328   0.462 -0.2742 -0.1883 -0.4771
   53MOL   O25113875   1.365   2.376   0.588 -0.7197 -0.3491  0.1741
   53MOL   C25213876   1.504   2.360   0.601 -0.3097  0.5657  0.0923
   53MOL   C25313877   1.543   2.404   0.742  0.3249  0.1088 -0.0987
   53MOL   H25413878   1.123   2.280   0.540  1.2479 -1.3951 -1.0460
   53MOL   H25513879   1.133   2.446   0.500 -0.9885  0.0882 -0.2596
   53MOL   H25613880   1.346   2.227   0.434  0.6741  0.5007 -1.9307
   53MOL   H25713881   1.544   2.418   0.518  0.1882 -0.2711 -0.2526
   53MOL   H25813882   1.537   2.257   0.593 -2.7109 -0.2841  0.6930
   53MOL   H25913883   1.475   2.361   0.816  1.7709  1.5530  2.1310
   53MOL   H26013884   1.647   2.381   0.764 -0.0457 -0.6468  0.9422
   53MOL   H26113885   1.536   2.512   0.756 -1.6362 -0.1298  1.0719
   53MOL   H26213886   1.352   2.388   0.380  1.5647 -0.7498 -0.0677
   54MOL     C113887   2.818   4.939   4.463 -0.7896 -0.2658  0.2705
   54MOL     C213888   2.863   5.053   4.562  0.3973 -0.6786  0.1893
   54MOL     O313889   2.843   5.001   4.692 -0.3428  0.6947 -0.3220
   54MOL     C413890   2.957   4.964   4.761  0.2959  0.1272  0.5550
   54MOL     C513891   2.921   4.904   4.895  1.0419 -0.4671 -0.1105
   54MOL     H613892   2.865   4.943   4.364  1.7516  3.1634  1.5131
   54MOL     H713893   2.852   4.847   4.510  0.3143 -0.3495 -0.6524
   54MOL     H813894   2.971   5.065   4.556  0.0891  1.0787 -2.3757
   54MOL     H913895   3.018   5.054   4.756  0.6980  0.0754  3.3982
   54MOL    H1013896   3.013   4.896   4.698 -1.9190 -0.6013 -0.6804
   54MOL    H1113897   2.855   4.977   4.942  1.3455 -0.1038 -0.2483
   54MOL    H1213898   2.860   4.815   4.888 -0.7939  0.8682 -1.5526
   54MOL    H1313899   3.007   4.887   4.960  0.5792 -0.9530  0.3733
   54MOL    H1413900   2.711   4.945   4.441 -0.7563  0.3971  0.2593
   54MOL    C1513901   2.789   5.182   4.545  0.0155 -0.3063 -0.1392
   54MOL    C1613902   2.866   5.305   4.599  0.7207 -0.4504  0.0205
   54MOL    O1713903   2.870   5.295   4.734  0.4515 -0.1929  0.4869
   54MOL    C1813904   2.988   5.355   4.792 -0.0015 -0.3410  0.5007
   54MOL    C1913905   2.980   5.316   4.941  0.0710 -0.3603  0.4008
   54MOL    H2013906   2.688   5.176   4.586  0.1214 -0.2948  0.1262
   54MOL    H2113907   2.784   5.193   4.437 -3.0809 -1.2413 -0.1328
   54MOL    H2213908   2.961   5.304   4.546 -0.5594  0.2336 -2.3655
   54MOL    H2313909   2.998   5.463   4.782  1.5962 -0.5126  0.1367
   54MOL    H2413910   3.076   5.304   4.753 -0.5842 -0.7990 -0.2136
   54MOL    H2513911   3.071   5.339   4.996  0.9339 -1.8460 -0.3660
   54MOL    H2613912   2.946   5.214   4.960  1.5130 -0.6977  1.2617
   54MOL    H2713913   2.899   5.378   4.980 -0.1090 -0.8795  0.8592
   54MOL    C2813914   2.784   5.430   4.545 -0.1247 -0.1691  0.1423
   54MOL    C2913915   2.855   5.572   4.538 -0.3927  0.2400 -0.2362
   54MOL    O3013916   2.764   5.667   4.479  0.7387  0.0245 -0.4993
   54MOL    C3113917   2.666   5.738   4.559 -0.2237  0.6079  0.2927
   54MOL    C3213918   2.587   5.846   4.480  0.2708  0.1352  0.1138
   54MOL    H3313919   2.695   5.439   4.607  0.4245 -2.4699  1.3182
   54MOL    H3413920   2.752   5.405   4.444 -0.3762 -0.9700  0.4158
   54MOL    H3513921   2.883   5.599   4.640 -0.9151 -1.7703  0.4645
   54MOL    H3613922   2.714   5.780   4.647  2.0704 -0.2718 -0.4932
   54MOL    H3713923   2.599   5.662   4.597  1.1844 -0.0374  1.5263
   54MOL    H3813924   2.541   5.806   4.389  0.8384  3.5037 -1.7153
   54MOL    H3913925   2.501   5.886   4.535  0.4040 -1.3735  1.4642
   54MOL    H4013926   2.653   5.931   4.463 -0.1788  0.8810  1.9416
   54MOL    C4113927   2.980   5.564   4.449 -0.3349 -0.0419  0.0444
   54MOL    C4213928   3.045   5.700   4.444  0.0412 -0.1959 -0.4649
   54MOL    O4313929   3.143   5.688   4.338 -0.4000  0.0321  0.2523
   54MOL    C4413930   3.102   5.730   4.205  0.0286 -0.7375 -0.8796
   54MOL    C4513931   3.211   5.708   4.085 -0.1423 -0.2438  0.0098
   54MOL    H4613932   2.946   5.539   4.349  1.2823  1.8321 -1.0026
   54MOL    H4713933   3.054   5.492   4.486 -1.3157 -1.4881 -0.7497
   54MOL    H4813934   2.979   5.786   4.431  0.7751  0.2266 -1.4458
   54MOL    H4913935   3.096   5.838   4.215  1.4864 -0.5300 -2.1530
   54MOL    H5013936   3.002   5.694   4.178  1.0101 -3.4462 -1.0402
   54MOL    H5113937   3.195   5.781   4.005 -0.1009  1.8637  1.8840
   54MOL    H5213938   3.316   5.726   4.109  0.0940 -2.0481  0.3939
   54MOL    H5313939   3.205   5.606   4.047 -0.5364 -0.7321  1.3674
   54MOL    C5413940   3.128   5.731   4.573  0.0395 -0.5617  0.2596
   54MOL    C5513941   3.132   5.873   4.627  0.2721  0.0261  0.4647
   54MOL    O5613942   2.999   5.918   4.641 -0.7180  0.2038  0.1724
   54MOL    C5713943   2.969   5.966   4.761  0.5335 -0.5363  0.3352
   54MOL    C5813944   2.829   6.035   4.738 -0.7184 -0.3538  0.7879
   54MOL    H5913945   3.231   5.695   4.567  0.6587  1.4366 -1.3999
   54MOL    H6013946   3.087   5.674   4.657  0.2396  0.4634  1.0574
   54MOL    H6113947   3.183   5.853   4.722 -2.9720 -0.7918  2.1065
   54MOL    H6213948   3.043   6.042   4.788 -0.5540  0.1990  1.3112
   54MOL    H6313949   2.959   5.889   4.837 -1.0273 -1.1510 -0.4704
   54MOL    H6413950   2.839   6.122   4.672 -2.0313 -2.1143 -1.8229
   54MOL    H6513951   2.759   5.964   4.693  0.7532 -0.9098 -0.6526
   54MOL    H6613952   2.797   6.070   4.836 -0.3691 -0.2079  0.8484
   54MOL    C6713953   3.211   5.983   4.544  0.4967 -0.5632 -0.2223
   54MOL    C6813954   3.357   6.001   4.605 -0.2938 -0.1656  0.7865
   54MOL    O6913955   3.336   6.069   4.733  0.4064  0.2228 -0.0685
   54MOL    C7013956   3.439   6.022   4.827 -0.2106  0.5997 -0.0736
   54MOL    C7113957   3.404   6.063   4.975  0.2487  0.5301  0.3226
   54MOL    H7213958   3.155   6.076   4.553  0.1459 -0.8988  1.1798
   54MOL    H7313959   3.208   5.963   4.437  0.3060  0.6441 -0.4476
   54MOL    H7413960   3.393   5.900   4.622 -0.2211 -0.5899 -1.7096
   54MOL    H7513961   3.536   6.064   4.802  0.3034 -0.7189 -0.3274
   54MOL    H7613962   3.449   5.914   4.831  2.1094  0.8159  0.7268
   54MOL    H7713963   3.390   6.170   4.985  4.0053  0.9099  2.2934
   54MOL    H7813964   3.300   6.031   4.991 -0.3450  1.6617 -1.1362
   54MOL    H7913965   3.478   6.037   5.050  0.6015  1.4019  0.2747
   54MOL    C8013966   3.454   6.088   4.518 -0.3102 -0.0734 -0.8151
   54MOL    C8113967   3.504   6.010   4.400 -0.7166  0.3928 -0.2584
   54MOL    O8213968   3.569   5.897   4.455 -0.7077 -0.1206  0.1624
   54MOL    C8313969   3.514   5.776   4.416  0.7267  0.1100  0.6707
   54MOL    C8413970   3.589   5.658   4.475 -0.4515 -1.1710 -0.0202
   54MOL    H8513971   3.531   6.129   4.583  0.1251 -3.3128  0.8117
   54MOL    H8613972   3.414   6.180   4.475 -1.7864 -1.9693 -3.6924
   54MOL    H8713973   3.416   5.989   4.339 -0.6649  1.1209 -0.5900
   54MOL    H8813974   3.512   5.765   4.308 -1.8600 -1.1899  0.8231
   54MOL    H8913975   3.407   5.781   4.438  0.6139  3.4305 -0.2731
   54MOL    H9013976   3.695   5.663   4.452 -0.3471  0.8503  0.8377
   54MOL    H9113977   3.584   5.648   4.583  0.2870  0.1690  0.1421
   54MOL    H9213978   3.542   5.569   4.433 -1.6078  0.6264 -2.7411
   54MOL    C9313979   3.603   6.098   4.313  0.9480 -0.1822 -0.0246
   54MOL    C9413980   3.713   6.176   4.386  0.1577  0.4781 -0.2226
   54MOL    O9513981   3.762   6.270   4.292  0.0966  0.4162 -0.1942
   54MOL    C9613982   3.713   6.397   4.320  0.2679 -0.2182  0.2793
   54MOL    C9713983   3.738   6.484   4.192  0.0103 -0.0635  0.2892
   54MOL    H9813984   3.532   6.170   4.274  2.5075  1.0385 -0.6708
   54MOL    H9913985   3.649   6.047   4.228  0.6386 -1.6567  0.6654
   54MOL   H10013986   3.669   6.230   4.469  2.5416  2.8074 -0.4163
   54MOL   H10113987   3.767   6.443   4.403 -1.8482  1.4001  0.7848
   54MOL   H10213988   3.609   6.399   4.352 -0.2573 -0.1734 -1.3969
   54MOL   H10313989   3.694   6.579   4.223  1.8810  0.2317  2.1306
   54MOL   H10413990   3.845   6.491   4.170 -0.5770  1.8244 -2.1566
   54MOL   H10513991   3.675   6.449   4.110 -0.7135  1.3376  0.2270
   54MOL   C10613992   3.838   6.091   4.428 -0.0592 -0.0646  0.2514
   54MOL   C10713993   3.823   6.036   4.573 -0.4460  0.5695  0.1316
   54MOL   O10813994   3.875   6.128   4.672 -0.3682 -0.1576 -0.1679
   54MOL   C10913995   3.782   6.226   4.715 -1.3273  0.7898  0.5828
   54MOL   C11013996   3.837   6.285   4.851 -0.2738  0.5650 -0.2734
   54MOL   H11113997   3.928   6.150   4.412  0.5133 -0.6196  1.3709
   54MOL   H11213998   3.848   6.009   4.357 -0.1651  0.3355 -0.2334
   54MOL   H11313999   3.721   6.009   4.598  0.3764 -0.1302  2.8374
   54MOL   H11414000   3.676   6.204   4.719 -1.1142 -0.1269  1.5673
   54MOL   H11514001   3.787   6.311   4.647  1.0771 -0.8594 -1.3941
   54MOL   H11614002   3.931   6.335   4.829 -0.1304  0.3252 -0.2112
   54MOL   H11714003   3.771   6.354   4.902  1.1544  1.5556  0.2780
   54MOL   H11814004   3.865   6.209   4.925  1.3959  1.7959  0.3891
   54MOL   C11914005   3.915   5.915   4.601 -0.4135 -0.0726  0.3437
   54MOL   C12014006   3.928   5.854   4.746 -0.2887  0.0389 -0.8066
   54MOL   O12114007   3.980   5.719   4.723  0.0974  0.2278  0.3593
   54MOL   C12214008   4.120   5.715   4.728 -0.4816  0.1010  0.1085
   54MOL   C12314009   4.160   5.586   4.660 -0.2208 -0.0320 -0.2040
   54MOL   H12414010   4.017   5.944   4.574 -0.9669 -0.3447 -2.1723
   54MOL   H12514011   3.895   5.838   4.526 -1.2647  1.4789 -1.0543
   54MOL   H12614012   3.994   5.907   4.815  0.0887  0.8312 -1.7731
   54MOL   H12714013   4.149   5.725   4.832 -2.1692  0.9755  0.5133
   54MOL   H12814014   4.171   5.805   4.694  1.0581 -1.0802 -0.7827
   54MOL   H12914015   4.149   5.586   4.551 -1.2776 -2.0544 -0.1197
   54MOL   H13014016   4.267   5.576   4.678 -0.1821  1.5947  0.5488
   54MOL   H13114017   4.110   5.500   4.704  1.2316 -2.0458 -2.3146
   54MOL   C13214018   3.793   5.836   4.812 -0.0603 -0.2596 -0.8004
   54MOL   C13314019   3.779   5.750   4.945  0.2095  0.1417 -0.4946
   54MOL   O13414020   3.642   5.749   4.977 -0.6382  0.1317 -0.6473
   54MOL   C13514021   3.578   5.634   4.937  0.4625  1.0616 -0.5236
   54MOL   C13614022   3.437   5.649   4.988  0.7494 -0.1343  0.0656
   54MOL   H13714023   3.714   5.810   4.741 -1.0227 -2.5100  1.0352
   54MOL   H13814024   3.765   5.938   4.837  4.4202  1.7485 -3.3905
   54MOL   H13914025   3.824   5.651   4.953 -0.2012  0.0393  0.6355
   54MOL   H14014026   3.620   5.548   4.989 -1.8529  0.3937  0.2841
   54MOL   H14114027   3.580   5.620   4.829  1.6816  0.7540 -0.4668
   54MOL   H14214028   3.437   5.654   5.097 -1.3461  3.0372 -0.0008
   54MOL   H14314029   3.385   5.741   4.962  1.2590  0.4994  1.2019
   54MOL   H14414030   3.377   5.569   4.944  1.6481 -0.3801 -0.7297
   54MOL   C14514031   3.844   5.832   5.061 -0.0723 -0.8401 -0.2615
   54MOL   C14614032   3.988   5.804   5.088  0.4237 -0.3188 -0.2374
   54MOL   O14714033   3.999   5.679   5.151  0.0654 -0.2921  0.3491
   54MOL   C14814034   4.087   5.585   5.083  0.4917 -0.0918 -0.3990
   54MOL   C14914035   4.080   5.449   5.167  0.0583 -0.6551  0.4782
   54MOL   H15014036   3.777   5.822   5.146 -0.8652  0.7471 -0.6696
   54MOL   H15114037   3.839   5.938   5.035  0.5456 -0.7206  0.1002
   54MOL   H15214038   4.044   5.805   4.995 -0.7532  0.4154 -0.9483
   54MOL   H15314039   4.188   5.625   5.076  1.3563 -1.8765  1.3396
   54MOL   H15414040   4.055   5.549   4.985 -0.8422 -0.1475  0.0492
   54MOL   H15514041   4.136   5.445   5.260 -2.4904 -0.3868  2.0909
   54MOL   H15614042   3.980   5.406   5.180  0.2957 -0.7897  1.9440
   54MOL   H15714043   4.126   5.372   5.105 -0.6392  1.4486 -2.7265
   54MOL   C15814044   4.057   5.902   5.183 -0.2323 -0.3299  0.1447
   54MOL   C15914045   4.093   6.039   5.120  0.1793 -0.1722 -0.6611
   54MOL   O16014046   4.182   6.023   5.005 -0.1809 -0.5379 -0.0060
   54MOL   C16114047   4.185   6.135   4.906  0.7203  1.0193  0.7311
   54MOL   C16214048   4.303   6.104   4.810 -0.3252 -0.4782 -0.1268
   54MOL   H16314049   4.140   5.853   5.234  0.4462  2.3275  1.6644
   54MOL   H16414050   3.985   5.916   5.264 -1.8590 -2.4081 -0.8867
   54MOL   H16514051   3.998   6.085   5.091  0.1389 -0.7816 -1.5239
   54MOL   H16614052   4.195   6.234   4.951  2.2323  1.0629  0.3364
   54MOL   H16714053   4.092   6.136   4.849  1.4611  0.0249 -0.5117
   54MOL   H16814054   4.307   6.177   4.729  2.2685  0.8669  1.1379
   54MOL   H16914055   4.399   6.120   4.859 -0.4921 -0.4384  0.1921
   54MOL   H17014056   4.283   6.005   4.771  2.0346 -0.5455 -1.2158
   54MOL   C17114057   4.145   6.138   5.229 -0.3105 -0.3264 -0.3930
   54MOL   C17214058   4.055   6.262   5.264  0.2704 -0.2904  0.1059
   54MOL   O17314059   3.924   6.231   5.310 -0.3489 -0.0334 -0.4532
   54MOL   C17414060   3.906   6.175   5.443 -0.9130 -0.3329  0.2724
   54MOL   C17514061   3.753   6.186   5.465  0.0684  0.1566 -0.3868
   54MOL   H17614062   4.250   6.154   5.204  0.1706 -2.8234 -0.0497
   54MOL   H17714063   4.156   6.090   5.326 -2.4316 -0.7545 -0.3600
   54MOL   H17814064   4.113   6.305   5.346  0.9033  0.3809 -0.6829
   54MOL   H17914065   3.968   6.225   5.517  0.9715 -0.7422 -0.9754
   54MOL   H18014066   3.955   6.080   5.421  0.9626  0.2954  1.6401
   54MOL   H18114067   3.695   6.120   5.400 -1.5605 -0.2002  1.3746
   54MOL   H18214068   3.719   6.144   5.559 -0.8455  0.5129 -0.5534
   54MOL   H18314069   3.711   6.286   5.457  1.1229  0.6576  0.2450
   54MOL   C18414070   4.041   6.372   5.155  0.2464  0.2480 -0.2270
   54MOL   C18514071   3.976   6.503   5.206  0.1044  0.4853  0.4129
   54MOL   O18614072   3.914   6.567   5.094 -0.1901 -0.1381  0.5633
   54MOL   C18714073   3.996   6.642   5.003 -0.2759  0.0524 -0.4206
   54MOL   C18814074   3.908   6.677   4.884 -0.2671 -0.5054 -0.8785
   54MOL   H18914075   3.984   6.322   5.077 -2.8767  1.5559  1.1355
   54MOL   H19014076   4.137   6.410   5.118 -0.3389  2.9059  0.8660
   54MOL   H19114077   3.890   6.484   5.270  1.8785  0.1411  2.7388
   54MOL   H19214078   4.093   6.596   4.986  1.0250  2.1269  1.1993
   54MOL   H19314079   4.019   6.735   5.054  1.4980  0.4684 -1.9383
   54MOL   H19414080   3.845   6.592   4.858  0.0175 -0.9414 -0.1816
   54MOL   H19514081   3.842   6.761   4.901 -0.8214 -0.9795 -0.6680
   54MOL   H19614082   3.970   6.697   4.797 -1.2197 -1.4203 -1.7735
   54MOL   C19714083   4.062   6.609   5.290 -0.0405  0.2668  0.2734
   54MOL   C19814084   4.082   6.569   5.440 -0.2876  1.0527  0.0450
   54MOL   O19914085   3.988   6.639   5.518  0.5507 -0.3903  1.1762
   54MOL   C20014086   3.856   6.596   5.529  0.3909 -0.1898  0.2209
   54MOL   C20114087   3.773   6.687   5.621  0.0030  0.6164  0.9379
   54MOL   H20214088   4.015   6.707   5.296  1.1063  0.8500 -0.1669
   54MOL   H20314089   4.157   6.618   5.238 -0.1125 -0.6234 -0.0237
   54MOL   H20414090   4.060   6.463   5.439  0.4357  0.8822  1.2623
   54MOL   H20514091   3.856   6.494   5.565 -0.4758  0.3716  1.8439
   54MOL   H20614092   3.817   6.585   5.428 -0.3624 -0.5153  0.5495
   54MOL   H20714093   3.788   6.791   5.593  1.8378  0.7212  2.1963
   54MOL   H20814094   3.664   6.682   5.616 -0.0027  1.0497  0.5663
   54MOL   H20914095   3.807   6.686   5.724  1.8300 -1.0853  0.3554
   54MOL   C21014096   4.219   6.622   5.486 -0.9278 -0.3923  0.0351
   54MOL   C21114097   4.335   6.536   5.436  0.8928  0.2585  0.6305
   54MOL   O21214098   4.329   6.405   5.475 -0.6493 -0.1095  0.7542
   54MOL   C21314099   4.346   6.376   5.613 -0.0500  0.2028  0.4298
   54MOL   C21414100   4.332   6.218   5.620  0.4928  0.4020 -0.5297
   54MOL   H21514101   4.234   6.625   5.594 -0.4712 -2.4045  0.0626
   54MOL   H21614102   4.236   6.722   5.448 -0.1789 -0.2719  0.6603
   54MOL   H21714103   4.321   6.529   5.328  0.5906 -1.3152  0.7525
   54MOL   H21814104   4.268   6.422   5.673 -1.4358 -1.5497  0.0263
   54MOL   H21914105   4.438   6.408   5.661  0.8792 -1.9101  0.1409
   54MOL   H22014106   4.412   6.168   5.564  0.2746 -0.2677 -0.2558
   54MOL   H22114107   4.343   6.180   5.722  1.5743  1.2356 -0.3240
   54MOL   H22214108   4.239   6.180   5.578 -0.7880  0.7667  1.9342
   54MOL   C22314109   4.480   6.598   5.463 -0.5632 -0.5699 -0.4647
   54MOL   C22414110   4.604   6.513   5.433 -1.0298 -0.4505 -0.3942
   54MOL   O22514111   4.713   6.594   5.470 -0.3087 -0.2073 -0.0801
   54MOL   C22614112   4.830   6.520   5.487 -0.2122 -0.4690 -0.0927
   54MOL   C22714113   4.964   6.602   5.486  0.9543  0.7514 -0.4209
   54MOL   H22814114   4.499   6.623   5.567  1.9835  0.6505 -1.1619
   54MOL   H22914115   4.476   6.690   5.405 -1.7710 -0.9875 -1.0531
   54MOL   H23014116   4.605   6.425   5.497 -2.3333  0.2599  0.6451
   54MOL   H23114117   4.837   6.436   5.418 -2.1160  0.1305 -1.0638
   54MOL   H23214118   4.833   6.476   5.587 -2.7435 -0.6781 -0.0640
   54MOL   H23314119   4.973   6.649   5.388  0.0357 -0.0847 -0.9050
   54MOL   H23414120   4.973   6.676   5.566  1.5844  0.6389 -0.3859
   54MOL   H23514121   5.044   6.529   5.496  0.1500  0.1077  1.6125
   54MOL   C23614122   4.611   6.480   5.281 -0.2435 -0.1597 -0.0995
   54MOL   C23714123   4.579   6.334   5.251 -0.3289  0.4504 -0.3639
   54MOL   O23814124   4.677   6.254   5.316  0.4053  0.5158 -0.6944
   54MOL   C23914125   4.647   6.118   5.348  0.2785  0.8801  0.5185
   54MOL   C24014126   4.774   6.036   5.370  0.1638 -0.3319  1.0199
   54MOL   H24114127   4.712   6.501   5.248 -0.4413  1.5020  0.3325
   54MOL   H24214128   4.551   6.548   5.221  2.6296  3.1567  0.6382
   54MOL   H24314129   4.478   6.310   5.285  0.3999 -2.2226  0.0084
   54MOL   H24414130   4.580   6.074   5.273 -0.4236  0.0698  1.6155
   54MOL   H24514131   4.582   6.130   5.434 -1.9622  0.2880 -1.0325
   54MOL   H24614132   4.853   6.069   5.302 -1.7168  2.3749  0.0660
   54MOL   H24714133   4.825   6.050   5.465 -0.1460 -1.3994  1.3477
   54MOL   H24814134   4.760   5.931   5.343 -0.7589  0.6785 -2.7351
   54MOL   C24914135   4.583   6.305   5.101 -0.4667 -0.2684  0.0039
   54MOL   C25014136   4.468   6.354   5.013 -0.2735 -0.0017  0.5471
   54MOL   O25114137   4.440   6.493   4.998  0.0981  0.4377  0.3662
   54MOL   C25214138   4.525   6.555   4.897  0.2541  0.3339 -1.0611
   54MOL   C25314139   4.510   6.708   4.905  0.2797  0.3780 -0.2076
   54MOL   H25414140   4.593   6.199   5.080  0.2089 -0.1858 -0.1194
   54MOL   H25514141   4.673   6.353   5.061  0.4089 -1.5937  0.3481
   54MOL   H25614142   4.472   6.311   4.913  0.4182 -0.2808  0.6916
   54MOL   H25714143   4.494   6.529   4.796 -0.9948 -2.3493 -0.0357
   54MOL   H25814144   4.629   6.524   4.904 -0.3164 -1.8266 -1.5594
   54MOL   H25914145   4.537   6.753   5.000 -1.8983  2.4442 -0.5045
   54MOL   H26014146   4.572   6.763   4.834 -0.2266  0.6801 -0.4171
   54MOL   H26114147   4.411   6.741   4.874 -0.1631 -1.4831 -0.8926
   54MOL   H26214148   4.387   6.301   5.062  0.9533  1.0827  3.8896
   55MOL     C114149   1.653   5.713   4.717  0.6882 -0.0582  0.2780
   55MOL     C214150   1.540   5.651   4.804 -0.3980  0.5600  0.0182
   55MOL     O314151   1.506   5.516   4.764  0.3087  0.0836  0.4540
   55MOL     C414152   1.580   5.414   4.822  0.5626  0.0657 -0.7015
   55MOL     C514153   1.602   5.303   4.721 -0.1986  0.3554  0.8296
   55MOL     H614154   1.682   5.814   4.748  2.5968 -1.0686  1.8983
   55MOL     H714155   1.745   5.656   4.725  0.4676 -0.5456 -0.5926
   55MOL     H814156   1.595   5.650   4.897  2.5950 -0.0454 -1.6965
   55MOL     H914157   1.515   5.375   4.901  0.1546 -2.4118 -2.1738
   55MOL    H1014158   1.672   5.444   4.872 -0.1657  2.3303 -0.6834
   55MOL    H1114159   1.510   5.265   4.675  0.6053  1.5877 -1.8721
   55MOL    H1214160   1.653   5.353   4.639  1.8732 -0.2424  1.7341
   55MOL    H1314161   1.671   5.228   4.758  1.3402  0.9977 -0.6749
   55MOL    H1414162   1.619   5.726   4.614  3.4066  1.0799 -0.5331
   55MOL    C1514163   1.413   5.736   4.790 -0.3443 -0.1065 -0.2800
   55MOL    C1614164   1.279   5.683   4.868 -0.2284  0.2328  0.3756
   55MOL    O1714165   1.168   5.752   4.809  0.2600 -0.1876 -0.7427
   55MOL    C1814166   1.036   5.712   4.843  0.3412 -0.6188  0.0522
   55MOL    C1914167   0.930   5.771   4.747  0.1514 -0.3450 -0.1643
   55MOL    H2014168   1.389   5.729   4.684 -1.1542  0.2460 -0.1294
   55MOL    H2114169   1.429   5.840   4.817 -1.6786  0.3114 -1.0255
   55MOL    H2214170   1.258   5.586   4.825  1.4444  0.0289 -0.0340
   55MOL    H2314171   1.012   5.734   4.947 -1.3418 -2.1416  0.0161
   55MOL    H2414172   1.029   5.603   4.834 -0.8977 -0.5181 -0.1970
   55MOL    H2514173   0.913   5.875   4.774 -1.8758 -1.1080  1.7617
   55MOL    H2614174   0.840   5.709   4.749 -0.1507 -0.0132 -2.2104
   55MOL    H2714175   0.971   5.768   4.646 -1.0028 -0.1013 -0.6503
   55MOL    C2814176   1.289   5.704   5.018 -0.2428  0.2993 -0.1488
   55MOL    C2914177   1.224   5.587   5.105  0.0049  0.5245 -0.6660
   55MOL    O3014178   1.088   5.602   5.135  0.4530 -0.1534 -0.3294
   55MOL    C3114179   1.009   5.487   5.104  0.0202 -0.3214  0.1777
   55MOL    C3214180   0.856   5.520   5.112  0.8054  0.8633 -0.3962
   55MOL    H3314181   1.238   5.793   5.053  0.5273  1.2920 -1.5128
   55MOL    H3414182   1.396   5.711   5.037 -0.1624  0.6024 -0.7079
   55MOL    H3514183   1.249   5.496   5.051 -0.4648  0.9689 -1.6383
   55MOL    H3614184   1.043   5.406   5.168  2.0467 -0.1042 -0.5540
   55MOL    H3714185   1.029   5.453   5.002  1.5132 -1.6110  0.8800
   55MOL    H3814186   0.840   5.621   5.074 -0.3854  0.8333  0.0115
   55MOL    H3914187   0.789   5.454   5.058  1.3167  0.6493 -0.7697
   55MOL    H4014188   0.830   5.526   5.218 -1.6905 -1.9591 -0.7923
   55MOL    C4114189   1.292   5.583   5.241  0.2773 -0.1555  0.2841
   55MOL    C4214190   1.293   5.713   5.321 -0.2821  0.1679 -0.0414
   55MOL    O4314191   1.414   5.770   5.287 -0.4734  0.1725 -0.5979
   55MOL    C4414192   1.407   5.909   5.244 -0.1155 -0.6729 -0.3434
   55MOL    C4514193   1.532   5.925   5.165 -0.0836  0.5148  0.4208
   55MOL    H4614194   1.393   5.544   5.232  0.0429 -0.3615 -1.5404
   55MOL    H4714195   1.240   5.510   5.304  1.7985 -1.7222 -0.2412
   55MOL    H4814196   1.214   5.781   5.289  0.8128  1.2384 -0.5185
   55MOL    H4914197   1.407   5.974   5.331  0.2852 -0.2809 -0.6361
   55MOL    H5014198   1.321   5.928   5.179  0.4907  1.3173 -0.5956
   55MOL    H5114199   1.547   5.848   5.089 -1.0287  0.1055  0.6475
   55MOL    H5214200   1.549   6.026   5.127 -0.8575 -0.2912 -2.1768
   55MOL    H5314201   1.619   5.914   5.231 -0.2127 -1.9857  0.1990
   55MOL    C5414202   1.292   5.682   5.473 -0.0045 -0.2078 -0.0846
   55MOL    C5514203   1.159   5.665   5.551 -0.0674 -0.0135  0.3737
   55MOL    O5614204   1.186   5.641   5.686 -0.3874 -0.4423 -0.2171
   55MOL    C5714205   1.236   5.756   5.763 -0.4261 -0.5462 -0.1545
   55MOL    C5814206   1.245   5.716   5.919 -0.4584  0.5147  0.2931
   55MOL    H5914207   1.352   5.767   5.506 -0.5972  0.5648 -0.9580
   55MOL    H6014208   1.363   5.601   5.491 -0.5653 -0.3868  1.4507
   55MOL    H6114209   1.105   5.759   5.541  0.1996  0.2603  1.4178
   55MOL    H6214210   1.178   5.844   5.737  1.5358  1.1283  0.9040
   55MOL    H6314211   1.336   5.775   5.725 -0.1906  0.4499  0.9196
   55MOL    H6414212   1.266   5.802   5.983  1.9004  1.7461 -2.0094
   55MOL    H6514213   1.156   5.665   5.954  0.7598 -0.6779  1.7047
   55MOL    H6614214   1.313   5.633   5.941 -0.0996  0.6680 -0.2190
   55MOL    C6714215   1.063   5.551   5.498 -0.0429  0.8429  0.4460
   55MOL    C6814216   0.927   5.538   5.573 -0.6257 -0.4312 -0.3894
   55MOL    O6914217   0.851   5.443   5.517 -0.0132 -0.3503 -0.0011
   55MOL    C7014218   0.872   5.308   5.561 -0.2466 -0.1349  0.4798
   55MOL    C7114219   0.756   5.218   5.525 -0.4597  0.4209 -0.2363
   55MOL    H7214220   1.104   5.450   5.503 -0.3039  0.6744 -0.6885
   55MOL    H7314221   1.017   5.560   5.399 -1.7102  0.3434  1.1512
   55MOL    H7414222   0.941   5.515   5.678 -4.0530  0.0133  0.2297
   55MOL    H7514223   0.877   5.309   5.670  0.6016  1.3762  0.4557
   55MOL    H7614224   0.967   5.268   5.523 -0.3237  0.1921 -0.0712
   55MOL    H7714225   0.766   5.120   5.572  0.1260  1.7296  2.4810
   55MOL    H7814226   0.666   5.259   5.571  0.4617  2.1120  0.1189
   55MOL    H7914227   0.743   5.208   5.417 -0.7793  0.3342 -0.1896
   55MOL    C8014228   0.834   5.655   5.576  0.0166  0.3911 -0.1112
   55MOL    C8114229   0.756   5.675   5.708 -0.8572 -0.2333 -0.0686
   55MOL    O8214230   0.657   5.779   5.687  0.0322  0.1616 -0.2185
   55MOL    C8314231   0.526   5.722   5.648 -0.9105 -0.5303 -0.1830
   55MOL    C8414232   0.410   5.830   5.649 -0.2577  0.2776  0.7221
   55MOL    H8514233   0.752   5.645   5.504 -0.4739 -0.8652  0.6038
   55MOL    H8614234   0.891   5.743   5.548  0.0177  0.0383 -1.2301
   55MOL    H8714235   0.712   5.576   5.723  1.0023 -1.0446  0.1487
   55MOL    H8814236   0.507   5.635   5.711  5.0537 -1.0662  1.2315
   55MOL    H8914237   0.540   5.686   5.546  1.6171 -1.9703  0.6236
   55MOL    H9014238   0.402   5.879   5.746  0.1018 -0.8142  1.3164
   55MOL    H9114239   0.452   5.909   5.586 -2.4945  2.4574  1.8638
   55MOL    H9214240   0.312   5.796   5.616 -0.0511  0.8050 -0.4457
   55MOL    C9314241   0.849   5.725   5.816  0.2783 -0.2734 -0.5728
   55MOL    C9414242   0.777   5.759   5.956  0.3260 -0.2859  0.7250
   55MOL    O9514243   0.882   5.830   6.018 -0.6355 -0.0326  0.0453
   55MOL    C9614244   0.889   5.969   5.991 -0.4522  0.4374  0.5334
   55MOL    C9714245   1.032   6.017   5.993  0.4040  0.4972  0.1368
   55MOL    H9814246   0.887   5.814   5.765  0.2102  0.5362  0.7676
   55MOL    H9914247   0.932   5.657   5.837  0.2445 -0.3055 -0.5453
   55MOL   H10014248   0.695   5.828   5.932 -0.1267 -0.4595  1.7654
   55MOL   H10114249   0.837   6.036   6.060  0.7558  1.4026  0.5280
   55MOL   H10214250   0.849   5.991   5.892 -0.7782  0.2137  0.6140
   55MOL   H10314251   1.061   6.121   5.977 -0.1270  0.9221  1.7759
   55MOL   H10414252   1.058   6.017   6.099 -0.5761 -0.4410  0.3832
   55MOL   H10514253   1.091   5.942   5.941 -2.9789 -2.8419  0.9042
   55MOL   C10614254   0.730   5.637   6.038 -0.1292 -0.2741  0.0588
   55MOL   C10714255   0.632   5.672   6.161 -0.2386 -0.4397 -0.0878
   55MOL   O10814256   0.697   5.753   6.260 -0.2480 -0.3355 -0.3564
   55MOL   C10914257   0.616   5.851   6.327 -0.1271  0.9370  0.1981
   55MOL   C11014258   0.690   5.912   6.440 -0.4112  0.4203 -0.3019
   55MOL   H11114259   0.817   5.598   6.091  0.6060  3.0164  1.3868
   55MOL   H11214260   0.696   5.559   5.969  2.2234  0.3291 -1.8130
   55MOL   H11314261   0.544   5.727   6.127  0.3332  0.2590 -0.4521
   55MOL   H11414262   0.518   5.811   6.353  0.9217 -0.2091  2.4987
   55MOL   H11514263   0.591   5.921   6.247 -1.9048 -0.0059 -0.0967
   55MOL   H11614264   0.623   5.984   6.487  1.5546  1.5998  0.7341
   55MOL   H11714265   0.722   5.853   6.525 -1.4675 -2.8620 -2.0904
   55MOL   H11814266   0.777   5.970   6.410  0.3814 -1.4912 -1.7963
   55MOL   C11914267   0.577   5.557   6.232  0.6645 -0.6998  0.3068
   55MOL   C12014268   0.484   5.467   6.140 -0.7191  0.3284 -0.1057
   55MOL   O12114269   0.361   5.538   6.112  0.0395  0.5254  0.0875
   55MOL   C12214270   0.293   5.516   5.991 -0.0622  0.3358 -0.0296
   55MOL   C12314271   0.177   5.613   5.987 -0.1028 -0.2896  0.4113
   55MOL   H12414272   0.520   5.585   6.320 -2.9777  0.6052 -2.3805
   55MOL   H12514273   0.659   5.502   6.279  1.2223 -0.5284 -0.4562
   55MOL   H12614274   0.529   5.422   6.052  1.3261 -2.6086  2.3474
   55MOL   H12714275   0.265   5.412   5.976  1.2473  0.0352 -0.4055
   55MOL   H12814276   0.361   5.534   5.907 -0.7741 -0.8339 -0.8707
   55MOL   H12914277   0.106   5.592   6.067  0.2449 -1.2244  0.4842
   55MOL   H13014278   0.215   5.712   6.011 -0.0959  0.2198 -1.6560
   55MOL   H13114279   0.135   5.615   5.887  0.4729 -1.1054  0.1477
   55MOL   C13214280   0.441   5.335   6.215  0.1723  0.0697  0.2876
   55MOL   C13314281   0.545   5.221   6.216 -0.6498  0.1633  0.2146
   55MOL   O13414282   0.545   5.161   6.090  0.5389 -0.4984 -0.0112
   55MOL   C13514283   0.668   5.107   6.046 -0.8293  0.3893  0.1158
   55MOL   C13614284   0.653   5.033   5.910  0.4893 -0.2166 -0.0222
   55MOL   H13714285   0.350   5.301   6.165 -0.6415 -0.7592  2.2692
   55MOL   H13814286   0.407   5.365   6.315 -1.1795  2.2358 -0.7862
   55MOL   H13914287   0.645   5.263   6.231  0.2776 -2.2634  1.2495
   55MOL   H14014288   0.695   5.049   6.134 -1.7189 -1.5974 -0.8757
   55MOL   H14114289   0.742   5.187   6.041  1.5857 -1.7520  0.0970
   55MOL   H14214290   0.635   5.097   5.823 -2.0532  0.8949  1.2426
   55MOL   H14314291   0.756   5.001   5.896  0.7682  0.5440  0.2391
   55MOL   H14414292   0.579   4.954   5.905 -0.0602  0.3574 -1.1061
   55MOL   C14514293   0.515   5.115   6.323 -0.0064  0.6019 -0.4039
   55MOL   C14614294   0.580   5.138   6.454 -0.0423 -0.6881  0.4403
   55MOL   O14714295   0.720   5.133   6.429 -0.3856 -0.3222 -0.0395
   55MOL   C14814296   0.806   5.206   6.515  0.4242 -0.5849 -0.1451
   55MOL   C14914297   0.944   5.150   6.472 -0.0481  0.4938  0.6694
   55MOL   H15014298   0.540   5.019   6.279 -2.7293 -0.1559 -0.4043
   55MOL   H15114299   0.407   5.102   6.337  0.3643  0.6145  2.7263
   55MOL   H15214300   0.552   5.240   6.481 -1.4900 -0.8091 -0.5687
   55MOL   H15314301   0.782   5.180   6.618 -0.1789  0.5704  0.0063
   55MOL   H15414302   0.798   5.312   6.492  1.7828 -0.6027 -0.7936
   55MOL   H15514303   0.941   5.042   6.456  0.7135  0.6606 -0.7179
   55MOL   H15614304   0.990   5.191   6.382 -0.9757 -3.5478 -1.7713
   55MOL   H15714305   1.023   5.179   6.540 -0.1642  0.9156  0.6280
   55MOL   C15814306   0.542   5.033   6.560  0.2059 -0.1444 -0.0348
   55MOL   C15914307   0.426   5.077   6.663 -0.2983 -0.0108  0.1709
   55MOL   O16014308   0.499   5.186   6.731  0.1883  0.4793  0.0765
   55MOL   C16114309   0.430   5.310   6.733  0.1997 -0.3167 -0.9760
   55MOL   C16214310   0.519   5.423   6.789  0.4919  0.4126 -0.6317
   55MOL   H16314311   0.629   4.996   6.615  0.5993 -1.2733 -1.3782
   55MOL   H16414312   0.503   4.946   6.508 -3.0117  1.3175 -0.1842
   55MOL   H16514313   0.351   5.124   6.600 -0.5399 -1.7466 -0.8597
   55MOL   H16614314   0.335   5.304   6.786  1.3197 -1.1793  0.9921
   55MOL   H16714315   0.385   5.350   6.642 -1.5638 -0.2963 -0.1060
   55MOL   H16814316   0.550   5.385   6.887  0.0540  0.7068 -0.3759
   55MOL   H16914317   0.608   5.445   6.731  0.2084  1.7627 -0.5724
   55MOL   H17014318   0.465   5.515   6.814  0.2321  0.0451  0.1707
   55MOL   C17114319   0.377   4.976   6.769  0.4671  0.1797 -0.0367
   55MOL   C17214320   0.321   4.854   6.698  0.0202  0.3715 -0.3665
   55MOL   O17314321   0.211   4.901   6.626  0.1630 -0.6078  0.2847
   55MOL   C17414322   0.185   4.858   6.495  0.2571  0.5516  0.2819
   55MOL   C17514323   0.062   4.927   6.431  0.5431 -0.4135  0.0661
   55MOL   H17614324   0.302   5.021   6.833  0.4781  0.6668 -0.3643
   55MOL   H17714325   0.460   4.952   6.835  0.8745 -0.0690 -0.6293
   55MOL   H17814326   0.404   4.807   6.645  1.1973  2.2994 -0.2580
   55MOL   H17914327   0.171   4.749   6.492  0.2134  0.5903 -2.2107
   55MOL   H18014328   0.278   4.876   6.442  0.1904 -1.2785 -0.5099
   55MOL   H18114329   0.072   5.035   6.446  1.5346 -0.7753  2.1851
   55MOL   H18214330   0.053   4.901   6.326  2.4176 -2.5081  0.3881
   55MOL   H18314331   7.809   4.891   6.466  0.5376 -1.6013 -1.1732
   55MOL   C18414332   0.270   4.738   6.797 -0.3315 -0.4944  0.6009
   55MOL   C18514333   0.386   4.666   6.871  0.2422 -0.1730  0.0465
   55MOL   O18614334   0.478   4.624   6.769 -0.2946 -0.3578 -0.3635
   55MOL   C18714335   0.606   4.667   6.781 -1.0241  0.0758 -0.0831
   55MOL   C18814336   0.695   4.614   6.662 -0.9649 -0.1923 -0.2379
   55MOL   H18914337   0.206   4.670   6.742  1.0889  0.6274 -2.5964
   55MOL   H19014338   0.207   4.783   6.874 -2.3213 -0.6563 -0.8885
   55MOL   H19114339   0.429   4.740   6.938  2.0037 -0.3943 -0.7930
   55MOL   H19214340   0.646   4.631   6.875 -1.7274  0.0524  0.2076
   55MOL   H19314341   0.608   4.775   6.795 -1.3426  0.0785 -0.0539
   55MOL   H19414342   0.791   4.666   6.658 -1.3325  0.5013 -0.2831
   55MOL   H19514343   0.726   4.512   6.684 -1.0558 -0.0073  0.7934
   55MOL   H19614344   0.651   4.622   6.563 -0.2428 -2.6781 -0.7726
   55MOL   C19714345   0.330   4.541   6.943 -0.1425 -0.1955  0.5736
   55MOL   C19814346   0.423   4.447   7.026  0.2163 -0.1152  0.4644
   55MOL   O19914347   0.367   4.316   7.026 -0.1722  0.3270  0.3878
   55MOL   C20014348   0.418   4.227   6.920 -0.1819 -0.1505  0.2472
   55MOL   C20114349   0.363   4.255   6.779 -0.0631 -0.3909  0.0094
   55MOL   H20214350   0.271   4.488   6.868  0.9013  0.3324 -0.6416
   55MOL   H20314351   0.261   4.586   7.014  1.4154  3.3582 -0.0628
   55MOL   H20414352   0.520   4.442   6.977  0.3824  2.1689  0.4930
   55MOL   H20514353   0.383   4.127   6.945  1.2762 -0.8725 -0.5830
   55MOL   H20614354   0.526   4.217   6.920 -0.1774 -0.1300 -1.5612
   55MOL   H20714355   0.378   4.173   6.709  0.2494 -0.4773  0.1766
   55MOL   H20814356   0.258   4.286   6.784 -0.2383 -0.4123 -2.7762
   55MOL   H20914357   0.424   4.336   6.740  2.1482 -0.6299  2.8143
   55MOL   C21014358   0.451   4.489   7.171 -0.0411  0.9059  0.0672
   55MOL   C21114359   0.565   4.596   7.206 -0.5588  1.0860  0.3383
   55MOL   O21214360   0.689   4.541   7.189 -0.0766  0.1797  0.2026
   55MOL   C21314361   0.791   4.628   7.160 -0.3144  0.2076  0.6416
   55MOL   C21414362   0.922   4.548   7.132  0.1611  0.0748  0.3273
   55MOL   H21514363   0.491   4.399   7.218  1.3135  1.1169 -0.6491
   55MOL   H21614364   0.365   4.507   7.235 -0.9558 -0.0528 -0.8704
   55MOL   H21714365   0.554   4.681   7.140  2.7766  2.0375  0.9498
   55MOL   H21814366   0.807   4.690   7.248  1.9454  2.2786 -1.1690
   55MOL   H21914367   0.769   4.688   7.073  0.2779  0.4178  0.6339
   55MOL   H22014368   0.916   4.472   7.054  2.9237  1.5384 -1.4376
   55MOL   H22114369   1.010   4.613   7.120 -0.3438  0.3360 -2.3744
   55MOL   H22214370   0.951   4.490   7.219  2.0346 -0.6542 -0.7299
   55MOL   C22314371   0.560   4.647   7.355 -0.5341 -0.8570  0.0187
   55MOL   C22414372   0.438   4.722   7.399  0.3820  0.0857  0.0540
   55MOL   O22514373   0.433   4.842   7.324  0.2029  0.1571  0.0987
   55MOL   C22614374   0.299   4.889   7.305 -0.9791  0.6010  0.1228
   55MOL   C22714375   0.296   5.016   7.213  0.4268 -0.3987 -0.1141
   55MOL   H22814376   0.643   4.716   7.368 -0.4928 -0.7258 -0.9081
   55MOL   H22914377   0.586   4.571   7.429  0.0206 -0.6015  0.0915
   55MOL   H23014378   0.348   4.663   7.386  0.2770  0.4028 -0.6668
   55MOL   H23114379   0.253   4.895   7.404  1.8913 -0.3103  1.5548
   55MOL   H23214380   0.238   4.812   7.256 -1.0956 -0.5789  2.0675
   55MOL   H23314381   0.321   5.003   7.107  1.3493 -0.8380  0.1474
   55MOL   H23414382   0.191   5.044   7.218  0.7050  0.5383  0.6329
   55MOL   H23514383   0.376   5.085   7.238 -0.3099 -0.1970  1.7267
   55MOL   C23614384   0.450   4.754   7.545 -0.6472 -1.1098  0.2476
   55MOL   C23714385   0.389   4.663   7.652 -0.0226  0.2577 -0.2413
   55MOL   O23814386   0.245   4.686   7.672  0.3738 -0.7925  0.4022
   55MOL   C23914387   0.147   4.614   7.603 -0.0890  0.2033  0.1906
   55MOL   C24014388   0.008   4.677   7.635 -0.1313  0.1316 -0.6201
   55MOL   H24114389   0.415   4.855   7.568 -0.1649 -1.0281  0.6302
   55MOL   H24214390   0.556   4.757   7.569 -0.1413 -0.9153 -1.8827
   55MOL   H24314391   0.411   4.561   7.619  0.8173  0.4948 -0.4392
   55MOL   H24414392   0.135   4.513   7.643  0.5309  1.0172  2.5085
   55MOL   H24514393   0.168   4.612   7.497 -0.8831 -2.7772  0.0257
   55MOL   H24614394   7.765   4.626   7.592 -0.2916 -0.3559  0.2716
   55MOL   H24714395   7.835   4.693   7.742 -0.6474 -0.5886 -0.5903
   55MOL   H24814396   0.000   4.781   7.604 -3.0161  0.8537  2.2052
   55MOL   C24914397   0.466   4.688   7.781  0.2498  0.0474  0.2425
   55MOL   C25014398   0.412   4.604   0.053  0.0926  0.9482  0.4219
   55MOL   O25114399   0.465   4.467   0.044  0.2562  0.1763  0.4427
   55MOL   C25214400   0.416   4.377   0.150  0.2866 -0.1742  0.0047
   55MOL   C25314401   0.480   4.246   0.136 -0.5862 -0.2649 -0.5304
   55MOL   H25414402   0.445   4.790   7.814  1.0111  0.4285 -0.4521
   55MOL   H25514403   0.574   4.678   7.771  0.3436 -0.4965  1.7168
   55MOL   H25614404   0.439   4.643   0.152  1.0056  2.0012 -0.2310
   55MOL   H25714405   0.310   4.360   0.133 -0.1276  0.6299  1.6856
   55MOL   H25814406   0.436   4.424   0.247  0.0330  2.7949 -1.3172
   55MOL   H25914407   0.449   4.203   0.040 -3.8064  0.3307  0.1840
   55MOL   H26014408   0.589   4.235   0.142 -0.9649 -3.1198  3.0630
   55MOL   H26114409   0.433   4.173   0.202 -1.3450  0.3284 -0.4098
   55MOL   H26214410   0.304   4.607   0.069  0.1035 -2.3889  1.4501
   56MOL     C114411   1.827   7.527   4.344 -0.3075  0.7470 -0.0650
   56MOL     C214412   1.797   7.463   4.206 -0.1681 -0.0586  0.2129
   56MOL     O314413   1.851   7.547   4.102 -0.1463 -0.1689 -0.0141
   56MOL     C414414   1.965   7.491   4.036 -0.4027  0.0965 -0.1022
   56MOL     C514415   2.099   7.534   4.111 -0.4172 -0.0005 -0.1767
   56MOL     H614416   1.778   7.625   4.351  0.7740  1.2923 -0.0460
   56MOL     H714417   1.780   7.455   4.412  0.1365 -0.5616 -1.1339
   56MOL     H814418   1.838   7.363   4.201  0.1666 -0.0350  2.1442
   56MOL     H914419   1.967   7.538   3.937  0.5986 -0.5322 -0.3928
   56MOL    H1014420   1.947   7.386   4.015  0.0889 -0.7168  3.2387
   56MOL    H1114421   2.119   7.483   4.205  1.2888  1.1369  0.0964
   56MOL    H1214422   2.189   7.526   4.051  0.7993 -0.3471  1.6655
   56MOL    H1314423   2.100   7.638   4.143  0.7887 -0.1441  0.2880
   56MOL    H1414424   1.932   7.537   4.369 -0.3540 -0.5911  0.6930
   56MOL    C1514425   1.649   7.453   4.165  0.5193 -0.2955  0.0557
   56MOL    C1614426   1.547   7.375   4.251 -0.4666 -0.2046  0.1926
   56MOL    O1714427   1.599   7.243   4.255  0.8609  0.8570 -0.2091
   56MOL    C1814428   1.583   7.174   4.380 -0.3206 -0.5164 -0.7226
   56MOL    C1914429   1.637   7.031   4.362  0.3461  0.1540  0.0355
   56MOL    H2014430   1.643   7.419   4.061  0.0027 -1.1252  0.3534
   56MOL    H2114431   1.601   7.551   4.161 -0.9984 -1.1087 -5.1328
   56MOL    H2214432   1.538   7.415   4.353  0.4783 -0.2686  0.3107
   56MOL    H2314433   1.482   7.180   4.421  0.0831  0.8939  0.1014
   56MOL    H2414434   1.647   7.232   4.446 -2.3476  0.2450  0.6065
   56MOL    H2514435   1.605   6.976   4.450 -0.6727  1.4864  0.5062
   56MOL    H2614436   1.745   7.030   4.372  0.2053  1.1938  1.8764
   56MOL    H2714437   1.589   6.991   4.272  0.9605 -2.1527  0.6903
   56MOL    C2814438   1.410   7.380   4.192  0.1522  0.0288 -0.1227
   56MOL    C2914439   1.301   7.304   4.270 -1.0245  0.0603  0.1986
   56MOL    O3014440   1.174   7.315   4.204 -0.2592 -0.2077  0.3753
   56MOL    C3114441   1.167   7.302   4.061 -0.7710 -1.0176 -0.8500
   56MOL    C3214442   1.026   7.293   4.007 -0.6299 -0.6208  0.9527
   56MOL    H3314443   1.416   7.332   4.094 -1.0209 -1.5433  0.5482
   56MOL    H3414444   1.389   7.486   4.183 -0.5486 -0.0469  0.5593
   56MOL    H3514445   1.332   7.200   4.277  1.6554  0.7741 -0.2630
   56MOL    H3614446   1.224   7.212   4.036 -2.7190 -2.2334 -1.0655
   56MOL    H3714447   1.220   7.389   4.022 -0.0759 -1.6697 -1.3822
   56MOL    H3814448   0.976   7.201   4.037 -2.2527 -0.2836 -0.6334
   56MOL    H3914449   0.974   7.387   4.026 -0.8681  0.1822 -3.1982
   56MOL    H4014450   1.040   7.290   3.899  1.1317 -0.1426  1.1473
   56MOL    C4114451   1.273   7.364   4.413  0.8330 -0.0543  0.7363
   56MOL    C4214452   1.227   7.512   4.407 -0.4120 -0.6687 -1.1941
   56MOL    O4314453   1.345   7.595   4.390 -0.1439 -0.1159  0.9228
   56MOL    C4414454   1.312   7.714   4.336 -0.4096 -0.2154 -0.0028
   56MOL    C4514455   1.421   7.776   4.257  0.0336 -0.1190 -0.2742
   56MOL    H4614456   1.352   7.341   4.484 -0.6522  0.3608  2.5830
   56MOL    H4714457   1.194   7.298   4.448  1.1892 -0.6512  0.4048
   56MOL    H4814458   1.154   7.521   4.326 -2.0351  0.3484  0.3347
   56MOL    H4914459   1.266   7.768   4.419  1.6628  0.3763  0.7784
   56MOL    H5014460   1.238   7.703   4.256  0.9442  0.5955 -1.3860
   56MOL    H5114461   1.378   0.025   4.219  1.2491  1.0796  1.2046
   56MOL    H5214462   1.497   7.809   4.329 -0.9332  0.8191  0.3346
   56MOL    H5314463   1.457   7.720   4.171 -0.4324 -0.0650 -0.5069
   56MOL    C5414464   1.160   7.565   4.536 -0.1524 -0.4821  0.3752
   56MOL    C5514465   1.028   7.493   4.569  0.0737  0.0995 -0.2917
   56MOL    O5614466   0.926   7.499   4.475  0.3287 -0.0716 -0.1472
   56MOL    C5714467   0.882   7.376   4.423  0.4465 -0.0751 -0.4220
   56MOL    C5814468   0.815   7.410   4.293 -0.3482  0.1849 -0.1159
   56MOL    H5914469   1.131   7.670   4.532 -1.0250 -0.7503 -0.2355
   56MOL    H6014470   1.233   7.563   4.618  1.2676  3.4818 -0.6668
   56MOL    H6114471   1.050   7.387   4.577 -0.7436 -0.0750 -0.2808
   56MOL    H6214472   0.826   7.312   4.492 -0.6422 -0.2652 -1.4605
   56MOL    H6314473   0.974   7.324   4.399  1.3124  1.1175  0.2323
   56MOL    H6414474   0.724   7.469   4.299 -1.7246 -1.6227 -2.6318
   56MOL    H6514475   0.880   7.467   4.226 -0.5756 -0.0274 -0.5174
   56MOL    H6614476   0.783   7.321   4.240 -0.2133 -0.1844  0.4195
   56MOL    C6714477   0.952   7.540   4.701  0.3226 -0.2468 -0.0579
   56MOL    C6814478   1.030   7.502   4.834  0.5918  0.0578 -0.2037
   56MOL    O6914479   0.961   7.390   4.899 -0.2114  0.4844  0.3569
   56MOL    C7014480   0.929   7.269   4.820  0.6006 -0.0264  0.5884
   56MOL    C7114481   1.045   7.164   4.840 -0.3965 -0.6344 -0.1764
   56MOL    H7214482   0.853   7.495   4.705  0.4467 -0.4575  0.5893
   56MOL    H7314483   0.944   7.649   4.711 -1.4962 -0.2991 -0.7645
   56MOL    H7414484   1.132   7.465   4.818  1.1437  1.9505 -1.2607
   56MOL    H7514485   0.913   7.295   4.715 -0.4522 -1.7387  0.2994
   56MOL    H7614486   0.837   7.226   4.861 -0.1397  1.2673  0.2966
   56MOL    H7714487   1.039   7.138   4.946  1.9716  0.5208  0.2969
   56MOL    H7814488   1.024   7.074   4.782 -1.2278 -0.3629 -0.2923
   56MOL    H7914489   1.143   7.206   4.818  0.1449 -1.5737  0.3732
   56MOL    C8014490   1.029   7.619   4.935 -0.1610  0.5429  0.5968
   56MOL    C8114491   1.145   7.722   4.906  0.1713 -0.3181  0.2195
   56MOL    O8214492   1.267   7.649   4.903 -0.7136  0.1550  0.1799
   56MOL    C8314493   1.376   7.707   4.824 -0.2775  0.2129 -0.7317
   56MOL    C8414494   1.491   7.605   4.806 -0.6698 -0.2558  0.4463
   56MOL    H8514495   1.046   7.575   5.033  0.2933  0.8526  0.6512
   56MOL    H8614496   0.936   7.674   4.948 -0.9799 -0.3196 -1.2652
   56MOL    H8714497   1.132   7.775   4.811  0.2489  0.7123  0.7726
   56MOL    H8814498   1.429   7.795   4.860 -0.5817 -0.5236  1.5532
   56MOL    H8914499   1.345   7.726   4.721  3.0218 -1.6910 -2.1554
   56MOL    H9014500   1.584   7.649   4.769 -1.1548  0.0758 -0.4079
   56MOL    H9114501   1.514   7.576   4.908 -0.1464  1.9108  0.9735
   56MOL    H9214502   1.459   7.522   4.743 -2.1367  1.4703 -1.1500
   56MOL    C9314503   1.143   7.835   5.003  0.3907  0.2576 -0.1677
   56MOL    C9414504   1.031   0.096   4.990 -0.1246  0.0786  0.8873
   56MOL    O9514505   1.054   0.148   4.856  0.0187 -0.0057  0.1622
   56MOL    C9614506   0.950   0.209   4.789  0.5363  0.1722 -0.6333
   56MOL    C9714507   0.993   0.265   4.652  0.5784 -0.1789  0.4775
   56MOL    H9814508   1.235   0.050   5.000 -0.3355  1.3584 -1.3056
   56MOL    H9914509   1.135   7.797   5.105 -0.3875  1.5020  0.2446
   56MOL   H10014510   0.934   0.047   4.979 -0.8722  1.2278  2.1851
   56MOL   H10114511   0.914   0.295   4.846 -0.6236  0.7756 -2.2559
   56MOL   H10214512   0.873   0.133   4.776  0.2883  0.6311 -1.8905
   56MOL   H10314513   1.076   0.333   4.667  1.6603 -0.8141 -2.3230
   56MOL   H10414514   1.026   0.186   4.586 -0.9412 -1.3489  1.0800
   56MOL   H10514515   0.909   0.327   4.618 -0.2616 -0.3098  2.2581
   56MOL   C10614516   1.023   0.188   5.114 -0.1204  0.2558  0.5490
   56MOL   C10714517   0.987   0.123   5.246 -0.8452 -0.3074  0.3826
   56MOL   O10814518   0.883   0.035   5.216  0.0282 -0.2673  0.4096
   56MOL   C10914519   0.860   7.782   5.316  0.5642  0.3828 -0.4183
   56MOL   C11014520   0.763   7.682   5.251  0.2159 -0.2561 -0.1677
   56MOL   H11114521   0.947   0.262   5.090  1.6604  2.5368  1.8071
   56MOL   H11214522   1.114   0.246   5.128 -0.0904  0.2194  0.5044
   56MOL   H11314523   1.070   0.063   5.284  0.0898 -0.5796 -2.0138
   56MOL   H11414524   0.818   7.829   5.405 -0.2595  1.6770 -1.4691
   56MOL   H11514525   0.948   7.724   5.341  0.0977  0.1215  0.6410
   56MOL   H11614526   0.807   7.638   5.161 -1.5437 -2.6205  0.0763
   56MOL   H11714527   0.748   7.589   5.306 -1.9755  0.6728  0.8510
   56MOL   H11814528   0.668   7.728   5.225 -0.2283 -0.7628  0.5460
   56MOL   C11914529   0.947   0.226   5.350  0.2027  0.8146  0.4468
   56MOL   C12014530   1.066   0.304   5.407  0.6346 -0.9257  0.4463
   56MOL   O12114531   1.162   0.210   5.457 -0.0575  0.2701  0.1074
   56MOL   C12214532   1.295   0.253   5.448 -0.5735  0.1797  0.1259
   56MOL   C12314533   1.381   0.123   5.417  0.0709  0.0759  0.2794
   56MOL   H12414534   0.902   0.171   5.432  1.6853  1.3340  1.6130
   56MOL   H12514535   0.869   0.293   5.313 -1.3372 -1.2847 -0.2078
   56MOL   H12614536   1.113   0.364   5.329  2.6291 -1.8500  0.8903
   56MOL   H12714537   1.329   0.304   5.538 -0.7991 -0.9707  0.8787
   56MOL   H12814538   1.320   0.323   5.368  0.8482  0.2673  0.6238
   56MOL   H12914539   1.376   0.055   5.502  2.3980  1.3050  1.4646
   56MOL   H13014540   1.327   0.084   5.331  0.0700  0.5791  0.0520
   56MOL   H13114541   1.482   0.159   5.395  0.1673  0.4966  1.3797
   56MOL   C13214542   1.028   0.401   5.532  0.7300 -0.7543  0.3260
   56MOL   C13314543   0.960   0.540   5.504 -0.6753  0.1506  0.2199
   56MOL   O13414544   0.936   0.612   5.627 -0.7303 -0.6690 -0.8327
   56MOL   C13514545   1.043   0.700   5.665 -0.3874 -0.0537 -0.2898
   56MOL   C13614546   0.973   0.803   5.749  0.4147  0.1926 -0.1069
   56MOL   H13714547   1.125   0.419   5.580  1.9821 -1.3118 -1.9526
   56MOL   H13814548   0.972   0.345   5.607  0.8512 -2.1680 -0.6124
   56MOL   H13914549   1.027   0.589   5.433  1.9457 -0.3175  2.2778
   56MOL   H14014550   1.088   0.745   5.577 -1.8091 -1.2760 -1.6735
   56MOL   H14114551   1.122   0.646   5.716 -0.4748  0.6735  0.6241
   56MOL   H14214552   0.912   0.868   5.685  1.3472  0.9312 -0.2685
   56MOL   H14314553   0.903   0.752   5.814  0.2527  0.0131 -0.4213
   56MOL   H14414554   1.039   0.869   5.806  0.2761  0.8780 -0.7214
   56MOL   C14514555   0.817   0.531   5.445 -0.3672  0.4364  0.0314
   56MOL   C14614556   0.695   0.470   5.525  0.1138 -0.4063  0.9001
   56MOL   O14714557   0.704   0.333   5.545 -0.2177  0.9721  0.1668
   56MOL   C14814558   0.669   0.299   5.677 -0.2683  0.1237  0.2060
   56MOL   C14914559   0.617   0.154   5.677 -0.5003 -0.1180  0.1593
   56MOL   H15014560   0.816   0.486   5.346  0.0237  1.1901 -0.3209
   56MOL   H15114561   0.785   0.634   5.427  0.6593  1.2969  2.8350
   56MOL   H15214562   0.688   0.523   5.620 -0.1101 -0.4250  0.8938
   56MOL   H15314563   0.593   0.362   5.723 -0.4330 -0.0939  0.2372
   56MOL   H15414564   0.753   0.312   5.744 -1.2508  0.9347  1.3011
   56MOL   H15514565   0.687   0.092   5.622 -1.8644  0.5801 -2.4708
   56MOL   H15614566   0.598   0.128   5.781 -1.6821 -2.2648 -0.5653
   56MOL   H15714567   0.515   0.141   5.640  0.4137 -3.4104 -1.3861
   56MOL   C15814568   0.562   0.474   5.453 -0.4267  0.3947  0.4714
   56MOL   C15914569   0.509   0.616   5.434  0.2553 -0.2715  0.6129
   56MOL   O16014570   0.480   0.660   5.558  0.0859  0.1959 -0.0518
   56MOL   C16114571   0.530   0.793   5.589  1.5128  0.0609  0.6681
   56MOL   C16214572   0.512   0.823   5.736  0.6584  0.0403  0.0734
   56MOL   H16314573   0.481   0.417   5.498 -0.1561 -1.1669 -0.9801
   56MOL   H16414574   0.573   0.421   5.359 -0.2738 -2.2198  1.9290
   56MOL   H16514575   0.576   0.682   5.379  0.1834 -0.5354  0.2053
   56MOL   H16614576   0.472   0.869   5.536  2.9134 -1.5474 -3.4002
   56MOL   H16714577   0.633   0.816   5.563  0.4449  3.4835 -0.8785
   56MOL   H16814578   0.572   0.767   5.808 -0.5391  0.9993  1.8541
   56MOL   H16914579   0.553   0.921   5.760  3.8348 -1.0245 -0.7191
   56MOL   H17014580   0.406   0.813   5.759  0.9862 -0.7997  1.2694
   56MOL   C17114581   0.376   0.614   5.352  0.1220 -0.0114  0.2356
   56MOL   C17214582   0.388   0.624   5.202  0.8142  0.9107 -0.0954
   56MOL   O17314583   0.443   0.748   5.165 -0.0098 -0.2659  0.1493
   56MOL   C17414584   0.513   0.759   5.049 -0.2060 -0.3659  0.0835
   56MOL   C17514585   0.529   0.907   5.025  0.2427  0.0900  0.3219
   56MOL   H17614586   0.309   0.690   5.393 -1.4057 -2.4429  2.4533
   56MOL   H17714587   0.320   0.526   5.384 -1.6427  0.8293 -0.4957
   56MOL   H17814588   0.449   0.540   5.171  0.1031  0.3983 -0.1071
   56MOL   H17914589   0.453   0.722   4.965 -2.2164  0.3345  1.1620
   56MOL   H18014590   0.611   0.713   5.049  0.4121  0.9199 -0.0929
   56MOL   H18114591   0.580   0.903   4.928  2.6016  0.6401  1.5012
   56MOL   H18214592   0.440   0.969   5.014 -0.4218 -1.3606 -3.1165
   56MOL   H18314593   0.598   0.942   5.102  0.3517  0.4475  0.0651
   56MOL   C18414594   0.264   0.596   5.123 -0.2461  0.2171  0.3941
   56MOL   C18514595   0.146   0.688   5.137 -0.8081  0.3893  1.0257
   56MOL   O18614596   0.033   0.608   5.148  0.4364  0.0516  0.2699
   56MOL   C18714597   7.840   0.567   5.278 -0.4188  0.0663  0.3903
   56MOL   C18814598   7.751   0.442   5.259 -0.3024  0.8115 -0.3856
   56MOL   H18914599   0.224   0.499   5.153 -0.0863 -0.1953 -0.6871
   56MOL   H19014600   0.295   0.589   5.019 -1.9125  1.1850 -0.1889
   56MOL   H19114601   0.155   0.745   5.229  0.8205  0.2905  0.9512
   56MOL   H19214602   7.790   0.655   5.317  0.3433  0.4755  0.4480
   56MOL   H19314603   0.089   0.538   5.328 -1.5337  0.2921  2.6552
   56MOL   H19414604   7.810   0.359   5.219 -2.6949 -0.8195 -0.6900
   56MOL   H19514605   7.711   0.406   5.354 -2.0889 -0.7014 -1.6758
   56MOL   H19614606   7.667   0.453   5.191  1.3403 -2.2184 -3.0586
   56MOL   C19714607   0.127   0.771   5.009  0.7761 -0.8960  0.1637
   56MOL   C19814608   0.028   0.888   5.021 -0.7081  0.8567  0.6027
   56MOL   O19914609   0.027   0.956   4.899  0.3688 -0.3522 -0.2157
   56MOL   C20014610   7.758   0.920   4.809  0.0319  0.2887 -0.7550
   56MOL   C20114611   7.796   0.980   4.674 -0.7487 -0.5828  0.8218
   56MOL   H20214612   0.103   0.702   4.928 -1.4321 -2.5898  2.1984
   56MOL   H20314613   0.229   0.806   4.993  1.1993 -2.2022 -0.0479
   56MOL   H20414614   7.766   0.863   5.029 -0.1416 -1.8147  0.3418
   56MOL   H20514615   7.668   0.974   4.839 -0.7915 -2.3506  1.7771
   56MOL   H20614616   7.738   0.813   4.797 -3.0844  0.7538 -0.0556
   56MOL   H20714617   7.714   0.980   4.602 -0.7452 -0.4841  0.8177
   56MOL   H20814618   7.824   1.085   4.684 -0.2312 -0.4000 -2.1392
   56MOL   H20914619   0.030   0.924   4.622  0.9503  3.2468 -0.9954
   56MOL   C21014620   0.071   0.982   5.136 -0.1104 -0.0169  0.1065
   56MOL   C21114621   7.836   1.126   5.141 -0.3640 -0.4169 -0.0312
   56MOL   O21214622   0.031   1.188   5.262  0.1683  0.2726  0.2714
   56MOL   C21314623   0.142   1.284   5.253 -0.1262 -0.0108 -0.4207
   56MOL   C21414624   0.171   1.347   5.387 -0.3090  0.3753 -0.3560
   56MOL   H21514625   0.173   1.019   5.132  0.3722 -1.4331 -0.8332
   56MOL   H21614626   0.047   0.930   5.229 -2.2174  0.5552 -0.0773
   56MOL   H21714627   0.021   1.178   5.049 -1.8741 -0.3120 -0.4529
   56MOL   H21814628   0.128   1.359   5.175  1.4297 -0.9714 -1.6490
   56MOL   H21914629   0.239   1.237   5.233  0.9373  2.2198 -0.6317
   56MOL   H22014630   0.275   1.379   5.391  0.0208 -0.6404 -0.7083
   56MOL   H22114631   0.122   1.439   5.421  0.2394 -0.4129  2.7186
   56MOL   H22214632   0.165   1.281   5.473  1.0102  1.6323  0.7303
   56MOL   C22314633   7.677   1.122   5.139  0.5203  0.2077 -0.1162
   56MOL   C22414634   7.614   1.256   5.111 -0.5539 -0.4118 -0.6821
   56MOL   O22514635   7.470   1.262   5.150  0.0219 -0.0364 -0.3512
   56MOL   C22614636   7.453   1.270   5.289  0.7343 -0.0368  0.3614
   56MOL   C22714637   7.339   1.375   5.310 -0.2936 -0.0476 -0.0945
   56MOL   H22814638   7.652   1.096   5.242 -0.4166  0.9216 -0.1616
   56MOL   H22914639   7.640   1.047   5.069 -1.8622  1.1601  0.0768
   56MOL   H23014640   7.668   1.335   5.161 -0.4549 -0.9657  0.0894
   56MOL   H23114641   7.544   1.294   5.346  1.0091 -1.3134  0.4699
   56MOL   H23214642   7.432   1.168   5.320 -0.9401  0.1455 -0.1306
   56MOL   H23314643   7.245   1.337   5.271  0.2070 -0.4882 -0.8832
   56MOL   H23414644   7.340   1.391   5.418  2.1261  2.1434 -0.3802
   56MOL   H23514645   7.360   1.478   5.280 -1.6286 -0.5374 -2.7722
   56MOL   C23614646   7.607   1.281   4.959  0.0939 -0.8740  0.0120
   56MOL   C23714647   7.505   1.396   4.916  0.4434 -0.0657  0.4709
   56MOL   O23814648   7.527   1.430   4.778  0.1804  0.0553  0.6341
   56MOL   C23914649   7.479   1.330   4.690 -0.6248 -0.0643 -0.2286
   56MOL   C24014650   7.498   1.385   4.550  0.6087  0.5302 -0.3386
   56MOL   H24114651   7.570   1.187   4.918 -2.3830  0.2405 -0.3977
   56MOL   H24214652   7.704   1.297   4.912  0.3994 -4.0215 -0.5330
   56MOL   H24314653   7.403   1.362   4.934  0.5038 -1.8677 -2.3372
   56MOL   H24414654   7.374   1.308   4.710 -0.8743  1.1035 -0.2349
   56MOL   H24514655   7.531   1.234   4.698  0.0630  0.4709  2.2230
   56MOL   H24614656   7.602   1.414   4.542  0.2731  2.0652  0.6085
   56MOL   H24714657   7.471   1.317   4.469  0.3143 -2.7054  2.3102
   56MOL   H24814658   7.432   1.472   4.551 -0.5330 -0.2874 -1.7887
   56MOL   C24914659   7.542   1.528   4.990 -0.2535 -0.0883  0.3974
   56MOL   C25014660   7.690   1.571   4.988  0.4039  0.0851  0.6803
   56MOL   O25114661   7.720   1.690   5.058  0.3111  0.7380  0.1424
   56MOL   C25214662   0.002   1.752   5.038 -0.0593 -0.2933  0.4821
   56MOL   C25314663   0.013   1.850   5.157 -0.9280  0.5568  0.1643
   56MOL   H25414664   7.502   1.536   5.090  2.2013  0.0202  1.4132
   56MOL   H25514665   7.489   1.607   4.937  3.3289  1.9542 -0.2922
   56MOL   H25614666   7.760   1.496   5.023 -0.0266 -0.6927 -0.1097
   56MOL   H25714667   7.840   1.815   4.949 -1.5486  0.4377  1.0886
   56MOL   H25814668   0.087   1.685   5.027  0.2503  0.3874 -1.4274
   56MOL   H25914669   0.070   1.804   5.238  0.5581 -1.0153 -1.7269
   56MOL   H26014670   0.064   1.944   5.137 -0.2151  0.4669  1.5499
   56MOL   H26114671   7.757   1.855   5.201 -0.5332 -1.1337  1.3066
   56MOL   H26214672   7.715   1.574   4.882 -2.9568 -0.5230 -0.1764
   57MOL     C114673   5.271   6.702   6.849  0.1333  0.0086  0.0399
   57MOL     C214674   5.174   6.673   6.729  0.2752  0.7434  0.1434
   57MOL     O314675   5.210   6.536   6.696 -1.1667  0.0998 -0.6066
   57MOL     C414676   5.105   6.453   6.651 -0.1091 -1.0494 -0.1307
   57MOL     C514677   5.151   6.307   6.665  0.0413 -0.0968 -0.1290
   57MOL     H614678   5.276   6.622   6.922  0.8123 -0.5090 -0.5583
   57MOL     H714679   5.374   6.717   6.817 -0.8278  3.8504 -1.5481
   57MOL     H814680   5.079   6.682   6.781 -0.3533 -2.7029 -0.3050
   57MOL     H914681   5.076   6.476   6.548 -0.1543  3.5610  0.8142
   57MOL    H1014682   5.013   6.471   6.707  0.1253 -2.3955  0.7312
   57MOL    H1114683   5.157   6.286   6.772 -0.9339  0.6693  0.0805
   57MOL    H1214684   5.069   6.255   6.615  0.3148 -1.1908  0.5427
   57MOL    H1314685   5.240   6.273   6.613  0.2887 -1.5510  1.2139
   57MOL    H1414686   5.240   6.790   6.905 -1.1006  0.4647 -1.3373
   57MOL    C1514687   5.205   6.767   6.618  0.4141 -0.2695  0.3760
   57MOL    C1614688   5.083   6.789   6.519  0.2609 -0.0314 -0.3421
   57MOL    O1714689   5.122   6.901   6.436  0.0541  0.1856  0.4039
   57MOL    C1814690   5.173   6.843   6.310 -0.4632  0.6485 -0.1831
   57MOL    C1914691   5.196   6.961   6.213  0.1946  0.4291 -0.1188
   57MOL    H2014692   5.296   6.734   6.567 -0.2254 -2.5263  0.6257
   57MOL    H2114693   5.225   6.861   6.669 -0.7984  0.1371  0.1001
   57MOL    H2214694   5.074   6.694   6.465  2.3016 -0.8291  0.6759
   57MOL    H2314695   5.097   6.779   6.264  1.1608 -0.7716 -0.9384
   57MOL    H2414696   5.268   6.790   6.311 -1.3055 -0.9214 -1.1019
   57MOL    H2514697   5.111   7.023   6.184  0.7254  0.3356 -1.9875
   57MOL    H2614698   5.231   6.921   6.117  1.2195 -0.0933  0.4633
   57MOL    H2714699   5.270   7.027   6.257 -0.6886  0.3217  1.5723
   57MOL    C2814700   4.933   6.815   6.568  0.0565 -0.0334  0.1128
   57MOL    C2914701   4.831   6.795   6.461 -0.2561 -0.2033 -0.3708
   57MOL    O3014702   4.719   6.876   6.495  0.6915  0.2186 -0.3411
   57MOL    C3114703   4.712   7.007   6.444 -0.7619 -0.1344 -0.4111
   57MOL    C3214704   4.628   7.102   6.526 -0.5633  0.1585 -0.2045
   57MOL    H3314705   4.940   6.916   6.609 -0.2262 -0.4079  1.0943
   57MOL    H3414706   4.894   6.744   6.641 -1.7827  0.4341 -0.3903
   57MOL    H3514707   4.861   6.836   6.365  1.0206 -0.2715 -0.0120
   57MOL    H3614708   4.687   7.010   6.338  1.5561  1.0197 -0.9608
   57MOL    H3714709   4.817   7.038   6.445 -0.4949 -1.0294  0.2026
   57MOL    H3814710   4.615   7.197   6.475 -0.7793  1.3000  1.9246
   57MOL    H3914711   4.528   7.062   6.548 -0.8616  2.6148  3.4359
   57MOL    H4014712   4.664   7.130   6.625  1.1808 -0.2270 -0.7231
   57MOL    C4114713   4.783   6.647   6.448  0.8319 -0.1048 -0.3643
   57MOL    C4214714   4.745   6.611   6.302 -0.5450  0.5594 -0.0240
   57MOL    O4314715   4.866   6.601   6.223 -0.0921 -0.9092 -0.2283
   57MOL    C4414716   4.928   6.474   6.220  0.5229 -0.5975  0.3462
   57MOL    C4514717   5.023   6.462   6.097 -0.2335 -0.6047  0.3450
   57MOL    H4614718   4.696   6.623   6.509  0.0599 -0.1393 -1.4607
   57MOL    H4714719   4.866   6.583   6.479 -0.6984 -1.8183  0.3114
   57MOL    H4814720   4.692   6.516   6.294  1.0757 -0.5734  2.0435
   57MOL    H4914721   4.842   6.410   6.203  1.1091 -0.5936 -2.8604
   57MOL    H5014722   4.973   6.449   6.316  0.7435  0.0704  0.4184
   57MOL    H5114723   4.976   6.511   6.012  0.2517  0.0999  0.4812
   57MOL    H5214724   5.108   6.526   6.120 -0.7874  0.6784 -1.0350
   57MOL    H5314725   5.048   6.356   6.089  0.4031 -0.5175  1.1779
   57MOL    C5414726   4.664   6.718   6.218 -0.3437  0.0606 -0.0863
   57MOL    C5514727   4.609   6.661   6.085  0.0833  0.0296  0.6883
   57MOL    O5614728   4.570   6.757   5.994 -0.1399 -0.7214 -0.1666
   57MOL    C5714729   4.670   6.795   5.900 -0.3057 -0.4760  0.1965
   57MOL    C5814730   4.714   6.692   5.791  0.1997 -0.3115 -0.0468
   57MOL    H5914731   4.721   6.811   6.212  2.1691 -1.3934  0.5517
   57MOL    H6014732   4.581   6.752   6.281  1.3206 -1.3477  2.9908
   57MOL    H6114733   4.677   6.595   6.032 -0.5163  0.6029 -0.8328
   57MOL    H6214734   4.762   6.815   5.955  0.5350  0.5690 -1.5585
   57MOL    H6314735   4.645   6.885   5.844  0.8474 -0.3199 -0.0930
   57MOL    H6414736   4.778   6.744   5.720 -0.2357  1.1032  0.5564
   57MOL    H6514737   4.759   6.602   5.832 -0.1977  0.0074  1.1125
   57MOL    H6614738   4.628   6.659   5.733 -0.3546 -2.1930  1.7995
   57MOL    C6714739   4.481   6.578   6.115 -0.0711  0.2651  0.1338
   57MOL    C6814740   4.409   6.506   5.993  0.0063 -0.8975 -0.5338
   57MOL    O6914741   4.288   6.573   5.961 -0.3975  0.2571  0.0871
   57MOL    C7014742   4.303   6.680   5.873 -0.0150 -0.4215 -0.2607
   57MOL    C7114743   4.165   6.744   5.852 -0.0078  0.9622 -0.1926
   57MOL    H7214744   4.415   6.644   6.170  0.0011 -1.4242  2.3181
   57MOL    H7314745   4.514   6.506   6.190  1.3611  0.0269 -0.7135
   57MOL    H7414746   4.480   6.500   5.911  0.1910  2.4070 -0.6971
   57MOL    H7514747   4.354   6.637   5.787  2.4947 -0.3752  1.1501
   57MOL    H7614748   4.359   6.760   5.923  0.3897 -1.4311  0.9275
   57MOL    H7714749   4.182   6.831   5.789  1.9761 -0.0461 -1.1088
   57MOL    H7814750   4.088   6.680   5.809  2.0767 -2.3357  0.7935
   57MOL    H7914751   4.140   6.781   5.951  2.5045 -0.3329  0.9855
   57MOL    C8014752   4.373   6.357   6.023  0.0002 -0.2449  0.1069
   57MOL    C8114753   4.493   6.257   6.022 -0.0350  0.1514  0.4658
   57MOL    O8214754   4.538   6.262   5.888  0.3516 -0.5049  0.4249
   57MOL    C8314755   4.673   6.229   5.873  0.0837  0.4323 -0.4421
   57MOL    C8414756   4.718   6.259   5.737  1.0132 -0.1249  0.3304
   57MOL    H8514757   4.297   6.320   5.954  0.3938  1.9744 -1.5553
   57MOL    H8614758   4.318   6.347   6.116 -0.1149  1.7423  0.2751
   57MOL    H8714759   4.567   6.292   6.095  0.7363  1.8954 -1.1004
   57MOL    H8814760   4.696   6.124   5.895 -2.1295  0.3602  1.8195
   57MOL    H8914761   4.737   6.296   5.930 -2.2157  1.1637  1.3499
   57MOL    H9014762   4.690   6.359   5.704 -2.5371 -1.0679  0.2426
   57MOL    H9114763   4.825   6.246   5.724  0.7472 -1.0930 -0.9971
   57MOL    H9214764   4.664   6.197   5.665  2.9559 -1.2846 -0.1624
   57MOL    C9314765   4.463   6.105   6.058  0.0588  0.1373  0.9073
   57MOL    C9414766   4.427   6.071   6.209  0.1129  0.6740 -0.0082
   57MOL    O9514767   4.316   6.139   6.256  0.2087  1.2390 -0.4854
   57MOL    C9614768   4.189   6.098   6.219 -0.0845  0.0894 -0.2293
   57MOL    C9714769   4.093   6.195   6.285 -0.0577 -0.4380 -0.5281
   57MOL    H9814770   4.531   6.030   6.019 -2.8201 -1.6010 -1.0437
   57MOL    H9914771   4.378   6.071   5.999 -0.0546 -0.1410  1.2300
   57MOL   H10014772   4.410   5.963   6.210 -0.3554  0.7390 -0.6331
   57MOL   H10114773   4.166   5.998   6.255  0.2864  0.0477 -0.1122
   57MOL   H10214774   4.175   6.110   6.112  0.3965  0.7724 -0.2149
   57MOL   H10314775   4.086   6.294   6.240 -0.5628 -0.0205  0.4555
   57MOL   H10414776   3.998   6.142   6.280 -0.5827  0.3362  0.9648
   57MOL   H10514777   4.115   6.199   6.392  1.2658  0.4499 -0.8195
   57MOL   C10614778   4.541   6.093   6.311 -0.1034  0.2461  0.6902
   57MOL   C10714779   4.532   6.021   6.448 -0.5414 -0.0814  0.5717
   57MOL   O10814780   4.646   6.060   6.519 -0.0734  0.2225 -0.3769
   57MOL   C10914781   4.640   6.180   6.596 -0.0010  0.2120 -0.2257
   57MOL   C11014782   4.758   6.171   6.696 -0.7633  0.3411 -0.1665
   57MOL   H11114783   4.545   6.202   6.324 -0.9255  0.2200  1.1427
   57MOL   H11214784   4.634   6.070   6.258  0.1526  1.2405  0.6818
   57MOL   H11314785   4.454   6.057   6.515  0.6859  1.8723  1.0081
   57MOL   H11414786   4.547   6.189   6.652 -0.0948 -0.9502 -0.1922
   57MOL   H11514787   4.646   6.267   6.530 -0.6817 -0.1849 -0.8182
   57MOL   H11614788   4.777   6.273   6.729 -0.6059  0.3911 -0.4107
   57MOL   H11714789   4.742   6.105   6.781 -0.1934 -0.7503 -0.8998
   57MOL   H11814790   4.849   6.143   6.643  0.5959  0.8762  1.8627
   57MOL   C11914791   4.524   5.871   6.439  0.3901 -0.4078  0.1865
   57MOL   C12014792   4.492   5.799   6.574 -0.3299 -0.5161 -0.0673
   57MOL   O12114793   4.592   5.702   6.604  0.2959 -0.1357 -0.6611
   57MOL   C12214794   4.704   5.753   6.673  0.0513 -0.4246 -0.7480
   57MOL   C12314795   4.793   5.624   6.702  0.8472  0.2647 -0.2633
   57MOL   H12414796   4.622   5.841   6.402 -0.6020 -0.5493 -2.3834
   57MOL   H12514797   4.465   5.829   6.358  1.7124 -0.4051 -0.8029
   57MOL   H12614798   4.491   5.880   6.647  0.1942 -0.9214  0.3933
   57MOL   H12714799   4.683   5.806   6.765 -1.9836  0.8748 -1.9385
   57MOL   H12814800   4.761   5.822   6.610 -1.2417  1.1654 -0.1963
   57MOL   H12914801   4.773   5.550   6.625 -1.7297  1.0970 -0.4435
   57MOL   H13014802   4.898   5.654   6.704  0.7465  0.5787  2.2538
   57MOL   H13114803   4.781   5.586   6.803 -1.7737 -0.5678 -0.8518
   57MOL   C13214804   4.352   5.726   6.556 -0.4140  0.3600 -0.0754
   57MOL   C13314805   4.311   5.660   6.683 -0.2749  0.6262 -0.4728
   57MOL   O13414806   4.225   5.553   6.665  0.7597 -0.5800  0.1598
   57MOL   C13514807   4.278   5.432   6.627 -0.2911  0.5246  0.5143
   57MOL   C13614808   4.150   5.359   6.605  0.2310  0.5298  0.3091
   57MOL   H13714809   4.367   5.650   6.479 -0.7200  0.5302 -0.3030
   57MOL   H13814810   4.276   5.792   6.515  2.9311  2.9666 -2.3343
   57MOL   H13914811   4.398   5.639   6.745  0.1382  0.9940 -0.9288
   57MOL   H14014812   4.320   5.380   6.712 -0.3659  0.8397  0.7479
   57MOL   H14114813   4.365   5.434   6.562 -0.6808  1.2129 -0.0050
   57MOL   H14214814   4.159   5.251   6.592  0.1407  0.3458  1.7665
   57MOL   H14314815   4.076   5.392   6.678 -1.6711  1.6671 -2.0601
   57MOL   H14414816   4.101   5.393   6.513  2.3428  1.6090 -0.4303
   57MOL   C14514817   4.237   5.767   6.759 -0.1259 -0.2327 -0.4154
   57MOL   C14614818   4.231   5.749   6.912 -0.2148  0.0735  0.2859
   57MOL   O14714819   4.117   5.827   6.946  0.4225  0.3654  0.2356
   57MOL   C14814820   4.013   5.754   7.016 -0.2576 -0.3697 -0.1863
   57MOL   C14914821   3.886   5.841   7.022 -0.4514 -0.3131 -0.1584
   57MOL   H15014822   4.136   5.760   6.719  0.1169 -2.2667 -0.7151
   57MOL   H15114823   4.271   5.868   6.735 -0.5734  0.0660  0.1868
   57MOL   H15214824   4.219   5.643   6.934  0.7990 -0.2840 -0.8466
   57MOL   H15314825   4.047   5.724   7.115 -0.3327  1.9612  0.5846
   57MOL   H15414826   4.003   5.654   6.974  0.1032 -1.2204  1.6819
   57MOL   H15514827   3.793   5.791   7.049  0.5377 -1.6756  0.7871
   57MOL   H15614828   3.898   5.920   7.096  0.9963 -0.3387 -0.3468
   57MOL   H15714829   3.861   5.885   6.925 -0.2670 -0.6174 -0.3433
   57MOL   C15814830   4.345   5.795   7.004  0.0706 -0.1014 -0.2444
   57MOL   C15914831   4.393   5.946   6.995  1.1005  0.5413 -0.0468
   57MOL   O16014832   4.497   5.948   7.091 -0.3026 -0.1609  0.2167
   57MOL   C16114833   4.623   5.916   7.036  0.7453 -0.2224  0.5136
   57MOL   C16214834   4.735   5.900   7.137 -0.4833 -0.1435 -0.3817
   57MOL   H16314835   4.433   5.731   6.996 -0.8452 -1.4254  0.1370
   57MOL   H16414836   4.312   5.776   7.107  1.6928  0.0473  0.3217
   57MOL   H16514837   4.425   5.977   6.896 -0.2604 -1.0052 -1.0086
   57MOL   H16614838   4.654   5.988   6.961 -1.3308  0.8843  0.6894
   57MOL   H16714839   4.610   5.824   6.978  0.3379 -0.1172  0.4322
   57MOL   H16814840   4.832   5.932   7.098 -0.3930 -0.1182 -0.1417
   57MOL   H16914841   4.713   5.974   7.215  0.7259  1.4505 -1.5133
   57MOL   H17014842   4.729   5.806   7.193 -0.4025 -1.4432 -2.5207
   57MOL   C17114843   4.291   6.051   7.051  0.3221  0.5344 -0.5339
   57MOL   C17214844   4.336   6.197   7.058 -0.8461  0.2526  0.6130
   57MOL   O17314845   4.236   6.277   7.121 -0.9653 -0.0359 -0.4144
   57MOL   C17414846   4.276   6.322   7.257 -0.3890 -0.2885 -0.4408
   57MOL   C17514847   4.180   6.429   7.304  0.3392  0.8074 -0.1457
   57MOL   H17614848   4.263   6.014   7.149 -0.8207  0.9134 -0.7081
   57MOL   H17714849   4.204   6.048   6.985  0.8069 -0.5002 -1.1444
   57MOL   H17814850   4.438   6.188   7.095 -1.3450 -0.1812  1.8945
   57MOL   H17914851   4.376   6.367   7.250 -0.1035 -0.9177 -0.4702
   57MOL   H18014852   4.271   6.238   7.326  0.4833  0.7406  0.9048
   57MOL   H18114853   4.209   6.467   7.402 -1.0595  0.5217  0.3915
   57MOL   H18214854   4.203   6.509   7.234  1.1232 -0.5413 -1.4690
   57MOL   H18314855   4.079   6.391   7.289  0.8079  0.4324 -2.5823
   57MOL   C18414856   4.335   6.247   6.917 -0.1773  0.1789  0.0632
   57MOL   C18514857   4.384   6.387   6.887 -0.3205 -0.2824  0.4814
   57MOL   O18614858   4.395   6.404   6.744  0.6605  0.2663 -0.1293
   57MOL   C18714859   4.276   6.402   6.666 -0.5636  0.1087  0.2809
   57MOL   C18814860   4.321   6.374   6.525 -0.1019  0.2239  0.3057
   57MOL   H18914861   4.231   6.249   6.882 -0.2440 -0.5869  0.2282
   57MOL   H19014862   4.394   6.180   6.855  0.6433  0.7737  0.1923
   57MOL   H19114863   4.304   6.453   6.921  0.2206  1.0943 -0.8241
   57MOL   H19214864   4.238   6.504   6.661 -0.7006  0.0947  0.9140
   57MOL   H19314865   4.198   6.330   6.691 -0.6681  0.2429  0.3386
   57MOL   H19414866   4.418   6.423   6.514 -0.8353  1.6192 -0.0422
   57MOL   H19514867   4.331   6.266   6.514  1.6074  0.4183 -0.1256
   57MOL   H19614868   4.246   6.410   6.455 -0.7530 -0.5711  0.5891
   57MOL   C19714869   4.527   6.423   6.940 -0.3739 -0.1440  0.6794
   57MOL   C19814870   4.572   6.571   6.929 -0.5425 -0.0173 -0.1061
   57MOL   O19914871   4.700   6.592   6.990 -0.0005 -0.0946 -0.0434
   57MOL   C20014872   4.816   6.535   6.941 -0.2290  0.3970  0.5847
   57MOL   C20114873   4.890   6.462   7.058 -0.2970  0.2628 -0.0574
   57MOL   H20214874   4.597   6.356   6.890 -0.5613  0.7516 -0.8015
   57MOL   H20314875   4.543   6.399   7.045 -0.5251  0.8274  0.9252
   57MOL   H20414876   4.593   6.582   6.823  0.2377  1.1313  0.1592
   57MOL   H20514877   4.887   6.602   6.893 -2.6472  2.5408 -0.1178
   57MOL   H20614878   4.803   6.454   6.869  2.6059  0.9699 -0.6568
   57MOL   H20714879   4.986   6.418   7.031  0.3281  2.0962 -0.9285
   57MOL   H20814880   4.929   6.533   7.131 -1.5134 -1.2246  2.0603
   57MOL   H20914881   4.822   6.390   7.102  1.4035 -2.3182 -1.4891
   57MOL   C21014882   4.464   6.667   6.971 -0.0301 -0.7472 -0.2457
   57MOL   C21114883   4.415   6.670   7.117  0.4270  0.0904  0.0119
   57MOL   O21214884   4.295   6.739   7.136  0.3606  0.1185 -0.0448
   57MOL   C21314885   4.270   6.863   7.077 -0.4849  0.1515  0.1060
   57MOL   C21414886   4.206   6.952   7.183 -0.6198  0.2082 -0.1751
   57MOL   H21514887   4.374   6.646   6.914 -0.7759  0.5736  0.4405
   57MOL   H21614888   4.503   6.766   6.949 -0.8953 -0.5972 -1.1598
   57MOL   H21714889   4.384   6.569   7.143 -0.6632  0.0702 -1.2947
   57MOL   H21814890   4.195   6.854   6.999  2.0392 -0.5992 -2.2823
   57MOL   H21914891   4.360   6.909   7.037 -0.5697  1.5836  1.5189
   57MOL   H22014892   4.156   7.039   7.142  1.0817  0.1152 -2.5861
   57MOL   H22114893   4.144   6.899   7.255  0.3279  1.3358  1.5165
   57MOL   H22214894   4.286   6.988   7.247 -2.0654 -1.4623  2.6644
   57MOL   C22314895   4.513   6.712   7.227 -0.3688 -0.0152  0.5206
   57MOL   C22414896   4.484   6.688   7.381 -0.2472 -0.5281  0.5273
   57MOL   O22514897   4.406   6.795   7.419  0.2808 -0.1837  0.3020
   57MOL   C22614898   4.269   6.763   7.466 -0.2044  0.8228 -0.1241
   57MOL   C22714899   4.216   6.889   7.531 -0.4814  0.6303 -0.5294
   57MOL   H22814900   4.529   6.819   7.213 -0.4661 -0.3190 -2.1533
   57MOL   H22914901   4.605   6.660   7.199 -0.0051 -0.7252  2.8802
   57MOL   H23014902   4.435   6.591   7.396  0.3739 -0.6236  1.9834
   57MOL   H23114903   4.276   6.681   7.537  0.0866 -0.0553 -1.1580
   57MOL   H23214904   4.212   6.722   7.382 -1.2244 -1.8145  1.7646
   57MOL   H23314905   4.287   6.932   7.601 -0.9734  1.7256 -0.6899
   57MOL   H23414906   4.213   6.968   7.456  0.5756  1.8688  0.7028
   57MOL   H23514907   4.115   6.876   7.569 -0.2886 -1.2670 -0.6175
   57MOL   C23614908   4.611   6.704   7.470  0.3965  0.6373  0.2662
   57MOL   C23714909   4.684   6.571   7.509  0.6063 -0.8926  0.1746
   57MOL   O23814910   4.749   6.605   7.627  0.2450 -0.2122 -0.0353
   57MOL   C23914911   4.679   6.579   7.751  0.2134 -0.2142 -0.5185
   57MOL   C24014912   4.760   6.640   0.025  0.0554 -0.4185  0.9025
   57MOL   H24114913   4.574   6.751   7.561  0.2609  0.4268  0.3204
   57MOL   H24214914   4.675   6.774   7.416 -0.2703  0.8526 -0.2547
   57MOL   H24314915   4.611   6.493   7.528 -0.7885  0.4474  0.4789
   57MOL   H24414916   4.660   6.472   7.767 -1.0602  0.0285 -0.3581
   57MOL   H24514917   4.578   6.619   7.750  0.5028  0.5564  0.6235
   57MOL   H24614918   4.708   6.630   0.120  0.3235  2.4373  1.3861
   57MOL   H24714919   4.853   6.587   0.043  0.7088  1.0147  1.8277
   57MOL   H24814920   4.785   6.743   0.000 -0.2644 -0.2871  1.1241
   57MOL   C24914921   4.780   6.525   7.396 -0.3964  0.2923 -0.1255
   57MOL   C25014922   4.866   6.408   7.452 -0.8301 -0.2205  0.3727
   57MOL   O25114923   4.941   6.346   7.345  0.4605  0.3958 -0.2387
   57MOL   C25214924   5.009   6.243   7.398 -0.1605 -0.5732 -0.4193
   57MOL   C25314925   5.117   6.179   7.316 -0.4620  0.2170  0.1643
   57MOL   H25414926   4.841   6.609   7.362  2.0308 -0.9593  0.9990
   57MOL   H25514927   4.714   6.509   7.311  0.2209  2.6083 -1.1006
   57MOL   H25614928   4.931   6.454   7.527  0.4176 -1.9725  0.3982
   57MOL   H25714929   4.931   6.171   7.426 -1.2422  0.9299  0.5461
   57MOL   H25814930   5.060   6.283   7.486  1.8095  1.0080 -2.2638
   57MOL   H25914931   5.194   6.248   7.282 -1.2025  0.4192 -1.1711
   57MOL   H26014932   5.162   6.089   7.357 -0.1782 -0.2598 -1.1482
   57MOL   H26114933   5.068   6.138   7.227  0.1438  1.1095 -0.5897
   57MOL   H26214934   4.798   6.341   7.505 -1.3375 -0.2473 -0.3133
   58MOL     C114935   2.033   0.299   5.981 -0.1036  0.0229  0.0898
   58MOL     C214936   2.188   0.285   5.988 -0.6551  0.1368 -0.1622
   58MOL     O314937   2.205   0.149   6.019  0.0780  0.6250 -0.4963
   58MOL     C414938   2.331   0.093   5.998 -0.6223  0.4139  0.1492
   58MOL     C514939   2.343   7.822   6.104 -0.6919  0.0759 -0.3600
   58MOL     H614940   1.996   0.244   5.895  0.1445  1.2801 -0.8328
   58MOL     H714941   1.991   0.263   6.075 -0.0119 -1.3996 -0.3931
   58MOL     H814942   2.233   0.297   5.890 -0.2443 -2.0765 -0.2654
   58MOL     H914943   2.414   0.163   6.000 -1.0878  0.9523  2.4175
   58MOL    H1014944   2.332   0.043   5.902  1.4085  0.7128 -0.0046
   58MOL    H1114945   2.432   7.764   6.080 -1.9498 -1.1461 -2.1335
   58MOL    H1214946   2.360   0.026   6.201 -0.5254  0.1389 -0.4185
   58MOL    H1314947   2.261   7.753   6.119 -1.2588  0.0343 -3.3966
   58MOL    H1414948   1.998   0.401   5.972  0.4191  0.1783 -0.1954
   58MOL    C1514949   2.247   0.372   6.104 -0.1323 -0.5803  0.2522
   58MOL    C1614950   2.273   0.512   6.063 -0.0326  0.1100 -0.2685
   58MOL    O1714951   2.365   0.514   5.953 -0.0223  0.2292 -0.5105
   58MOL    C1814952   2.355   0.629   5.868 -0.2767  0.0980  0.1856
   58MOL    C1914953   2.495   0.688   5.849  0.0889 -0.2690  0.1060
   58MOL    H2014954   2.339   0.320   6.132 -0.3032 -2.5172 -2.5926
   58MOL    H2114955   2.181   0.369   6.191 -0.7346 -3.0648 -0.2629
   58MOL    H2214956   2.177   0.546   6.024  0.0495 -0.4140 -0.9373
   58MOL    H2314957   2.287   0.704   5.908  1.0207 -0.1580  2.9666
   58MOL    H2414958   2.309   0.599   5.773  0.3146  2.4670 -0.8976
   58MOL    H2514959   2.536   0.693   5.950 -0.5984 -1.1582  0.4400
   58MOL    H2614960   2.491   0.782   5.793  0.5860 -1.5161 -2.1059
   58MOL    H2714961   2.560   0.613   5.804 -1.2793 -0.2756 -1.9340
   58MOL    C2814962   2.337   0.600   6.172 -0.8601 -0.0708  0.5771
   58MOL    C2914963   2.241   0.628   6.296 -0.2432 -0.2485  0.0729
   58MOL    O3014964   2.129   0.715   6.272  0.2454 -0.1338 -0.4066
   58MOL    C3114965   2.000   0.649   6.261  0.3467  0.0843 -0.4932
   58MOL    C3214966   1.910   0.750   6.191  0.3176  0.4000 -0.3595
   58MOL    H3314967   2.371   0.697   6.133 -3.5601  0.7004  0.0577
   58MOL    H3414968   2.430   0.549   6.198 -1.1863  0.2952  2.5551
   58MOL    H3514969   2.202   0.532   6.329 -1.4549  0.0669 -0.4152
   58MOL    H3614970   1.960   0.617   6.358  1.2602 -1.1178 -0.5071
   58MOL    H3714971   2.010   0.560   6.199 -2.3676 -0.0801 -0.7697
   58MOL    H3814972   1.806   0.723   6.174  1.4884 -4.0108 -1.0587
   58MOL    H3914973   1.909   0.848   6.240 -3.9488  0.5409 -0.4694
   58MOL    H4014974   1.958   0.758   6.094  2.9649  1.1643  0.9592
   58MOL    C4114975   2.335   0.691   6.405 -0.1174  0.5963 -0.6201
   58MOL    C4214976   2.273   0.721   6.544 -0.2479  0.5670 -0.0415
   58MOL    O4314977   2.386   0.737   6.632  0.3505  0.5013 -0.4286
   58MOL    C4414978   2.471   0.849   6.597  0.4932 -0.0088 -0.3198
   58MOL    C4514979   2.581   0.859   6.699  0.2441  0.3644 -0.9046
   58MOL    H4614980   2.374   0.784   6.363  0.6696  1.1352  1.2513
   58MOL    H4714981   2.414   0.616   6.412  0.7563  1.5610  0.1081
   58MOL    H4814982   2.208   0.808   6.540 -1.1349 -0.1332 -1.3191
   58MOL    H4914983   2.401   0.932   6.587 -0.8058 -1.1323 -0.8287
   58MOL    H5014984   2.531   0.833   6.507  2.2986  0.4850  0.7926
   58MOL    H5114985   2.661   0.787   6.684 -0.2430 -0.6924  1.3055
   58MOL    H5214986   2.630   0.956   6.692  4.8933 -1.7869 -0.0740
   58MOL    H5314987   2.545   0.845   6.801  4.7233 -0.4286  0.6530
   58MOL    C5414988   2.193   0.605   6.598  0.3492 -0.8460  0.0017
   58MOL    C5514989   2.127   0.633   6.733  0.3665 -0.2606  0.0439
   58MOL    O5614990   2.075   0.509   6.782  0.2109 -0.4292 -0.3188
   58MOL    C5714991   2.121   0.468   6.909 -0.1627  1.1888 -0.3624
   58MOL    C5814992   2.028   0.500   7.026  0.2416 -0.7612 -0.2453
   58MOL    H5914993   2.256   0.516   6.599  0.4723 -0.7652 -0.8184
   58MOL    H6014994   2.111   0.585   6.530  0.1681  1.1268 -0.3788
   58MOL    H6114995   2.204   0.670   6.800 -1.3275  0.4814  1.6501
   58MOL    H6214996   2.223   0.499   6.928  0.7842 -2.2333  0.6348
   58MOL    H6314997   2.137   0.360   6.899  3.4177  1.5698  0.6956
   58MOL    H6414998   2.018   0.604   7.055 -0.0010 -0.7657 -0.3069
   58MOL    H6514999   1.926   0.471   7.000 -1.1586  2.7786  1.0557
   58MOL    H6615000   2.054   0.434   7.109  2.1079 -2.4917 -2.1230
   58MOL    C6715001   2.031   0.751   6.731 -0.6173 -0.3947 -0.8382
   58MOL    C6815002   1.892   0.730   6.661 -0.0055 -0.2817 -0.4288
   58MOL    O6915003   1.830   0.851   6.645  0.2368  0.0257  0.1888
   58MOL    C7015004   1.862   0.919   6.524 -1.0040 -0.0185  0.2335
   58MOL    C7115005   1.807   1.064   6.523  0.1257  0.2837 -0.4171
   58MOL    H7215006   2.074   0.839   6.684  0.2350 -1.0961 -1.3995
   58MOL    H7315007   2.001   0.779   6.831 -1.3929 -2.4837 -0.4477
   58MOL    H7415008   1.904   0.691   6.560  0.2305  0.6067 -0.7557
   58MOL    H7515009   1.816   0.859   6.446  2.0091 -2.3852  0.1650
   58MOL    H7615010   1.963   0.914   6.484 -0.9725 -1.3334  0.4487
   58MOL    H7715011   1.842   1.114   6.614  3.2928 -0.7777 -0.9710
   58MOL    H7815012   1.838   1.121   6.435  2.2791 -0.0629  0.0658
   58MOL    H7915013   1.701   1.042   6.530  0.0392 -0.0520 -2.5103
   58MOL    C8015014   1.793   0.626   6.724  0.5093  0.0371 -0.1045
   58MOL    C8115015   1.660   0.602   6.650  0.4265 -0.3724  0.4966
   58MOL    O8215016   1.667   0.569   6.512 -0.0225 -0.2003 -0.4995
   58MOL    C8315017   1.744   0.453   6.470 -0.4931 -0.3321 -0.3303
   58MOL    C8415018   1.735   0.422   6.320 -0.0154 -0.5892 -0.7224
   58MOL    H8515019   1.803   0.636   6.832 -2.0796 -1.0306  0.2607
   58MOL    H8615020   1.845   0.531   6.712  1.1725 -0.0941  3.3457
   58MOL    H8715021   1.610   0.519   6.701 -2.0417  0.2130 -0.8850
   58MOL    H8815022   1.710   0.372   6.534 -3.7894  1.8831  0.8344
   58MOL    H8915023   1.849   0.472   6.492 -0.4238 -1.6374  0.5056
   58MOL    H9015024   1.776   0.510   6.269 -0.9848  1.2120  1.4926
   58MOL    H9115025   1.786   0.328   6.303  1.9221 -0.1637  2.3507
   58MOL    H9215026   1.628   0.414   6.302 -0.0900  1.1558 -1.2309
   58MOL    C9315027   1.569   0.719   6.683 -0.2590 -0.4167  0.0984
   58MOL    C9415028   1.421   0.700   6.648  1.1364  0.4592 -0.3848
   58MOL    O9515029   1.350   0.815   6.694  0.8003  0.0848 -0.0460
   58MOL    C9615030   1.356   0.943   6.627 -0.4086 -0.0882  0.5767
   58MOL    C9715031   1.241   1.035   6.650  0.1009  0.4932  0.7912
   58MOL    H9815032   1.601   0.815   6.643  2.2751 -2.1038 -2.0416
   58MOL    H9915033   1.585   0.733   6.790 -2.0521  0.9351  0.2249
   58MOL   H10015034   1.409   0.700   6.540 -1.9965  0.2879 -0.0789
   58MOL   H10115035   1.374   0.925   6.521  0.6770  0.3995  0.6689
   58MOL   H10215036   1.441   0.997   6.669 -0.5016  0.3537  0.2066
   58MOL   H10315037   1.152   0.991   6.605 -0.6426  3.7103 -1.0214
   58MOL   H10415038   1.232   1.066   6.754 -1.9219 -1.0861  1.1261
   58MOL   H10515039   1.255   1.127   6.594 -1.6896 -0.6077 -1.5681
   58MOL   C10615040   1.352   0.570   6.710 -0.0215  0.0635  0.3198
   58MOL   C10715041   1.296   0.472   6.600  0.1012  0.3309 -0.4209
   58MOL   O10815042   1.194   0.389   6.654  0.2128 -0.2489  0.0918
   58MOL   C10915043   1.234   0.306   6.766 -0.4041  0.4602 -0.2957
   58MOL   C11015044   1.120   0.206   6.793 -0.1570 -0.4428 -0.3129
   58MOL   H11115045   1.272   0.614   6.770  0.9844 -0.4708  2.0837
   58MOL   H11215046   1.421   0.522   6.779  1.1169  0.5633 -0.4620
   58MOL   H11315047   1.236   0.520   6.522 -1.2813 -1.8759 -0.7386
   58MOL   H11415048   1.248   0.350   6.864  1.8372 -1.1196  0.1382
   58MOL   H11515049   1.315   0.238   6.737 -0.4230  0.0961  0.4888
   58MOL   H11615050   1.103   0.149   6.702  1.2984  0.7018 -1.3234
   58MOL   H11715051   1.143   0.144   6.879  0.3601  0.1377 -0.0239
   58MOL   H11815052   1.029   0.261   6.816 -0.1651 -0.2137 -0.8682
   58MOL   C11915053   1.396   0.383   6.516 -0.2338  0.1911  0.4752
   58MOL   C12015054   1.332   0.268   6.431  0.4895  0.5353 -0.0923
   58MOL   O12115055   1.433   0.171   6.395  0.4264 -0.0263 -0.4144
   58MOL   C12215056   1.426   0.052   6.466  0.3517 -0.0162  0.4073
   58MOL   C12315057   1.523   7.792   6.416  0.1539 -0.2433 -0.2528
   58MOL   H12415058   1.472   0.337   6.581  0.1421 -0.4333 -0.3902
   58MOL   H12515059   1.453   0.455   6.458  1.4309 -1.1435  0.4148
   58MOL   H12615060   1.253   0.228   6.495 -0.3301  1.0883 -0.7451
   58MOL   H12715061   1.322   0.020   6.456  0.1323  0.5975  0.6956
   58MOL   H12815062   1.451   0.076   6.569  1.4285 -0.8258  0.3395
   58MOL   H12915063   1.620   7.841   6.424 -1.2312  2.3933  0.6848
   58MOL   H13015064   1.533   7.695   6.466  0.0280 -0.7426 -1.1782
   58MOL   H13115065   1.495   7.774   6.312 -1.9179  2.5552 -0.2277
   58MOL   C13215066   1.268   0.328   6.305 -0.2087  0.2242  0.4568
   58MOL   C13315067   1.209   0.228   6.205  0.2479 -0.0465 -0.2919
   58MOL   O13415068   1.159   0.293   6.091 -0.1675  0.0022 -0.5001
   58MOL   C13515069   1.272   0.340   6.009  0.3943  0.7507 -0.0913
   58MOL   C13615070   1.215   0.375   5.870 -0.1490 -0.3467  0.2913
   58MOL   H13715071   1.339   0.392   6.253  0.3205  0.2335  1.1829
   58MOL   H13815072   1.198   0.402   6.345  1.1630  1.3416  0.8461
   58MOL   H13915073   1.279   0.148   6.180  0.8317  0.4125 -0.1681
   58MOL   H14015074   1.347   0.262   5.998  1.0781  1.6130 -1.6670
   58MOL   H14115075   1.322   0.430   6.044  0.3777 -0.5233  3.4225
   58MOL   H14215076   1.209   0.286   5.807  2.2417  0.4540 -1.1431
   58MOL   H14315077   1.120   0.428   5.874  0.8142  1.3775  0.5091
   58MOL   H14415078   1.289   0.446   5.833 -1.5133  1.6935  1.3589
   58MOL   C14515079   1.089   0.148   6.267 -0.1714  0.0320 -0.2669
   58MOL   C14615080   1.020   0.054   6.163  0.1307  0.5790 -0.1855
   58MOL   O14715081   0.876   0.057   6.169 -0.2009  0.4324 -0.2833
   58MOL   C14815082   0.809   0.152   6.087  0.4080  0.9391 -0.1793
   58MOL   C14915083   0.661   0.126   6.093 -0.3128 -0.2122 -0.1097
   58MOL   H15015084   1.014   0.223   6.292 -0.9663 -0.4931 -1.0605
   58MOL   H15115085   1.109   0.100   6.363 -3.2532 -0.2241  0.2953
   58MOL   H15215086   1.059   0.064   6.061  0.9171  0.9471  0.1450
   58MOL   H15315087   0.840   0.154   5.983 -0.9038  3.1532 -0.5559
   58MOL   H15415088   0.825   0.257   6.109 -0.3574  0.9869  0.1620
   58MOL   H15515089   0.615   0.119   6.192  0.3052 -0.1986  0.1771
   58MOL   H15615090   0.607   0.195   6.028  1.3372  0.6199 -0.6194
   58MOL   H15715091   0.648   0.029   6.044 -0.7072  0.5224 -1.4828
   58MOL   C15815092   1.058   7.750   6.178  0.0668 -0.2787 -0.2457
   58MOL   C15915093   1.013   7.658   6.068  0.4643  0.1501 -0.0164
   58MOL   O16015094   0.930   7.561   6.112  0.4719  0.0951  0.5081
   58MOL   C16115095   0.800   7.599   6.164 -0.6372 -0.2061 -0.5845
   58MOL   C16215096   0.718   7.473   6.196  0.2147  0.2240  0.2087
   58MOL   H16315097   1.025   7.720   6.278 -1.5646  0.1239 -0.6434
   58MOL   H16415098   1.166   7.738   6.190  0.0994  2.1755  2.4162
   58MOL   H16515099   0.952   7.709   5.993 -0.0940  0.9723  0.9908
   58MOL   H16615100   0.747   7.658   6.090  1.3723  0.9944 -1.0986
   58MOL   H16715101   0.799   7.662   6.253 -1.5267 -0.2422 -0.5711
   58MOL   H16815102   0.696   7.420   6.104 -0.7262  2.5986 -0.9651
   58MOL   H16915103   0.770   7.412   6.270 -0.1144  0.4618  0.6393
   58MOL   H17015104   0.633   7.506   6.256 -0.0370 -0.7427  0.3919
   58MOL   C17115105   1.125   7.575   6.002  1.0002 -1.1866 -0.9700
   58MOL   C17215106   1.202   7.653   5.897  0.5167 -0.1765 -0.5015
   58MOL   O17315107   1.104   7.706   5.810 -0.0967  0.0041 -0.4251
   58MOL   C17415108   1.125   7.834   5.749 -1.2308  0.3204  0.6638
   58MOL   C17515109   0.991   0.039   5.691 -0.9122 -0.3037 -0.4118
   58MOL   H17615110   1.070   7.497   5.949 -0.6634 -0.4917 -0.2620
   58MOL   H17715111   1.180   7.528   6.084 -0.0767 -0.3361  0.2515
   58MOL   H17815112   1.245   7.735   5.955 -1.1345 -0.6267  1.4339
   58MOL   H17915113   1.198   7.827   5.669 -2.7327 -1.0625 -0.6107
   58MOL   H18015114   1.163   0.062   5.822 -0.4594  1.6543 -1.0163
   58MOL   H18115115   0.989   0.131   5.633  0.1748 -1.1508 -1.8202
   58MOL   H18215116   0.955   7.800   5.629  1.2514 -1.1514 -0.5590
   58MOL   H18315117   0.910   0.042   5.764 -2.3170 -0.0965 -1.9354
   58MOL   C18415118   1.315   7.578   5.827 -0.1046 -1.1787  0.3785
   58MOL   C18515119   1.454   7.568   5.882  0.4834  0.2408  0.5729
   58MOL   O18615120   1.448   7.503   6.012 -0.3659 -0.4797 -0.2002
   58MOL   C18715121   1.541   7.392   6.026  0.1537  0.2796  0.6860
   58MOL   C18815122   1.541   7.349   6.173 -1.0963 -0.5335  0.0207
   58MOL   H18915123   1.318   7.615   5.724  1.1948  1.9397  1.4867
   58MOL   H19015124   1.281   7.475   5.815  0.5008 -1.0349 -3.0579
   58MOL   H19115125   1.517   7.516   5.809 -0.3027  1.1232 -0.7584
   58MOL   H19215126   1.638   7.429   5.994 -0.1949  0.8289  0.2650
   58MOL   H19315127   1.521   7.306   5.963 -1.5116  0.6887  0.6522
   58MOL   H19415128   1.564   7.433   6.238 -1.8708 -0.5680  0.3464
   58MOL   H19515129   1.441   7.309   6.194 -0.3767 -1.7352  1.2827
   58MOL   H19615130   1.615   7.269   6.187 -2.7900 -1.6159  3.3189
   58MOL   C19715131   1.515   7.705   5.916 -0.8126 -0.7432  0.6933
   58MOL   C19815132   1.656   7.750   5.860  0.2203 -0.1055 -0.2742
   58MOL   O19915133   1.694   0.041   5.904 -0.2042  0.5299 -0.1240
   58MOL   C20015134   1.745   0.053   6.033  0.5418  0.0414 -1.0728
   58MOL   C20115135   1.654   0.130   6.125 -0.0812 -0.3969  0.1401
   58MOL   H20215136   1.515   7.723   6.023 -2.1989  0.6807  0.4732
   58MOL   H20315137   1.438   7.770   5.874  0.3508  0.4214  0.3466
   58MOL   H20415138   1.729   7.672   5.882  0.1221 -0.1295 -0.0331
   58MOL   H20515139   1.841   0.104   6.025  1.4025 -1.5979 -1.3806
   58MOL   H20615140   1.777   7.801   6.076  1.8866  0.7518 -0.4772
   58MOL   H20715141   1.711   0.163   6.211  1.9468 -1.7465 -0.6558
   58MOL   H20815142   1.613   0.218   6.074  1.3799  1.1172  1.5291
   58MOL   H20915143   1.563   0.073   6.147  0.9612 -2.1663 -0.0689
   58MOL   C21015144   1.638   7.759   5.705  0.0658 -0.4986 -0.3342
   58MOL   C21115145   1.771   7.792   5.623  0.2127 -0.4817  0.1069
   58MOL   O21215146   1.728   7.796   5.490 -1.0260  0.0309  0.2387
   58MOL   C21315147   1.783   0.061   5.415 -0.2430 -0.3784  0.7879
   58MOL   C21415148   1.745   0.054   5.264  0.2458  0.2496 -0.3857
   58MOL   H21515149   1.568   7.835   5.670  0.8415 -0.5157 -2.0154
   58MOL   H21615150   1.597   7.673   5.652 -0.1319 -0.0937 -0.8368
   58MOL   H21715151   1.797   0.051   5.652 -1.7971 -0.2476  1.2139
   58MOL   H21815152   1.890   0.079   5.422  0.2222 -1.7636 -2.1824
   58MOL   H21915153   1.743   0.152   5.460  0.0842 -0.1986  0.7133
   58MOL   H22015154   1.637   0.049   5.252  0.3583 -0.8428 -0.9501
   58MOL   H22115155   1.770   0.146   5.211  1.0763  1.0597  1.3703
   58MOL   H22215156   1.790   7.814   5.210  2.4332  1.4265 -0.4242
   58MOL   C22315157   1.886   7.695   5.641  0.1929  0.8503  0.4589
   58MOL   C22415158   2.029   7.734   5.597  1.0066  0.7436  0.0962
   58MOL   O22515159   2.114   7.621   5.583 -0.8815  0.4720  0.2034
   58MOL   C22615160   2.101   7.547   5.462  0.2362 -0.5234  0.0804
   58MOL   C22715161   2.025   7.411   5.489 -0.5494  0.6089  0.4552
   58MOL   H22815162   1.850   7.604   5.593  0.6424  0.1872  1.3697
   58MOL   H22915163   1.883   7.673   5.748 -1.5357 -1.7102 -0.0733
   58MOL   H23015164   2.014   7.785   5.501 -0.4085  1.9624  0.9389
   58MOL   H23115165   2.202   7.523   5.426  0.8453  0.0054  1.4382
   58MOL   H23215166   2.051   7.595   5.378 -0.0255  0.6500  0.9101
   58MOL   H23315167   1.994   7.363   5.396  1.3163 -1.9141  1.0773
   58MOL   H23415168   2.099   7.345   5.534 -1.1207  0.2236  0.8412
   58MOL   H23515169   1.940   7.406   5.556 -1.3767  0.7326 -0.5771
   58MOL   C23615170   2.085   0.003   5.682 -0.1019 -0.0463 -0.6414
   58MOL   C23715171   2.208   0.078   5.618 -0.0609  0.0324 -0.4422
   58MOL   O23815172   2.166   0.138   5.500 -0.1642  0.0111 -0.0396
   58MOL   C23915173   2.193   0.276   5.490 -0.2646 -1.0442 -0.3739
   58MOL   C24015174   2.095   0.352   5.578 -0.7242 -0.0709 -0.0509
   58MOL   H24115175   2.117   7.818   5.783  2.5701 -0.5159 -1.5845
   58MOL   H24215176   2.004   0.074   5.700  0.8636  1.1344 -0.8284
   58MOL   H24315177   2.230   0.152   5.695 -0.3126 -0.2403 -0.1053
   58MOL   H24415178   2.192   0.299   5.383  0.1456  3.3214  0.4811
   58MOL   H24515179   2.293   0.298   5.529 -0.5754 -0.0438 -0.1240
   58MOL   H24615180   2.117   0.349   5.684 -0.1587  5.0680  0.0827
   58MOL   H24715181   2.102   0.458   5.554  3.3284 -0.3064 -0.2550
   58MOL   H24815182   1.988   0.340   5.557 -1.3231  2.4470  1.3504
   58MOL   C24915183   2.329   7.836   5.583  0.2394  0.4250 -0.1885
   58MOL   C25015184   2.453   0.076   5.541  0.6511  0.2404  0.0590
   58MOL   O25115185   2.510   0.154   5.654  0.3188 -0.2619  0.4597
   58MOL   C25215186   2.578   0.270   5.609  0.2557 -0.2455  0.0406
   58MOL   C25315187   2.635   0.356   5.729 -0.4397  0.1234 -0.1581
   58MOL   H25415188   2.301   7.767   5.503 -1.4459  0.1468  0.6170
   58MOL   H25515189   2.346   7.775   5.672  0.2023 -1.7114 -1.5889
   58MOL   H25615190   2.522   0.003   5.499  1.6439  1.6319 -0.7859
   58MOL   H25715191   2.512   0.340   5.558  0.8882 -0.0133 -0.4609
   58MOL   H25815192   2.658   0.233   5.545 -1.1133 -0.9492 -1.2776
   58MOL   H25915193   2.717   0.301   5.775  1.0398  0.3226 -2.4702
   58MOL   H26015194   2.676   0.452   5.699 -1.9691  0.8494  0.0165
   58MOL   H26115195   2.562   0.361   5.810 -0.6868 -0.9887 -0.3080
   58MOL   H26215196   2.423   0.134   5.453 -0.1823 -1.3561 -0.7181
   59MOL     C115197   1.801   0.571   1.221  0.3250  0.3479 -0.9860
   59MOL     C215198   1.837   0.440   1.294  0.4446  0.3378 -0.9149
   59MOL     O315199   1.885   0.354   1.191 -0.2390 -0.0437 -0.2705
   59MOL     C415200   2.025   0.350   1.180 -0.8936  0.7757  0.2193
   59MOL     C515201   2.059   0.242   1.079 -0.7190 -0.2531 -0.1058
   59MOL     H615202   1.739   0.560   1.133 -2.6975  0.8894  0.9962
   59MOL     H715203   1.741   0.635   1.285 -1.2446  1.6160 -3.6798
   59MOL     H815204   1.921   0.465   1.359  0.3282 -0.7566 -0.3280
   59MOL     H915205   2.056   0.311   1.277 -2.9047  0.1633  0.6422
   59MOL    H1015206   2.071   0.448   1.165 -2.4796  1.2944 -1.3701
   59MOL    H1115207   2.167   0.228   1.076 -0.5670  0.2919  1.9977
   59MOL    H1215208   2.014   0.148   1.110  0.1903 -0.3259  1.0358
   59MOL    H1315209   2.010   0.277   0.988 -0.4214 -0.6153 -0.4049
   59MOL    H1415210   1.885   0.634   1.193 -0.6373  0.7923 -2.9116
   59MOL    C1515211   1.716   0.369   1.358 -0.0129  0.0290  0.0600
   59MOL    C1615212   1.769   0.242   1.426 -1.0620  0.0797 -0.3392
   59MOL    O1715213   1.682   0.131   1.410 -0.0358  0.0244  0.7284
   59MOL    C1815214   1.692   0.071   1.284 -0.1597  0.1275  0.2735
   59MOL    C1915215   1.581   7.822   1.259 -0.0649 -0.9340 -0.0916
   59MOL    H2015216   1.644   0.361   1.276 -0.0602 -0.4343  0.1447
   59MOL    H2115217   1.668   0.437   1.427 -0.4445 -1.4895  1.2770
   59MOL    H2215218   1.865   0.211   1.385 -0.4719 -1.2567  1.9640
   59MOL    H2315219   1.795   0.039   1.270 -0.8707 -0.9549 -2.7109
   59MOL    H2415220   1.676   0.149   1.210 -1.7980  0.9893  1.4907
   59MOL    H2515221   1.559   7.757   1.344 -1.2259 -0.4191  0.0145
   59MOL    H2615222   1.595   7.760   1.170  0.3015 -1.7952  0.5621
   59MOL    H2715223   1.488   0.031   1.237  0.2555  0.2079  1.2402
   59MOL    C2815224   1.801   0.265   1.580  0.0840 -0.1410  0.1651
   59MOL    C2915225   1.909   0.176   1.630 -0.5884  0.2035  0.5259
   59MOL    O3015226   1.902   0.172   1.769  0.2737  0.6917  0.7077
   59MOL    C3115227   1.819   0.073   1.829 -0.1178 -0.1939  0.4859
   59MOL    C3215228   1.797   0.121   1.973  0.7080  0.1309 -0.0137
   59MOL    H3315229   1.719   0.277   1.650  0.0778  1.1003 -0.0431
   59MOL    H3415230   1.845   0.364   1.594  1.0132 -0.5677  0.3361
   59MOL    H3515231   1.900   0.077   1.586  0.2836  0.6384 -0.6787
   59MOL    H3615232   1.867   7.820   1.808 -0.3698 -0.8182  2.6858
   59MOL    H3715233   1.723   0.061   1.779 -0.2063  2.2217  0.0513
   59MOL    H3815234   1.753   0.220   1.987 -0.6581 -0.5318  0.5217
   59MOL    H3915235   1.740   0.056   2.038 -1.0908  0.4186 -1.2417
   59MOL    H4015236   1.890   0.134   2.028 -0.1866  1.9165  1.1380
   59MOL    C4115237   2.048   0.226   1.591 -0.2975  0.2548  0.2527
   59MOL    C4215238   2.154   0.112   1.565 -0.1663  0.5389 -0.1325
   59MOL    O4315239   2.279   0.176   1.561  0.1153 -0.0669  0.1075
   59MOL    C4415240   2.344   0.213   1.686 -0.1421  0.1442 -0.1118
   59MOL    C4515241   2.470   0.301   1.657 -0.1415  0.6780  0.0585
   59MOL    H4615242   2.090   0.308   1.649 -0.0699 -0.7152  1.4776
   59MOL    H4715243   2.042   0.283   1.498 -1.0097  0.0032  0.1397
   59MOL    H4815244   2.156   0.039   1.646  0.2855  0.5604 -0.1243
   59MOL    H4915245   2.365   0.119   1.737 -0.6299 -0.9712 -1.9067
   59MOL    H5015246   2.275   0.271   1.747 -2.6821 -0.6524 -2.1171
   59MOL    H5115247   2.554   0.241   1.623 -1.3315  0.1202 -1.9106
   59MOL    H5215248   2.460   0.376   1.579  2.2754 -0.0070 -0.9586
   59MOL    H5315249   2.504   0.348   1.750 -0.1465  0.8430 -0.0227
   59MOL    C5415250   2.130   0.034   1.425 -0.2265  0.9993 -0.4653
   59MOL    C5515251   2.164   7.728   1.431  0.3580 -0.3697 -0.1159
   59MOL    O5615252   2.307   7.724   1.406  0.3234  0.3379 -0.7899
   59MOL    C5715253   2.375   7.621   1.483  0.2026 -0.3847 -0.0678
   59MOL    C5815254   2.497   7.591   1.402 -0.0705 -0.6196  0.0002
   59MOL    H5915255   2.185   0.082   1.344  0.3219  0.7454 -0.2525
   59MOL    H6015256   2.026   0.024   1.395 -1.0390  0.2003  2.5331
   59MOL    H6115257   2.130   7.702   1.531 -0.4422  2.1036  0.2806
   59MOL    H6215258   2.314   7.532   1.498  0.1306 -0.7041 -2.1049
   59MOL    H6315259   2.399   7.657   1.582  0.4173  0.7795 -0.5327
   59MOL    H6415260   2.554   7.681   1.380  0.6215 -1.2341 -0.7311
   59MOL    H6515261   2.562   7.528   1.462 -0.3844 -0.1196  0.8731
   59MOL    H6615262   2.476   7.545   1.305  1.7541 -0.1571 -0.6264
   59MOL    C6715263   2.097   7.624   1.333  0.4257  0.1874  0.4180
   59MOL    C6815264   1.942   7.604   1.350  0.1743  0.8188 -0.1996
   59MOL    O6915265   1.908   7.580   1.480  0.3630  0.1327 -0.0758
   59MOL    C7015266   1.779   7.637   1.508  0.2386  0.2855 -0.4254
   59MOL    C7115267   1.748   7.589   1.651 -0.0871  0.1576 -0.8400
   59MOL    H7215268   2.144   7.526   1.346  0.0121 -0.0620  0.0114
   59MOL    H7315269   2.119   7.668   1.236  1.2920  0.9233  0.9268
   59MOL    H7415270   1.892   7.685   1.297  0.4942  0.6199 -0.8184
   59MOL    H7515271   1.713   7.612   1.425  0.8705  2.7578 -1.7269
   59MOL    H7615272   1.784   7.746   1.504 -1.2907  0.3855  0.0794
   59MOL    H7715273   1.826   7.632   1.714 -1.3134  1.4322 -0.1614
   59MOL    H7815274   1.654   7.619   1.696  1.1217  1.2641  1.0471
   59MOL    H7915275   1.748   7.481   1.660  0.6498  0.3213  1.7159
   59MOL    C8015276   1.903   7.476   1.266  0.2886  0.3180  0.5984
   59MOL    C8115277   1.936   7.494   1.109 -0.0769 -0.5176  0.3927
   59MOL    O8215278   1.853   7.602   1.071 -0.6905 -0.3952  0.0071
   59MOL    C8315279   1.909   7.698   0.986  0.1730  0.6595  0.0957
   59MOL    C8415280   1.808   7.796   0.944  1.1353  0.7659  0.6860
   59MOL    H8515281   1.797   7.460   1.283  0.2241  0.9933  0.8387
   59MOL    H8615282   1.944   7.384   1.308 -0.5594 -0.5826 -0.5074
   59MOL    H8715283   2.036   7.527   1.082 -0.0133  0.0827  1.3203
   59MOL    H8815284   1.941   7.635   0.903 -0.5099 -0.3225  0.5808
   59MOL    H8915285   2.000   7.740   1.030  0.9585 -1.8986  1.0144
   59MOL    H9015286   1.840   0.027   0.872  0.8081 -0.2783 -0.5474
   59MOL    H9115287   1.730   7.743   0.890  0.2642  0.9164  1.7622
   59MOL    H9215288   1.759   7.842   1.030  0.3744  0.4735  0.4108
   59MOL    C9315289   1.901   7.373   1.020  1.4697  0.7417  0.1584
   59MOL    C9415290   1.985   7.244   1.055 -0.7076 -0.0870  0.5183
   59MOL    O9515291   2.121   7.285   1.052 -1.0294  0.1927  0.1073
   59MOL    C9615292   2.207   7.196   1.130  0.5968 -0.7692  0.5720
   59MOL    C9715293   2.348   7.253   1.124 -0.6483 -0.4477 -0.1301
   59MOL    H9815294   1.919   7.409   0.919 -0.9781  0.6108 -0.3743
   59MOL    H9915295   1.793   7.363   1.033  1.5376 -1.8052 -0.7616
   59MOL   H10015296   1.948   7.219   1.155 -1.4238  1.7195  0.7241
   59MOL   H10115297   2.206   7.092   1.097  0.0128 -0.9989  1.3102
   59MOL   H10215298   2.177   7.190   1.234 -2.0396 -1.4315 -0.1848
   59MOL   H10315299   2.405   7.208   1.205  1.7612  0.7877 -1.0989
   59MOL   H10415300   2.407   7.229   1.036  1.8971  0.2938  1.3175
   59MOL   H10515301   2.351   7.356   1.159 -1.7021 -0.0849 -1.0809
   59MOL   C10615302   1.959   7.120   0.969 -0.3746 -0.8923 -0.1230
   59MOL   C10715303   1.831   7.042   0.995 -0.0052 -0.2514  0.4741
   59MOL   O10815304   1.849   6.984   1.118  0.3382  0.2792 -0.4151
   59MOL   C10915305   1.747   6.991   1.211 -0.1673 -0.5262 -1.1263
   59MOL   C11015306   1.746   7.125   1.286  0.0957  0.3035  0.2974
   59MOL   H11115307   2.043   7.051   0.966  0.5566  0.1795  1.0323
   59MOL   H11215308   1.968   7.157   0.867  0.5863  1.2343  0.7156
   59MOL   H11315309   1.738   7.099   0.984 -0.5762 -1.5093 -1.5208
   59MOL   H11415310   1.759   6.918   1.291 -1.8887  1.5673  1.1129
   59MOL   H11515311   1.647   6.970   1.174 -1.3020 -0.2362  1.6473
   59MOL   H11615312   1.833   7.126   1.352 -0.3685 -1.5256  0.9516
   59MOL   H11715313   1.747   7.208   1.215 -0.5945 -0.0993 -0.1924
   59MOL   H11815314   1.668   7.133   1.363  1.3203  1.5897  1.4333
   59MOL   C11915315   1.799   6.931   0.896 -0.3087 -0.3152  0.7866
   59MOL   C12015316   1.783   6.989   0.745 -0.8232 -0.2009 -0.0853
   59MOL   O12115317   1.713   7.110   0.740 -0.0123  0.2522  0.1279
   59MOL   C12215318   1.732   7.196   0.620  0.2558  0.1097 -0.3096
   59MOL   C12315319   1.693   7.336   0.654 -0.1358 -0.6522 -0.2532
   59MOL   H12415320   1.704   6.879   0.910 -2.3930  3.1407  0.1074
   59MOL   H12515321   1.873   6.851   0.902  0.7302  0.6888  1.4244
   59MOL   H12615322   1.887   7.006   0.717 -0.5481  1.1385  1.6739
   59MOL   H12715323   1.672   7.171   0.533  0.4194 -0.0107 -0.3872
   59MOL   H12815324   1.838   7.193   0.595  0.6415  1.5633  1.0333
   59MOL   H12915325   1.695   7.396   0.563  1.9406  0.4238  0.4770
   59MOL   H13015326   1.588   7.351   0.681 -0.4885 -0.2770 -1.7650
   59MOL   H13115327   1.758   7.391   0.722 -0.9622  0.6466 -0.4855
   59MOL   C13215328   1.731   6.879   0.648 -0.6102  0.1372  0.1945
   59MOL   C13315329   1.839   6.814   0.561  0.4426 -0.2335 -0.7761
   59MOL   O13415330   1.883   6.915   0.472 -0.2380 -0.7248  0.2851
   59MOL   C13515331   2.011   6.871   0.415  0.0461 -0.4802  0.1785
   59MOL   C13615332   2.072   6.985   0.340  0.8568  0.5153 -0.0050
   59MOL   H13715333   1.655   6.926   0.586 -0.3829 -0.1149 -0.2741
   59MOL   H13815334   1.691   6.797   0.707  0.3150  0.8671  1.8809
   59MOL   H13915335   1.918   6.775   0.625  1.0544  1.1931 -0.6597
   59MOL   H14015336   2.008   6.776   0.362  0.9980 -0.3521 -0.1176
   59MOL   H14115337   2.081   6.851   0.497  0.5402  1.4368  0.2484
   59MOL   H14215338   1.997   7.025   0.271  1.6540  0.7984 -0.7125
   59MOL   H14315339   2.100   7.060   0.413  0.6838 -0.6038  1.2340
   59MOL   H14415340   2.153   6.945   0.280 -1.3380 -1.8961 -1.5149
   59MOL   C14515341   1.773   6.689   0.487 -0.0836 -0.0917  0.5713
   59MOL   C14615342   1.767   6.568   0.578 -0.2098  0.5033  0.7176
   59MOL   O14715343   1.898   6.516   0.575  0.1034 -0.2961 -0.2840
   59MOL   C14815344   1.939   6.462   0.702 -0.1489  0.4155  0.5386
   59MOL   C14915345   2.054   6.539   0.769  0.1300  0.2186 -0.3207
   59MOL   H15015346   1.818   6.654   0.394 -1.7845 -1.1506  0.1191
   59MOL   H15115347   1.669   6.711   0.460  0.2203  1.0990  0.3347
   59MOL   H15215348   1.732   6.578   0.681  0.0621  0.9458  0.7717
   59MOL   H15315349   1.964   6.356   0.688 -0.6185  0.4509 -0.5892
   59MOL   H15415350   1.857   6.456   0.775 -1.8706  1.8556 -1.2335
   59MOL   H15515351   2.006   6.620   0.824 -3.5596 -1.5657 -0.7487
   59MOL   H15615352   2.112   6.475   0.835  1.1372 -0.2029 -1.5987
   59MOL   H15715353   2.123   6.585   0.698  0.5132 -0.2906 -0.2747
   59MOL   C15815354   1.678   6.462   0.521 -0.2468  0.7336  0.5915
   59MOL   C15915355   1.665   6.325   0.579  0.2049  0.2573 -0.2924
   59MOL   O16015356   1.592   6.252   0.474  0.2661 -0.6120  0.0840
   59MOL   C16115357   1.605   6.113   0.488  0.3705  0.1883 -0.0279
   59MOL   C16215358   1.522   6.045   0.378 -0.1098  0.2790 -0.8571
   59MOL   H16315359   1.715   6.438   0.421 -1.1658  0.1994  0.3822
   59MOL   H16415360   1.579   6.504   0.503 -0.0546  1.2306  0.6770
   59MOL   H16515361   1.758   6.272   0.600 -0.6376 -0.6589  1.2345
   59MOL   H16615362   1.578   6.068   0.583 -0.2029  1.7267  0.5622
   59MOL   H16715363   1.711   6.089   0.479  0.0531 -1.0679 -0.3852
   59MOL   H16815364   1.461   5.965   0.420 -0.0967  0.2357 -0.9220
   59MOL   H16915365   1.451   6.118   0.336 -0.4287  1.6579  1.9315
   59MOL   H17015366   1.583   6.026   0.291 -0.9552 -1.9518 -0.9829
   59MOL   C17115367   1.566   6.322   0.697  0.0366 -0.3363  0.9236
   59MOL   C17215368   1.620   6.282   0.838  0.0778 -0.2817 -0.0164
   59MOL   O17315369   1.675   6.147   0.834  0.3187 -0.2376  0.3341
   59MOL   C17415370   1.769   6.114   0.938  0.0989  0.1218  0.5029
   59MOL   C17515371   1.849   5.992   0.894  0.2024 -0.1249  0.0168
   59MOL   H17615372   1.477   6.271   0.661  1.0223 -1.3950 -0.0311
   59MOL   H17715373   1.523   6.422   0.702  0.2674  0.1250 -4.2456
   59MOL   H17815374   1.700   6.351   0.865  1.4385 -1.2160 -1.5157
   59MOL   H17915375   1.709   6.098   1.028 -0.8782 -2.6792 -0.6092
   59MOL   H18015376   1.838   6.196   0.956 -0.4881  0.4065  1.5328
   59MOL   H18115377   1.928   6.018   0.823  1.5427 -1.5638  0.9644
   59MOL   H18215378   1.895   5.954   0.985 -2.0891 -0.7469  0.9504
   59MOL   H18315379   1.779   5.917   0.856 -2.1474  2.1633 -0.3142
   59MOL   C18415380   1.510   6.293   0.948 -0.1061 -0.3264 -0.0714
   59MOL   C18515381   1.515   6.438   1.007  0.3999 -0.0406 -0.5758
   59MOL   O18615382   1.635   6.470   1.082 -0.5981 -0.6331  0.4111
   59MOL   C18715383   1.705   6.595   1.048 -0.0098  0.1411 -0.3487
   59MOL   C18815384   1.821   6.582   1.135 -0.5512 -0.0591  0.5544
   59MOL   H18915385   1.533   6.221   1.026  2.2427  0.8157  0.3390
   59MOL   H19015386   1.410   6.270   0.911 -0.6663  0.1969  1.0742
   59MOL   H19115387   1.496   6.514   0.931 -1.0225  1.9491  1.7076
   59MOL   H19215388   1.647   6.686   1.063  1.1454  0.7069  0.8013
   59MOL   H19315389   1.741   6.594   0.946 -2.9338 -3.4420 -1.4798
   59MOL   H19415390   1.803   6.583   1.243  2.0996  3.0779  1.0941
   59MOL   H19515391   1.875   6.490   1.113 -1.2943 -0.5416  0.7509
   59MOL   H19615392   1.890   6.663   1.109  0.2363 -0.9098 -0.0183
   59MOL   C19715393   1.405   6.446   1.112 -0.2167  0.2741  0.6150
   59MOL   C19815394   1.287   6.534   1.070 -0.1172  0.2180  0.5207
   59MOL   O19915395   1.332   6.664   1.089 -0.9126  0.0696 -0.1676
   59MOL   C20015396   1.266   6.767   1.013  0.2502  0.4025 -0.6837
   59MOL   C20115397   1.335   6.905   1.036 -0.4311  0.1169 -0.7041
   59MOL   H20215398   1.449   6.475   1.207  1.9152 -2.1917  0.4208
   59MOL   H20315399   1.363   6.347   1.129  1.5915 -0.7320 -0.4976
   59MOL   H20415400   1.271   6.509   0.965 -1.5024  0.3016  0.7055
   59MOL   H20515401   1.161   6.772   1.040 -0.5031 -3.9456 -2.4190
   59MOL   H20615402   1.265   6.742   0.907 -0.3281 -1.2802 -0.2922
   59MOL   H20715403   1.443   6.898   1.026 -0.3802 -0.9751  0.4608
   59MOL   H20815404   1.305   6.972   0.955  1.5962  1.7409 -0.1474
   59MOL   H20915405   1.310   6.939   1.136 -0.0731 -2.8589  0.4380
   59MOL   C21015406   1.148   6.508   1.136  0.6298 -0.1871  0.9162
   59MOL   C21115407   1.090   6.373   1.092 -0.2880  0.8734  0.7036
   59MOL   O21215408   1.078   6.375   0.954  0.5582  0.2021 -0.3354
   59MOL   C21315409   1.110   6.257   0.886 -0.0762  0.2280  0.0606
   59MOL   C21415410   1.146   6.301   0.749 -0.0037 -0.2555  0.0648
   59MOL   H21515411   1.075   6.583   1.104  0.0593 -0.7519  0.8941
   59MOL   H21615412   1.155   6.522   1.244 -1.0342  3.1874  0.6746
   59MOL   H21715413   1.150   6.288   1.126 -2.2338 -2.5210 -3.9596
   59MOL   H21815414   1.038   6.176   0.875 -2.8517  2.6603 -0.3923
   59MOL   H21915415   1.196   6.216   0.938 -0.2738 -0.7225 -0.3496
   59MOL   H22015416   1.216   6.384   0.752  0.3725 -0.4708 -1.9948
   59MOL   H22115417   1.182   6.219   0.687  1.0077  1.1605 -1.2381
   59MOL   H22215418   1.054   6.336   0.703  0.1744  0.4673  0.2500
   59MOL   C22315419   0.949   6.347   1.138  0.1579  0.0179  0.1548
   59MOL   C22415420   0.941   6.325   1.286  0.2137 -0.0210 -0.0205
   59MOL   O22515421   0.986   6.197   1.304 -0.1649  0.5148  0.4249
   59MOL   C22615422   1.076   6.188   1.413 -0.2231 -0.7044 -0.0903
   59MOL   C22715423   1.219   6.229   1.375 -0.4602 -0.1082 -0.3523
   59MOL   H22815424   0.904   6.256   1.097 -0.0908 -0.0470  0.5685
   59MOL   H22915425   0.885   6.427   1.102  0.1258  0.3273  0.8901
   59MOL   H23015426   1.011   6.396   1.330  1.0010 -0.3859 -0.6775
   59MOL   H23115427   1.066   6.085   1.445 -2.2856 -0.6647 -0.5096
   59MOL   H23215428   1.034   6.242   1.498  1.9300  3.0841 -1.2881
   59MOL   H23315429   1.283   6.224   1.463 -0.9062 -1.8134 -0.1221
   59MOL   H23415430   1.259   6.162   1.298  3.2761  0.6437  0.7997
   59MOL   H23515431   1.224   6.333   1.342  0.3480 -0.3797 -1.1080
   59MOL   C23615432   0.794   6.342   1.335  0.0008  0.1002  0.2379
   59MOL   C23715433   0.756   6.486   1.372  0.6718  0.0026  0.7417
   59MOL   O23815434   0.858   6.530   1.458  0.0232  0.9198  0.9599
   59MOL   C23915435   0.888   6.662   1.465 -0.0106  0.4182 -0.0976
   59MOL   C24015436   0.965   6.681   1.596 -0.4381 -0.0152  0.3470
   59MOL   H24115437   0.772   6.280   1.422 -0.5069 -0.1385 -0.0602
   59MOL   H24215438   0.736   6.305   1.251 -0.0764  1.0487 -0.1300
   59MOL   H24315439   0.756   6.541   1.278 -0.1277  0.4040  0.9712
   59MOL   H24415440   0.796   6.718   1.451  0.7989  1.4798 -1.2646
   59MOL   H24515441   0.947   6.698   1.381 -0.3018  1.3423  0.0909
   59MOL   H24615442   0.899   6.688   1.683 -1.1319  0.8296 -0.2342
   59MOL   H24715443   1.034   6.598   1.609  0.1856  0.4531  0.0520
   59MOL   H24815444   1.028   6.770   1.592  0.3716 -0.4723  2.1950
   59MOL   C24915445   0.614   6.490   1.427 -0.1013  0.1216 -0.8230
   59MOL   C25015446   0.601   6.427   1.566 -0.1887 -0.2015  0.4632
   59MOL   O25115447   0.471   6.465   1.612 -0.1565 -0.2698  0.4682
   59MOL   C25215448   0.417   6.386   1.717 -0.2576  0.2965  0.0099
   59MOL   C25315449   0.501   6.405   1.845  0.2644  0.1139 -0.3033
   59MOL   H25415450   0.544   6.439   1.361  0.7537  1.1648 -2.5494
   59MOL   H25515451   0.579   6.592   1.437  2.4803  0.8666  1.3342
   59MOL   H25615452   0.603   6.318   1.562  1.9962 -0.1655 -1.1249
   59MOL   H25715453   0.409   6.285   1.678 -0.1386  0.3363 -0.1162
   59MOL   H25815454   0.315   6.417   1.740 -0.2339 -0.0102  0.5534
   59MOL   H25915455   0.445   6.350   1.921  0.1402 -0.2806 -0.6799
   59MOL   H26015456   0.601   6.362   1.852 -0.3456 -0.9724  2.2185
   59MOL   H26115457   0.495   6.508   1.881 -1.7287 -0.5164  1.2547
   59MOL   H26215458   0.670   6.472   1.638  0.0278  1.1489 -0.5649
   60MOL     C115459   3.045   2.663   5.478  0.6865  0.2122 -0.5544
   60MOL     C215460   3.184   2.702   5.418  0.7593 -0.2571  0.4902
   60MOL     O315461   3.198   2.707   5.282 -0.3508  0.1888 -0.1565
   60MOL     C415462   3.118   2.795   5.208  0.3160  0.3165  0.5798
   60MOL     C515463   3.164   2.793   5.058 -0.4973  0.0527  0.0280
   60MOL     H615464   2.968   2.731   5.440 -2.8241 -2.3038  1.7375
   60MOL     H715465   3.023   2.563   5.443  1.7098  0.4659 -1.9774
   60MOL     H815466   3.205   2.802   5.457 -0.0252 -0.0544  0.4046
   60MOL     H915467   3.115   2.893   5.256  1.2145 -0.0781  1.4563
   60MOL    H1015468   3.014   2.763   5.219  0.1899  0.6677  0.4354
   60MOL    H1115469   3.147   2.693   5.019 -4.2913  0.0786  1.3600
   60MOL    H1215470   3.107   2.853   4.987  2.9886 -0.0083 -2.9693
   60MOL    H1315471   3.267   2.824   5.044 -0.5698  1.1073  1.7102
   60MOL    H1415472   3.047   2.662   5.587  0.7774 -0.7153 -0.5642
   60MOL    C1515473   3.291   2.606   5.468 -0.0323 -0.7978 -0.9192
   60MOL    C1615474   3.439   2.642   5.436  0.2631 -0.6784 -0.0279
   60MOL    O1715475   3.529   2.555   5.489 -0.6237  0.2310 -0.2888
   60MOL    C1815476   3.546   2.424   5.442  0.0267  0.5126  0.5617
   60MOL    C1915477   3.663   2.376   5.530  0.2660 -0.1495 -0.4725
   60MOL    H2015478   3.277   2.510   5.418 -1.3754 -0.7616 -0.6388
   60MOL    H2115479   3.283   2.586   5.575  1.1211  0.1414 -0.6570
   60MOL    H2215480   3.453   2.638   5.328 -0.1241  0.2204 -0.1145
   60MOL    H2315481   3.571   2.412   5.336 -0.2551  0.4631  0.5015
   60MOL    H2415482   3.457   2.365   5.464 -0.3627  0.3298 -1.4206
   60MOL    H2515483   3.647   2.386   5.637  0.9923  0.5173 -0.4232
   60MOL    H2615484   3.748   2.438   5.500  1.5501 -1.2218  0.8237
   60MOL    H2715485   3.697   2.273   5.517 -1.0308 -0.9504  2.3143
   60MOL    C2815486   3.483   2.782   5.488 -0.2350  0.1727 -0.2529
   60MOL    C2915487   3.616   2.828   5.425 -0.1643  0.6021 -0.3612
   60MOL    O3015488   3.665   2.935   5.507 -0.1853  0.6136  0.3478
   60MOL    C3115489   3.764   2.895   5.596  0.3563 -0.3690 -0.7394
   60MOL    C3215490   3.900   2.926   5.535  0.2921 -0.3352 -0.0544
   60MOL    H3315491   3.498   2.770   5.595 -0.5732  1.8646  0.0055
   60MOL    H3415492   3.400   2.852   5.478 -1.5295 -1.3039 -0.0336
   60MOL    H3515493   3.688   2.745   5.424  1.1062  1.6846 -0.1876
   60MOL    H3615494   3.776   2.798   5.643  0.4132 -0.2727 -0.5521
   60MOL    H3715495   3.738   2.951   5.686  1.5266  1.6232 -1.6098
   60MOL    H3815496   3.971   2.914   5.617  0.2054  0.1861  0.1007
   60MOL    H3915497   3.918   2.863   5.448 -0.4436 -1.4459  0.5754
   60MOL    H4015498   3.909   3.025   5.490 -0.3405 -1.2309 -2.2207
   60MOL    C4115499   3.599   2.889   5.290  0.0713  0.1920  0.4440
   60MOL    C4215500   3.731   2.906   5.213  0.7010 -0.7351 -0.4682
   60MOL    O4315501   3.684   2.972   5.093  0.2061 -0.3176 -0.4208
   60MOL    C4415502   3.774   3.048   5.014 -0.6040 -0.9608  0.4493
   60MOL    C4515503   3.693   3.142   4.931  0.2990  0.6003 -0.2867
   60MOL    H4615504   3.539   2.979   5.304 -2.3577 -1.3998  0.7642
   60MOL    H4715505   3.532   2.834   5.224 -0.9602 -0.3461  1.8866
   60MOL    H4815506   3.801   2.968   5.270 -1.6434  1.5496  0.0157
   60MOL    H4915507   3.836   2.976   4.961 -0.1856 -1.7835  2.0273
   60MOL    H5015508   3.838   3.111   5.076 -0.2109 -2.1396  1.2544
   60MOL    H5115509   3.612   3.088   4.882  0.4894  0.4787 -0.4690
   60MOL    H5215510   3.649   3.223   4.989 -1.6709  0.5617 -1.6809
   60MOL    H5315511   3.740   3.190   4.844  0.0321  0.7740 -0.3350
   60MOL    C5415512   3.806   2.775   5.172  0.4863  0.3422 -0.2131
   60MOL    C5515513   3.726   2.676   5.077  0.0272 -0.2243 -0.5276
   60MOL    O5615514   3.804   2.551   5.069 -0.8010 -0.0100 -0.6094
   60MOL    C5715515   3.745   2.433   5.129  0.6080  0.1020  0.6832
   60MOL    C5815516   3.817   2.305   5.095 -0.0973  0.6393 -0.0323
   60MOL    H5915517   3.851   2.725   5.257 -0.6322 -0.3467 -0.0120
   60MOL    H6015518   3.897   2.809   5.124  1.1298  0.2708  0.9350
   60MOL    H6115519   3.632   2.659   5.130  0.0152  1.6658  0.0817
   60MOL    H6215520   3.638   2.426   5.110  0.4656  1.4910  0.9372
   60MOL    H6315521   3.752   2.448   5.237  0.3227 -0.9533  0.8614
   60MOL    H6415522   3.790   2.233   5.173 -0.9829  0.8854 -0.1088
   60MOL    H6515523   3.784   2.262   5.000 -1.3502  0.8563  0.2959
   60MOL    H6615524   3.926   2.304   5.095 -0.0964 -1.5808  0.4405
   60MOL    C6715525   3.700   2.718   4.935  0.0176  0.4086  1.1952
   60MOL    C6815526   3.625   2.622   4.846  0.6551  0.4460 -0.4052
   60MOL    O6915527   3.695   2.628   4.718  0.2109  0.0703 -0.1650
   60MOL    C7015528   3.788   2.531   4.690  0.2472  0.4611  0.3063
   60MOL    C7115529   3.843   2.546   4.553  0.2830  1.1332 -0.1226
   60MOL    H7215530   3.799   2.728   4.890 -0.9518  0.5247 -0.9812
   60MOL    H7315531   3.646   2.813   4.934 -2.1167 -0.7637  1.7428
   60MOL    H7415532   3.640   2.520   4.883 -1.9556  0.1588 -0.0973
   60MOL    H7515533   3.761   2.426   4.702 -1.3797  0.7028 -1.0392
   60MOL    H7615534   3.876   2.539   4.754  0.6741  0.6692 -0.3082
   60MOL    H7715535   3.835   2.652   4.531 -2.5133  1.0617  0.3561
   60MOL    H7815536   3.941   2.504   4.532  0.8785  1.8614  1.1499
   60MOL    H7915537   3.780   2.495   4.479 -1.8526 -1.0692  3.0546
   60MOL    C8015538   3.475   2.645   4.821  0.0350  0.3409  0.2772
   60MOL    C8115539   3.387   2.518   4.811 -0.6485 -0.1795 -0.5477
   60MOL    O8215540   3.415   2.434   4.920  0.0790 -0.4762  0.0710
   60MOL    C8315541   3.353   2.478   5.042 -0.4126  0.2850 -0.5728
   60MOL    C8415542   3.341   2.358   5.133 -0.3593 -0.0093 -0.9870
   60MOL    H8515543   3.470   2.687   4.720 -0.4282 -1.2400 -0.3785
   60MOL    H8615544   3.433   2.726   4.880  2.2388  1.3869  0.4732
   60MOL    H8715545   3.280   2.535   4.816 -0.9344 -2.3354  2.7343
   60MOL    H8815546   3.255   2.523   5.029 -0.7415 -0.3256 -0.2430
   60MOL    H8915547   3.412   2.558   5.087  0.1382 -0.6322  0.3739
   60MOL    H9015548   3.440   2.320   5.157  0.0727  2.2240  0.9375
   60MOL    H9115549   3.279   2.380   5.221 -0.7271 -0.5861 -1.0977
   60MOL    H9215550   3.281   2.281   5.085 -1.0526 -0.4459  0.5255
   60MOL    C9315551   3.413   2.432   4.686 -0.3344 -0.0237  0.2376
   60MOL    C9415552   3.370   2.289   4.673 -1.0451 -1.0130  0.1502
   60MOL    O9515553   3.432   2.224   4.563  0.0133 -0.5236 -0.3816
   60MOL    C9615554   3.545   2.136   4.588 -0.4849  0.4318  0.1291
   60MOL    C9715555   3.613   2.114   4.454  0.0353 -0.0290 -0.9996
   60MOL    H9815556   3.522   2.429   4.687 -0.3475 -0.8641 -0.6402
   60MOL    H9915557   3.385   2.492   4.599  0.0151 -0.2945 -0.0635
   60MOL   H10015558   3.394   2.239   4.766 -0.9212 -0.3439  0.4797
   60MOL   H10115559   3.513   2.045   4.638 -0.3165  0.1675 -0.2359
   60MOL   H10215560   3.612   2.192   4.653  1.0424  0.5027 -1.4464
   60MOL   H10315561   3.537   2.085   4.382 -1.2089 -2.5694  1.2798
   60MOL   H10415562   3.669   2.201   4.419 -0.5576  1.1495  0.9097
   60MOL   H10515563   3.689   2.037   4.463 -0.6827 -0.7911 -1.4581
   60MOL   C10615564   3.215   2.275   4.655  0.3055 -0.1436  0.5153
   60MOL   C10715565   3.159   2.148   4.716 -0.3969  0.2162 -0.0655
   60MOL   O10815566   3.024   2.146   4.673  0.5915 -0.0641  0.3823
   60MOL   C10915567   2.984   2.044   4.588  0.0894 -0.7315 -0.0961
   60MOL   C11015568   2.828   2.046   4.593 -0.8169 -0.0711  0.1125
   60MOL   H11115569   3.181   2.289   4.553 -1.8491 -0.0381  1.2394
   60MOL   H11215570   3.182   2.363   4.711  3.0771  0.9686  0.5336
   60MOL   H11315571   3.217   2.069   4.670  0.4557  0.4088  0.6708
   60MOL   H11415572   3.012   1.942   4.617 -1.1094 -1.9421 -2.9793
   60MOL   H11515573   3.022   2.071   4.490  0.3279 -0.7304 -0.0043
   60MOL   H11615574   2.780   1.965   4.539  0.4437 -0.2970 -0.6851
   60MOL   H11715575   2.797   2.047   4.698 -1.5580  1.4109 -0.1031
   60MOL   H11815576   2.783   2.133   4.545 -2.2854 -0.2815  1.0410
   60MOL   C11915577   3.168   2.144   4.869 -0.0739  0.0175  0.0937
   60MOL   C12015578   3.116   2.008   4.926  0.5317  0.3791 -0.1536
   60MOL   O12115579   3.044   2.038   5.043 -0.5570 -0.5617 -0.1301
   60MOL   C12215580   2.902   2.055   5.028  0.5670 -0.5098  0.1348
   60MOL   C12315581   2.838   2.040   5.166 -0.1566 -0.6314 -0.0734
   60MOL   H12415582   3.114   2.233   4.903 -1.3033 -0.1482 -1.3396
   60MOL   H12515583   3.270   2.161   4.903 -0.6527 -0.2679  2.0032
   60MOL   H12615584   3.050   1.953   4.860 -0.9706 -0.1594  1.7470
   60MOL   H12715585   2.861   1.990   4.951 -0.0731  0.3772 -0.2957
   60MOL   H12815586   2.894   2.156   4.986 -4.3091 -0.2517  1.3824
   60MOL   H12915587   2.879   1.956   5.223  2.0137  0.6594  0.3210
   60MOL   H13015588   2.875   2.120   5.231  1.0218 -1.6641  0.5541
   60MOL   H13115589   2.729   2.038   5.171 -0.2117 -2.8143 -1.7838
   60MOL   C13215590   3.230   1.915   4.965 -0.1062 -0.2409  0.1597
   60MOL   C13315591   3.194   1.774   5.023 -0.2777  0.5870 -0.2729
   60MOL   O13415592   3.237   1.756   5.157  0.6175 -0.2454 -0.0988
   60MOL   C13515593   3.174   1.838   5.251  0.0414  0.6637  0.4715
   60MOL   C13615594   3.226   1.799   5.389 -0.4294  0.0519  0.4928
   60MOL   H13715595   3.307   1.957   5.030  0.7544  0.2702 -1.1609
   60MOL   H13815596   3.271   1.899   4.865 -3.3106 -1.4361 -1.0453
   60MOL   H13915597   3.085   1.765   5.018 -0.1793 -0.4422 -0.7330
   60MOL   H14015598   3.069   1.809   5.244 -0.0219  0.8951  0.4641
   60MOL   H14115599   3.192   1.939   5.213 -1.3855  0.6259 -0.3339
   60MOL   H14215600   3.174   1.861   5.461 -1.2301  0.6574 -0.5827
   60MOL   H14315601   3.229   1.692   5.407  1.3892  0.2256  1.4200
   60MOL   H14415602   3.330   1.831   5.401 -0.5363  1.2700 -1.4873
   60MOL   C14515603   3.260   1.664   4.937 -0.2954  0.6903  0.4810
   60MOL   C14615604   3.206   1.638   4.794  0.1973 -0.2959  0.8074
   60MOL   O14715605   3.074   1.581   4.800  0.0291  0.3061 -0.3021
   60MOL   C14815606   2.985   1.625   4.703  0.5696 -0.5278 -0.2464
   60MOL   C14915607   2.865   1.532   4.689  0.0329  0.0623 -0.3124
   60MOL   H15015608   3.254   1.570   4.991  1.4570  1.2524  1.7034
   60MOL   H15115609   3.367   1.687   4.937 -0.3592  1.0485 -0.8731
   60MOL   H15215610   3.202   1.737   4.748  0.6793 -1.1597 -1.1487
   60MOL   H15315611   3.036   1.630   4.607 -0.4949 -1.4816 -0.8737
   60MOL   H15415612   2.944   1.722   4.732 -0.9833 -1.1026 -0.4729
   60MOL   H15515613   2.801   1.523   4.776 -0.2164 -1.7063 -0.6440
   60MOL   H15615614   2.794   1.555   4.609 -0.5376  0.6538  0.3631
   60MOL   H15715615   2.906   1.434   4.664  0.1250  0.0787 -0.2239
   60MOL   C15815616   3.309   1.556   4.708  0.1567  0.5989 -0.1116
   60MOL   C15915617   3.415   1.643   4.643  0.2542  0.2907 -0.7999
   60MOL   O16015618   3.345   1.705   4.531 -0.4509  0.0201  0.5261
   60MOL   C16115619   3.367   1.845   4.520 -0.2327  0.0773 -0.2463
   60MOL   C16215620   3.260   1.914   4.432  0.4367  0.5105  0.2904
   60MOL   H16315621   3.251   1.495   4.638  0.6734  0.0961 -0.1086
   60MOL   H16415622   3.346   1.472   4.767  0.4087  0.6024 -0.2630
   60MOL   H16515623   3.451   1.712   4.719 -1.3436 -1.1625  1.3491
   60MOL   H16615624   3.467   1.868   4.480 -0.5943  2.2794  0.0379
   60MOL   H16715625   3.357   1.879   4.623  1.1033  1.8063 -0.6395
   60MOL   H16815626   3.163   1.877   4.467  0.7922  2.8909  4.1204
   60MOL   H16915627   3.258   2.023   4.442  0.4401  0.3904  1.7714
   60MOL   H17015628   3.278   1.900   4.326  3.2059  0.1279  0.7834
   60MOL   C17115629   3.529   1.560   4.578 -0.8080  0.0685  0.0822
   60MOL   C17215630   3.661   1.630   4.553  0.3040 -0.3726 -1.0967
   60MOL   O17315631   3.757   1.554   4.479  0.0184 -0.6135 -0.1989
   60MOL   C17415632   3.769   1.584   4.337  0.5009 -0.5447 -0.0712
   60MOL   C17515633   3.878   1.494   4.279 -0.1036 -0.9819 -0.2028
   60MOL   H17615634   3.491   1.516   4.486  1.7645 -0.7324 -0.6364
   60MOL   H17715635   3.539   1.478   4.650 -0.5602 -0.4767 -0.5736
   60MOL   H17815636   3.627   1.709   4.487 -0.1570  0.9686  0.6869
   60MOL   H17915637   3.806   1.687   4.340  0.0741 -0.3742 -0.5810
   60MOL   H18015638   3.678   1.579   4.277 -0.5136 -0.7447  1.4706
   60MOL   H18115639   3.954   1.487   4.358 -1.3382 -0.1112  1.0912
   60MOL   H18215640   3.835   1.399   4.246 -1.2839 -0.5840  0.1700
   60MOL   H18315641   3.928   1.540   4.194  0.3445  1.0784  1.1249
   60MOL   C18415642   3.722   1.698   4.681  0.1008  0.0211 -0.4434
   60MOL   C18515643   3.763   1.604   4.798 -0.7033 -0.5487 -0.2343
   60MOL   O18615644   3.829   1.676   4.904 -0.3035 -0.2586 -0.7300
   60MOL   C18715645   3.740   1.733   5.003 -0.4964  0.1721 -0.0761
   60MOL   C18815646   3.817   1.805   5.110 -0.3900  0.4542 -0.6690
   60MOL   H18915647   3.648   1.774   4.706 -0.2790  0.2104 -2.0727
   60MOL   H19015648   3.813   1.748   4.648 -0.4575  0.4836 -1.2880
   60MOL   H19115649   3.667   1.566   4.835 -0.3780  1.2491  2.5847
   60MOL   H19215650   3.683   1.652   5.049  1.9080 -0.2146  2.3414
   60MOL   H19315651   3.665   1.796   4.955 -0.8381 -0.2536 -0.1103
   60MOL   H19415652   3.750   1.825   5.193  0.7337 -2.0754  0.8887
   60MOL   H19515653   3.897   1.736   5.139 -0.0023  0.3303 -1.9944
   60MOL   H19615654   3.872   1.894   5.077  0.1525  0.1056 -0.7009
   60MOL   C19715655   3.860   1.484   4.769  0.1545 -0.1531  0.0310
   60MOL   C19815656   3.898   1.394   4.888 -0.5881  0.1900 -0.6509
   60MOL   O19915657   4.008   1.321   4.835 -0.3427  0.1452  0.0998
   60MOL   C20015658   4.134   1.369   4.874 -1.0428  0.9783 -0.0129
   60MOL   C20115659   4.252   1.285   4.805 -0.1528 -0.3488 -0.3218
   60MOL   H20215660   3.943   1.538   4.724 -1.9049  1.6699 -1.6759
   60MOL   H20315661   3.825   1.428   4.682 -0.3948 -0.0885  0.2080
   60MOL   H20415662   3.917   1.453   4.978  2.3497 -0.7405 -0.6280
   60MOL   H20515663   4.135   1.373   4.983  1.5411 -1.2520  0.1125
   60MOL   H20615664   4.149   1.473   4.847 -0.3985  0.3832 -2.0238
   60MOL   H20715665   4.340   1.339   4.839 -1.8083  1.1028  1.7809
   60MOL   H20815666   4.258   1.186   4.849 -1.5009 -0.0436  0.5852
   60MOL   H20915667   4.245   1.279   4.696 -0.4712  3.0719 -0.5519
   60MOL   C21015668   3.782   1.296   4.920  0.1135 -0.9040  0.1315
   60MOL   C21115669   3.800   1.204   5.044  0.0031 -0.4796  0.0633
   60MOL   O21215670   3.669   1.161   5.088 -0.3581 -0.5537  0.3828
   60MOL   C21315671   3.603   1.053   5.020 -0.3656  0.0156 -0.1922
   60MOL   C21415672   3.460   1.071   5.064  0.3542  0.5549  0.3255
   60MOL   H21515673   3.751   1.236   4.835 -0.5798 -1.0589  0.4908
   60MOL   H21615674   3.690   1.345   4.953 -1.1196 -3.2620  0.2752
   60MOL   H21715675   3.845   1.115   5.001  1.4019  0.1629  0.1776
   60MOL   H21815676   3.641   0.953   5.038 -0.1552  0.6081  2.9357
   60MOL   H21915677   3.608   1.074   4.913  0.0022 -0.4722 -0.2668
   60MOL   H22015678   3.401   1.152   5.023 -0.0921 -0.7404 -1.6385
   60MOL   H22115679   3.405   0.982   5.033 -2.1378  1.3177  2.4393
   60MOL   H22215680   3.453   1.062   5.173  1.7829  0.1429  0.3957
   60MOL   C22315681   3.888   1.256   5.158  0.3799  0.5535 -0.9395
   60MOL   C22415682   3.888   1.169   5.283 -0.0245 -0.1709 -0.2877
   60MOL   O22515683   3.959   1.230   5.391 -0.5243  0.3653 -0.3425
   60MOL   C22615684   3.894   1.324   5.475 -0.0963 -0.0464  0.5099
   60MOL   C22715685   3.995   1.366   5.579 -0.8267  0.0875 -0.0486
   60MOL   H22815686   3.862   1.357   5.192 -0.8135 -0.5778  1.6375
   60MOL   H22915687   3.991   1.277   5.126 -0.1105  2.0489 -1.6003
   60MOL   H23015688   3.784   1.152   5.312  0.2003 -2.1482 -0.5667
   60MOL   H23115689   3.809   1.278   5.525  0.0213 -0.2690  0.5055
   60MOL   H23215690   3.845   1.406   5.423 -0.2710 -0.4172  0.0893
   60MOL   H23315691   3.946   1.427   5.655  2.1724 -0.7417  2.6644
   60MOL   H23415692   4.039   1.276   5.622 -1.5568 -0.8218 -1.1778
   60MOL   H23515693   4.077   1.429   5.545  0.5090  0.3386  3.4230
   60MOL   C23615694   3.963   1.038   5.250  0.3009 -0.0982 -1.1659
   60MOL   C23715695   3.960   0.940   5.366 -0.3891  0.1717 -0.2648
   60MOL   O23815696   4.054   0.845   5.321  0.4842 -0.2366  0.1449
   60MOL   C23915697   4.182   0.852   5.390  0.1247  0.0843  0.3340
   60MOL   C24015698   4.268   0.739   5.345 -0.1383  1.2401 -0.1031
   60MOL   H24115699   4.067   1.066   5.232  0.5491  0.2649  0.6765
   60MOL   H24215700   3.923   0.990   5.161 -1.1429  0.0277 -0.5993
   60MOL   H24315701   3.989   0.988   5.460 -1.6222 -0.7191  0.5831
   60MOL   H24415702   4.163   0.852   5.498  0.8490  0.2442  0.4626
   60MOL   H24515703   4.232   0.942   5.354  2.0978 -1.3113 -0.4609
   60MOL   H24615704   4.273   0.740   5.237  0.3590  0.8404 -0.0848
   60MOL   H24715705   4.373   0.743   5.376 -0.4626  2.2661  0.9084
   60MOL   H24815706   4.228   0.648   5.389 -1.7725  1.8364 -0.3367
   60MOL   C24915707   3.830   0.876   5.399  0.1447  0.2733 -0.4446
   60MOL   C25015708   3.834   0.778   5.520  0.3121 -0.9945 -0.0003
   60MOL   O25115709   3.704   0.716   5.518 -0.6457 -0.4843 -0.5229
   60MOL   C25215710   3.691   0.611   5.609 -0.2840 -0.3988 -0.0054
   60MOL   C25315711   3.757   0.486   5.566  0.2088  0.0449  0.5591
   60MOL   H25415712   3.780   0.810   5.328  0.6096  0.9816 -1.4398
   60MOL   H25515713   3.754   0.950   5.424  0.5116  1.5553 -3.0149
   60MOL   H25615714   3.907   0.699   5.502 -0.4340 -1.5342 -0.7496
   60MOL   H25715715   3.583   0.594   5.609 -0.6482  1.7409  0.2633
   60MOL   H25815716   3.717   0.648   5.709 -1.4264  0.7483 -0.1195
   60MOL   H25915717   3.721   0.444   5.472  2.1242 -0.9874  0.2692
   60MOL   H26015718   3.863   0.509   5.556  0.3852 -0.2789  1.6491
   60MOL   H26115719   3.757   0.419   5.652 -0.5632  1.2012  1.4872
   60MOL   H26215720   3.852   0.833   5.612 -0.5001 -1.5589  0.5022
   61MOL     C115721   0.106   5.867   2.743  0.2828 -0.7372  0.0366
   61MOL     C215722   0.184   5.741   2.707  0.1086  0.1033 -0.2124
   61MOL     O315723   0.293   5.786   2.626  0.1063  0.2488 -0.0903
   61MOL     C415724   0.421   5.736   2.682  0.4127  0.0759 -0.4693
   61MOL     C515725   0.546   5.788   2.599  0.2915  0.1856 -0.2360
   61MOL     H615726   0.029   5.855   2.819  0.6869  1.9077  0.9324
   61MOL     H715727   0.157   5.948   2.795 -1.4270 -0.6996  1.7018
   61MOL     H815728   0.219   5.694   2.799 -1.2147  2.3758  1.5138
   61MOL     H915729   0.408   5.627   2.682 -1.2487  0.2539  0.1959
   61MOL    H1015730   0.431   5.758   2.788  0.3637 -2.7190  0.1650
   61MOL    H1115731   0.562   5.896   2.607  1.1318  0.0036  0.6306
   61MOL    H1215732   0.645   5.745   2.616  0.5186  0.0432 -1.8298
   61MOL    H1315733   0.526   5.767   2.494  0.6900  1.1565 -0.5162
   61MOL    H1415734   0.057   5.917   2.659 -0.9958  1.1518  1.8403
   61MOL    C1515735   0.097   5.633   2.627 -0.4551 -0.3239 -0.3328
   61MOL    C1615736   7.818   5.559   2.692 -0.5609 -0.2102 -0.7489
   61MOL    O1715737   0.042   5.483   2.795  0.0112 -0.4281 -0.1203
   61MOL    C1815738   7.814   5.475   2.917  0.1477 -0.4109 -0.3877
   61MOL    C1915739   0.029   5.363   3.000 -0.5414 -0.2892 -0.4564
   61MOL    H2015740   0.167   5.558   2.591  1.9337  1.4631  0.5049
   61MOL    H2115741   0.053   5.668   2.534 -0.4137 -0.8743 -0.5613
   61MOL    H2215742   7.750   5.629   2.743  1.1938  0.6935  0.4016
   61MOL    H2315743   7.707   5.455   2.907 -0.1407  0.1973  1.3973
   61MOL    H2415744   7.819   5.572   2.967 -1.8374 -0.7543  0.5369
   61MOL    H2515745   0.137   5.366   3.016 -0.7758 -2.0575  1.7629
   61MOL    H2615746   0.027   5.265   2.951 -0.2406 -0.9497  0.8194
   61MOL    H2715747   7.814   5.348   3.091 -1.0093  0.1125 -0.6886
   61MOL    C2815748   7.746   5.457   2.600 -0.1276 -0.2165  0.0204
   61MOL    C2915749   7.685   5.506   2.464  0.0538  0.0629  0.5219
   61MOL    O3015750   7.591   5.613   2.494  0.0539  0.2676  0.7254
   61MOL    C3115751   7.557   5.699   2.390 -0.0963  0.1422  1.2836
   61MOL    C3215752   7.538   5.839   2.453 -0.0343 -0.0457  0.3264
   61MOL    H3315753   7.670   5.402   2.655 -0.3083 -0.2080 -0.2235
   61MOL    H3415754   7.824   5.385   2.575 -1.1763 -0.2188 -3.4447
   61MOL    H3515755   7.759   5.555   2.400 -0.8884 -0.0788 -0.6838
   61MOL    H3615756   7.456   5.671   2.362 -0.1292  1.4586  0.0432
   61MOL    H3715757   7.627   5.704   2.306 -0.5226 -1.8729  0.7794
   61MOL    H3815758   7.625   5.902   2.438 -0.1949 -0.0959 -0.7992
   61MOL    H3915759   7.454   5.882   2.398  0.3668  0.9742  0.5023
   61MOL    H4015760   7.514   5.841   2.560 -1.1184  0.3750  0.0864
   61MOL    C4115761   7.643   5.389   2.370  0.0891 -0.2762 -0.0182
   61MOL    C4215762   7.764   5.324   2.296 -0.0222  0.0447 -0.0114
   61MOL    O4315763   7.818   5.412   2.196  0.2983  0.3450  0.3388
   61MOL    C4415764   0.110   5.431   2.196  0.0420  0.6069 -0.4273
   61MOL    C4515765   0.139   5.555   2.110  0.0665  0.2644 -0.4865
   61MOL    H4615766   7.564   5.422   2.303  1.4406 -1.0472 -2.0388
   61MOL    H4715767   7.590   5.306   2.416  1.6915 -1.3845 -0.1154
   61MOL    H4815768   7.841   5.309   2.371  0.3042  1.0500 -0.1399
   61MOL    H4915769   0.177   5.346   2.180 -1.1563 -0.0465 -2.0797
   61MOL    H5015770   0.137   5.466   2.296 -2.0625  0.9034  0.0473
   61MOL    H5115771   0.236   5.602   2.121 -0.3016  0.3037  3.4991
   61MOL    H5215772   0.124   5.526   2.006  0.0017  2.9618 -1.2766
   61MOL    H5315773   0.073   5.640   2.132 -1.7607 -0.7933 -1.7432
   61MOL    C5415774   7.726   5.188   2.235 -0.2651 -0.2783 -0.0602
   61MOL    C5515775   7.690   5.074   2.337  0.4143 -0.1146  0.3283
   61MOL    O5615776   7.768   5.086   2.457 -0.0820 -0.4567  0.4998
   61MOL    C5715777   7.693   5.059   2.578  0.3705 -0.8268 -0.0421
   61MOL    C5815778   7.784   5.026   2.693 -0.4046 -0.6751 -0.6213
   61MOL    H5915779   7.804   5.158   2.165  0.3906  0.2858  0.4296
   61MOL    H6015780   7.637   5.207   2.174  0.1344  1.1179 -0.2194
   61MOL    H6115781   7.591   5.098   2.375  1.1142  2.0108  0.8934
   61MOL    H6215782   7.632   4.969   2.566  0.3793 -0.6345 -1.6425
   61MOL    H6315783   7.621   5.139   2.599  0.9231  0.6771 -3.3963
   61MOL    H6415784   0.007   5.111   2.706 -1.6142  0.2051 -0.1530
   61MOL    H6515785   7.734   5.016   2.790  0.9392  0.5362  0.2117
   61MOL    H6615786   0.014   4.947   2.678 -0.7893 -1.7902  2.8136
   61MOL    C6715787   7.705   4.934   2.278 -0.6581  0.4999  0.0881
   61MOL    C6815788   7.600   4.912   2.174  0.0916  0.0704 -0.0021
   61MOL    O6915789   7.474   4.905   2.246 -0.6652  0.4871  0.7917
   61MOL    C7015790   7.372   4.964   2.169 -0.1173  0.8366 -0.2748
   61MOL    C7115791   7.237   4.936   2.235  0.1179  0.3594 -0.4443
   61MOL    H7215792   7.686   4.860   2.357  0.0257 -0.6566 -0.8204
   61MOL    H7315793   7.799   4.907   2.231 -1.4050 -0.3722 -0.9068
   61MOL    H7415794   7.600   4.993   2.101 -0.9045  1.8633  1.9411
   61MOL    H7515795   7.374   4.929   2.066 -0.6120 -0.1560  0.0480
   61MOL    H7615796   7.379   5.072   2.156 -0.5517  0.6806 -1.8727
   61MOL    H7715797   7.201   4.834   2.251  0.6631  0.3411  0.7387
   61MOL    H7815798   7.242   4.973   2.337  0.6201  0.3075 -0.4484
   61MOL    H7915799   7.159   4.987   2.179 -0.5086  0.3688  0.4432
   61MOL    C8015800   7.628   4.777   2.100 -0.2568 -0.2353  0.9727
   61MOL    C8115801   7.663   4.781   1.954  0.2606  0.0432 -0.0398
   61MOL    O8215802   7.684   4.645   1.921 -0.4419 -0.0197 -0.3774
   61MOL    C8315803   7.574   4.583   1.857  0.1359  0.5306  0.5518
   61MOL    C8415804   7.570   4.607   1.696 -0.2917 -0.6885 -0.3093
   61MOL    H8515805   7.534   4.723   2.114 -0.9582  0.7970  0.3798
   61MOL    H8615806   7.705   4.722   2.153  0.3319  0.5617  0.9598
   61MOL    H8715807   7.581   4.823   1.895  1.1035  3.5786  1.1831
   61MOL    H8815808   7.487   4.634   1.898 -0.4528  0.3347 -0.4379
   61MOL    H8915809   7.559   4.476   1.867  1.7663  0.1533 -0.7368
   61MOL    H9015810   7.655   4.557   1.650  0.4807 -1.2584  1.6826
   61MOL    H9115811   7.481   4.571   1.645 -0.4066  0.7418 -1.1632
   61MOL    H9215812   7.562   4.713   1.669 -0.2110 -0.1600  1.6242
   61MOL    C9315813   7.792   4.864   1.934 -0.0709  0.1811  0.3568
   61MOL    C9415814   7.826   4.900   1.789  0.5064  0.4921 -0.1722
   61MOL    O9515815   7.706   4.961   1.733 -0.0469  0.2040 -0.1896
   61MOL    C9615816   7.722   5.082   1.664 -0.4671  0.1634 -0.1418
   61MOL    C9715817   7.584   5.150   1.643  0.1324  0.4075  1.1113
   61MOL    H9815818   0.022   4.822   2.001 -0.5401 -4.2209 -1.7075
   61MOL    H9915819   7.769   4.966   1.965 -0.4528  0.1913  0.0456
   61MOL   H10015820   0.057   4.979   1.794  2.0182 -0.9990  1.2478
   61MOL   H10115821   7.765   5.071   1.565 -0.5373  1.8094 -0.3635
   61MOL   H10215822   7.795   5.144   1.716  0.0953 -1.5803  1.2083
   61MOL   H10315823   7.579   5.215   1.556  0.7160 -1.1484 -0.1082
   61MOL   H10415824   7.523   5.061   1.633  0.7925  0.0035  0.6211
   61MOL   H10515825   7.551   5.200   1.735  0.2174  1.6981  0.4552
   61MOL   C10615826   0.030   4.777   1.706 -0.1292 -0.1483 -0.1232
   61MOL   C10715827   0.185   4.782   1.683  0.2304 -0.5916  0.4762
   61MOL   O10815828   0.222   4.879   1.579 -0.0049  0.0971  0.7041
   61MOL   C10915829   0.328   4.964   1.604 -0.2674 -0.2009  0.6936
   61MOL   C11015830   0.325   5.067   1.492  0.1036 -0.0904 -0.2872
   61MOL   H11115831   7.824   4.774   1.609  1.5715 -0.3397 -1.0111
   61MOL   H11215832   0.005   4.681   1.750  1.1646 -0.5833 -0.3188
   61MOL   H11315833   0.235   4.804   1.777 -1.1929  2.6353  0.5470
   61MOL   H11415834   0.420   4.906   1.595  0.2599  0.7980 -0.4391
   61MOL   H11515835   0.324   5.017   1.698  0.8736  0.6085  0.2964
   61MOL   H11615836   0.420   5.118   1.483 -0.8644  1.1400 -4.3217
   61MOL   H11715837   0.292   5.022   1.398  0.2803  1.8720 -1.3074
   61MOL   H11815838   0.248   5.143   1.507 -2.1780 -2.9980  3.7414
   61MOL   C11915839   0.246   4.646   1.634  0.0120 -0.4151 -0.3320
   61MOL   C12015840   0.245   4.530   1.739 -0.1765  0.2234  0.1363
   61MOL   O12115841   0.319   4.575   1.852  0.0845  0.7400  0.3572
   61MOL   C12215842   0.269   4.538   1.979 -0.3404 -0.0809 -0.7774
   61MOL   C12315843   0.362   4.613   2.073  0.3220 -0.2445 -0.0830
   61MOL   H12415844   0.349   4.665   1.606  0.1913 -0.0175  0.5488
   61MOL   H12515845   0.179   4.615   1.554  0.1341  0.1229 -0.6470
   61MOL   H12615846   0.149   4.503   1.784 -0.0382  0.0140  0.3037
   61MOL   H12715847   0.265   4.433   2.005  1.3337 -0.2560 -1.1775
   61MOL   H12815848   0.168   4.569   2.007 -0.1538 -2.1747  2.3733
   61MOL   H12915849   0.460   4.591   2.032 -0.6863 -2.3457 -1.4808
   61MOL   H13015850   0.344   4.720   2.061  1.2178 -0.2351 -1.4441
   61MOL   H13115851   0.366   4.574   2.174  0.4082  2.6079  1.0356
   61MOL   C13215852   0.322   4.402   1.699 -0.1554 -0.0734  0.3931
   61MOL   C13315853   0.267   4.334   1.567 -0.7353  0.2412  0.4240
   61MOL   O13415854   0.291   4.413   1.457 -0.5306  0.2557 -0.0462
   61MOL   C13515855   0.295   4.345   1.333  0.1844  0.5665 -0.6359
   61MOL   C13615856   0.308   4.452   1.235  0.0627 -0.5078  0.3334
   61MOL   H13715857   0.330   4.329   1.779  1.1332 -0.9033 -0.4701
   61MOL   H13815858   0.418   4.434   1.659  0.2310 -2.3523 -0.6028
   61MOL   H13915859   0.312   4.236   1.550 -1.1374  0.0693  0.3352
   61MOL   H14015860   0.212   4.275   1.320 -0.5996  1.7033 -1.8512
   61MOL   H14115861   0.381   4.279   1.320  0.3693 -0.2062  3.8317
   61MOL   H14215862   0.412   4.484   1.240 -0.0760  0.0682 -0.5280
   61MOL   H14315863   0.298   4.410   1.135 -2.2239  0.6138  0.0626
   61MOL   H14415864   0.235   4.532   1.241  0.2037 -0.1439 -2.4437
   61MOL   C14515865   0.119   4.298   1.578  0.1909  0.0035  0.4258
   61MOL   C14615866   0.094   4.191   1.686  0.2690 -0.2588  0.7778
   61MOL   O14715867   0.159   4.065   1.654 -0.2642  0.1254 -0.5606
   61MOL   C14815868   0.212   4.000   1.766 -0.0574  0.0723 -0.2286
   61MOL   C14915869   0.245   3.861   1.713  0.1600 -0.4258  0.3585
   61MOL   H15015870   0.098   4.248   1.484  1.8646  3.5403 -1.9410
   61MOL   H15115871   0.045   4.378   1.577 -1.4224 -1.4743 -1.8760
   61MOL   H15215872   0.120   4.229   1.785  0.4767  1.9622 -0.0922
   61MOL   H15315873   0.143   3.998   1.850  2.6910  0.7232  2.1148
   61MOL   H15415874   0.303   4.053   1.792 -0.1288  0.4750 -0.7882
   61MOL   H15515875   0.166   3.818   1.651 -1.4198  0.0642  1.9980
   61MOL   H15615876   0.339   3.861   1.657 -0.6448 -1.0699 -1.0191
   61MOL   H15715877   0.246   3.796   1.800  2.0499 -0.8274  0.0628
   61MOL   C15815878   7.786   4.162   1.695  1.2505 -0.0510  0.4567
   61MOL   C15915879   7.713   4.136   1.564  0.7202 -0.3618 -0.5707
   61MOL   O16015880   7.682   4.264   1.512  0.5993 -0.3471 -0.2545
   61MOL   C16115881   7.673   4.267   1.379  0.1214  0.5626 -0.0942
   61MOL   C16215882   7.658   4.413   1.338  0.2436  0.2685 -0.0716
   61MOL   H16315883   7.744   4.246   1.750  0.8879 -1.1939  1.9817
   61MOL   H16415884   7.760   4.078   1.760  1.1685 -0.1196  0.3366
   61MOL   H16515885   7.793   4.088   1.507 -0.0801  0.2988 -2.2840
   61MOL   H16615886   7.581   4.217   1.348  0.0757  0.5617  0.0409
   61MOL   H16715887   7.755   4.210   1.335 -0.0925 -0.7871  1.2050
   61MOL   H16815888   7.674   4.414   1.230 -3.1620 -0.6310 -0.6473
   61MOL   H16915889   7.557   4.451   1.350 -0.0324 -0.8473  1.3254
   61MOL   H17015890   7.733   4.480   1.378  2.0691 -2.1656  0.7371
   61MOL   C17115891   7.588   4.053   1.577 -0.8002 -0.2279  0.4134
   61MOL   C17215892   7.463   4.113   1.652 -0.3640 -0.6019 -0.1850
   61MOL   O17315893   7.383   4.005   1.680  0.0920  0.0978 -0.0600
   61MOL   C17415894   7.404   3.920   1.789  0.1001 -0.5090 -0.3681
   61MOL   C17515895   7.298   3.818   1.782 -0.1462 -0.1431 -0.7936
   61MOL   H17615896   7.604   3.959   1.628 -0.5094  0.0052  0.7483
   61MOL   H17715897   7.556   4.026   1.476  1.9302 -2.8241  0.1981
   61MOL   H17815898   7.493   4.172   1.738 -0.2097 -0.5620 -0.2663
   61MOL   H17915899   7.405   3.976   1.882 -1.6951  0.0516 -0.6688
   61MOL   H18015900   7.502   3.872   1.787 -0.5377 -1.9778  1.8840
   61MOL   H18115901   7.210   3.870   1.820  0.5102  0.0721  0.4735
   61MOL   H18215902   7.283   3.787   1.679 -1.9826 -1.8281 -0.0393
   61MOL   H18315903   7.319   3.738   1.852 -1.0039  0.2468 -0.0796
   61MOL   C18415904   7.388   4.211   1.562 -0.7012 -0.2470  0.1313
   61MOL   C18515905   7.264   4.278   1.616  0.6686 -0.2127 -0.5870
   61MOL   O18615906   7.227   4.379   1.530 -0.1792 -0.9060  0.1136
   61MOL   C18715907   7.086   4.390   1.513 -0.0830 -0.7757 -0.0793
   61MOL   C18815908   7.058   4.525   1.459  0.6711  0.5476  0.5877
   61MOL   H18915909   7.360   4.159   1.470 -0.9350  2.2339 -1.2440
   61MOL   H19015910   7.454   4.292   1.529 -0.2936 -0.3140  0.7837
   61MOL   H19115911   7.190   4.199   1.628 -0.5610  1.0647  0.4100
   61MOL   H19215912   7.039   4.383   1.611 -0.6453  0.9617 -0.1982
   61MOL   H19315913   7.039   4.308   1.458  1.4491 -1.6707 -0.0806
   61MOL   H19415914   7.113   4.601   1.515 -1.7076  1.0245  2.3456
   61MOL   H19515915   7.088   4.536   1.354 -1.1920 -1.9044 -0.2395
   61MOL   H19615916   6.951   4.546   1.456  0.3389 -1.1820  0.0375
   61MOL   C19715917   7.294   4.355   1.754 -0.2897 -0.0262 -0.1552
   61MOL   C19815918   7.264   4.272   1.880  0.4402 -0.6085 -1.2687
   61MOL   O19915919   7.121   4.240   1.875  0.3288  0.1254 -0.3811
   61MOL   C20015920   7.068   4.157   1.976 -0.1273  0.3537  0.8446
   61MOL   C20115921   6.936   4.087   1.932 -0.2524 -0.6674 -0.1302
   61MOL   H20215922   7.250   4.455   1.745 -0.1795  0.0445  0.1030
   61MOL   H20315923   7.401   4.376   1.755 -0.8443  3.0153  0.8976
   61MOL   H20415924   7.305   4.172   1.868  0.2224 -0.7718 -0.7062
   61MOL   H20515925   7.050   4.219   2.064 -2.6697  3.4085 -1.7085
   61MOL   H20615926   7.138   4.083   2.014  1.0365  0.5902 -0.8156
   61MOL   H20715927   6.946   4.022   1.846 -1.0216 -0.2630 -0.5283
   61MOL   H20815928   6.894   4.028   2.014  0.6824 -1.1521  0.0033
   61MOL   H20915929   6.869   4.168   1.902  0.6491 -0.2154 -0.9429
   61MOL   C21015930   7.315   4.329   2.008 -0.1521 -0.6456 -0.2240
   61MOL   C21115931   7.237   4.458   2.047 -0.2857  0.3550 -1.0520
   61MOL   O21215932   7.265   4.561   1.956 -0.1454 -0.6437  0.1546
   61MOL   C21315933   7.177   4.672   1.955  0.1433  0.5752  0.0721
   61MOL   C21415934   7.188   4.743   1.819 -0.1907  0.0719 -0.0695
   61MOL   H21515935   7.422   4.349   2.002 -0.4026  0.4564 -1.3354
   61MOL   H21615936   7.303   4.252   2.084 -0.2188  0.2479  0.6865
   61MOL   H21715937   7.130   4.441   2.052 -0.4642  1.2055 -1.7699
   61MOL   H21815938   7.201   4.748   2.030 -3.1199  0.5369  1.2588
   61MOL   H21915939   7.071   4.651   1.974 -0.1463  1.4078 -0.5537
   61MOL   H22015940   7.283   4.791   1.793  0.2613 -0.4659  0.5525
   61MOL   H22115941   7.161   4.676   1.738 -3.4663  0.8255  0.3533
   61MOL   H22215942   7.114   4.823   1.822  0.4314  0.6329  0.5504
   61MOL   C22315943   7.299   4.520   2.176  0.7097  0.2675 -0.2029
   61MOL   C22415944   7.321   4.413   2.291 -0.1400  0.2750  0.8786
   61MOL   O22515945   7.199   4.337   2.295 -0.1509 -0.1156 -0.2910
   61MOL   C22615946   7.221   4.209   2.349  0.0060  0.3247 -0.7599
   61MOL   C22715947   7.079   4.143   2.367 -0.4580 -0.3674  0.4213
   61MOL   H22815948   7.225   4.594   2.204 -0.3743 -0.0969 -2.0616
   61MOL   H22915949   7.388   4.581   2.157  0.4152  1.2810  1.5346
   61MOL   H23015950   7.413   4.357   2.278 -0.9679 -0.9708  0.2318
   61MOL   H23115951   7.284   4.212   2.437  1.4241  1.6090 -1.7950
   61MOL   H23215952   7.280   4.138   2.292  0.2648 -0.1219  0.0653
   61MOL   H23315953   7.025   4.161   2.274 -1.2845 -1.6388  0.6395
   61MOL   H23415954   7.085   4.035   2.381 -0.7235 -0.4832 -0.3259
   61MOL   H23515955   7.025   4.196   2.445 -0.1017  0.0906  0.3537
   61MOL   C23615956   7.330   4.494   2.428  0.5487 -0.5990 -0.8526
   61MOL   C23715957   7.456   4.583   2.448  0.3422 -0.5509 -0.0767
   61MOL   O23815958   7.565   4.484   2.460 -0.1339 -0.0164  0.1376
   61MOL   C23915959   7.647   4.481   2.340 -0.1107  0.2892 -0.2023
   61MOL   C24015960   7.767   4.567   2.368  0.3285  0.4925 -0.0042
   61MOL   H24115961   7.326   4.436   2.520 -2.4285 -0.8475 -1.0708
   61MOL   H24215962   7.236   4.550   2.429  0.8653 -0.0152 -2.1131
   61MOL   H24315963   7.466   4.647   2.361  1.6194  0.5432  0.8628
   61MOL   H24415964   7.602   4.525   2.250  0.8529  0.9786 -0.3615
   61MOL   H24515965   7.683   4.379   2.331 -2.1094 -0.4621  0.3050
   61MOL   H24615966   7.727   4.655   2.419  0.3413 -0.8057  2.2982
   61MOL   H24715967   7.834   4.517   2.438  0.8914  1.6954  0.3394
   61MOL   H24815968   7.817   4.604   2.278 -0.7750  2.0276 -0.0006
   61MOL   C24915969   7.447   4.663   2.578 -0.3768  1.1261  0.4976
   61MOL   C25015970   7.383   4.793   2.562 -0.1703  1.0825 -0.7869
   61MOL   O25115971   7.396   4.881   2.675 -0.0367 -0.0933  0.6049
   61MOL   C25215972   7.340   5.004   2.658  0.0301 -1.0223 -0.0481
   61MOL   C25315973   7.359   5.089   2.787 -0.8182 -0.2113  0.7235
   61MOL   H25415974   7.550   4.666   2.613  0.3103 -2.4976 -1.0504
   61MOL   H25515975   7.388   4.607   2.651 -1.1522 -1.0992 -1.7473
   61MOL   H25615976   7.431   4.833   2.473  2.4619 -1.7536 -0.7365
   61MOL   H25715977   7.237   4.989   2.627  0.0696  0.1590 -0.7581
   61MOL   H25815978   7.398   5.056   2.582  0.5778 -2.4212 -0.6117
   61MOL   H25915979   7.323   5.029   2.871  0.7234 -0.5747  1.1410
   61MOL   H26015980   7.466   5.100   2.806 -0.7906  3.3971 -1.1664
   61MOL   H26115981   7.318   5.190   2.784  1.9168  0.9254  0.0807
   61MOL   H26215982   7.281   4.772   2.529  0.6928 -1.7816 -1.7584
   62MOL     C115983   1.474   1.029   7.564 -0.0874 -0.2973 -0.4691
   62MOL     C215984   1.509   0.940   7.685 -0.0063 -0.8124 -0.2598
   62MOL     O315985   1.477   0.809   7.657  0.2033  0.5304 -0.0440
   62MOL     C415986   1.579   0.740   7.597  0.0157  0.0194 -0.4553
   62MOL     C515987   1.533   0.612   7.535 -0.4304  0.5102 -0.2639
   62MOL     H615988   1.397   0.986   7.500 -0.1483 -0.4914 -0.2663
   62MOL     H715989   1.430   1.126   7.588  0.4749 -0.1023 -0.2090
   62MOL     H815990   1.613   0.950   7.716 -0.1251 -2.1054  0.6206
   62MOL     H915991   1.658   0.711   7.666  0.2666  2.8063  0.4653
   62MOL    H1015992   1.632   0.807   7.529  1.4516 -0.1772  0.4385
   62MOL    H1115993   1.486   0.543   7.605  1.1451  1.2950  1.5875
   62MOL    H1215994   1.458   0.634   7.459 -0.3434 -0.6547 -0.7015
   62MOL    H1315995   1.615   0.556   7.489  0.6833  0.2148  2.0405
   62MOL    H1415996   1.564   1.039   7.504 -0.7588  1.5372 -1.2080
   62MOL    C1515997   1.409   0.964   7.809 -0.6477  0.1470 -0.1424
   62MOL    C1615998   1.440   0.872   0.092  0.0122  0.6267 -0.1980
   62MOL    O1715999   1.330   0.784   0.121  0.2512  0.2408 -0.4393
   62MOL    C1816000   1.334   0.656   0.053  0.0809  0.2139  0.3473
   62MOL    C1916001   1.210   0.582   0.107  0.2489 -0.9741  0.8504
   62MOL    H2016002   1.306   0.959   7.775 -0.6727  1.0564 -0.2357
   62MOL    H2116003   1.407   1.069   7.840 -0.0649 -0.0110  0.4445
   62MOL    H2216004   1.518   0.800   0.069 -1.4647 -1.6143  1.5445
   62MOL    H2316005   1.421   0.601   0.090  2.1466  2.9496 -0.3351
   62MOL    H2416006   1.330   0.661   7.787 -1.5929  0.9861  0.4351
   62MOL    H2516007   1.215   0.574   0.215  1.7337  1.5294  0.9918
   62MOL    H2616008   1.199   0.479   0.072  2.7982 -0.2676 -2.3774
   62MOL    H2716009   1.123   0.641   0.082  0.9418  0.2231  1.2447
   62MOL    C2816010   1.453   0.955   0.220 -0.1166 -0.6474 -0.2401
   62MOL    C2916011   1.594   1.011   0.238  0.6369 -0.1206 -0.0241
   62MOL    O3016012   1.670   0.909   0.304 -0.3833 -0.2721  0.3111
   62MOL    C3116013   1.813   0.923   0.278  0.0969 -0.1227 -0.3980
   62MOL    C3216014   1.878   0.823   0.378 -0.1470  0.6537 -0.3581
   62MOL    H3316015   1.428   0.893   0.306 -2.0810 -1.4967 -1.3821
   62MOL    H3416016   1.373   1.028   0.216 -1.1041 -1.7677 -1.2392
   62MOL    H3516017   1.639   1.030   0.141  0.7778 -1.8729 -0.3262
   62MOL    H3616018   1.857   1.020   0.297 -0.9748  1.1564 -4.0191
   62MOL    H3716019   1.825   0.910   0.171 -0.3758  0.8928 -0.5798
   62MOL    H3816020   1.840   0.723   0.359  1.0470 -0.3848  2.4693
   62MOL    H3916021   1.986   0.830   0.383 -0.2109  2.1544 -0.8353
   62MOL    H4016022   1.838   0.848   0.477  1.2873 -1.1841  0.7088
   62MOL    C4116023   1.591   1.141   0.330  0.3950 -0.5534  0.4391
   62MOL    C4216024   1.529   1.263   0.256 -0.7788 -0.4392  0.1647
   62MOL    O4316025   1.616   1.278   0.149 -0.5190 -0.4299 -0.7305
   62MOL    C4416026   1.569   1.331   0.024  0.1550  0.2875 -0.4191
   62MOL    C4516027   1.678   1.375   7.767  0.2271 -0.0219 -0.1781
   62MOL    H4616028   1.690   1.161   0.371 -0.9359  2.9490  2.0734
   62MOL    H4716029   1.529   1.114   0.415 -0.2216  0.5547  0.3465
   62MOL    H4816030   1.433   1.232   0.215 -1.0337  0.1083  0.3426
   62MOL    H4916031   1.507   1.417   0.052 -1.4720 -1.4814  1.5932
   62MOL    H5016032   1.499   1.259   7.825 -1.1829  1.6471 -0.5724
   62MOL    H5116033   1.729   1.285   7.732  0.8916  0.6650 -0.9878
   62MOL    H5216034   1.640   1.423   7.677 -1.4057 -0.9320  0.0056
   62MOL    H5316035   1.752   1.445   7.806 -0.1627 -1.0282  2.5055
   62MOL    C5416036   1.526   1.393   0.345  0.1348 -0.1638 -0.1101
   62MOL    C5516037   1.405   1.397   0.436  0.1978 -0.7744 -0.3180
   62MOL    O5616038   1.281   1.421   0.359  0.1528  0.2115 -0.5046
   62MOL    C5716039   1.184   1.316   0.375  0.8428  0.0253  0.3015
   62MOL    C5816040   1.044   1.356   0.329 -0.5656 -0.0585  0.4942
   62MOL    H5916041   1.508   1.485   0.289  0.8369 -0.0712 -0.1904
   62MOL    H6016042   1.623   1.404   0.393 -0.1208 -0.9371  0.5808
   62MOL    H6116043   1.404   1.306   0.496 -0.9808  0.7256  2.0407
   62MOL    H6216044   1.184   1.286   0.480  0.6158  1.7655  0.8091
   62MOL    H6316045   1.213   1.225   0.322  0.6518  0.3541 -0.3602
   62MOL    H6416046   1.006   1.442   0.383  1.6948  0.8964  0.6264
   62MOL    H6516047   1.045   1.383   0.224  0.4054  1.0688  0.7806
   62MOL    H6616048   0.966   1.282   0.348 -0.5697  0.3744  2.2037
   62MOL    C6716049   1.419   1.531   0.522 -0.2153 -0.3691 -0.2876
   62MOL    C6816050   1.317   1.555   0.636 -0.1630  0.3586 -0.2077
   62MOL    O6916051   1.280   1.438   0.706 -0.0615  0.1676  0.1224
   62MOL    C7016052   1.382   1.393   0.797 -0.0745  0.0307  0.3089
   62MOL    C7116053   1.331   1.261   0.861 -0.2489  0.6162 -0.2629
   62MOL    H7216054   1.429   1.618   0.458  2.2852 -0.2507  0.2125
   62MOL    H7316055   1.517   1.542   0.569 -0.4494 -0.3495  0.2044
   62MOL    H7416056   1.373   1.627   0.697  0.0868  0.2347 -0.2887
   62MOL    H7516057   1.394   1.467   0.877  1.6766 -1.8237  1.7957
   62MOL    H7616058   1.483   1.380   0.759 -0.1740  0.3920 -0.0918
   62MOL    H7716059   1.224   1.265   0.878 -0.7076  1.1182 -3.0874
   62MOL    H7816060   1.364   1.177   0.799  0.6729  0.4651  0.4102
   62MOL    H7916061   1.373   1.245   0.960  0.2796  0.7562 -0.4579
   62MOL    C8016062   1.185   1.613   0.582  0.3886  0.8085 -0.4184
   62MOL    C8116063   1.094   1.653   0.702 -0.3063 -0.3823 -0.4132
   62MOL    O8216064   0.967   1.706   0.667 -0.2837 -0.2161  0.0457
   62MOL    C8316065   0.873   1.604   0.636  0.1951  0.2980  0.3855
   62MOL    C8416066   0.746   1.647   0.560  0.4229  0.1590 -0.2772
   62MOL    H8516067   1.133   1.543   0.517 -0.3574  0.1747  0.8373
   62MOL    H8616068   1.200   1.706   0.527  1.2648 -0.3060 -2.0998
   62MOL    H8716069   1.086   1.564   0.763  0.2237 -0.3643 -0.3122
   62MOL    H8816070   0.850   1.561   0.734 -2.3634 -0.6465 -0.5930
   62MOL    H8916071   0.922   1.530   0.574 -0.2069  0.7176 -0.4506
   62MOL    H9016072   0.685   1.559   0.539  0.3711 -0.0107  0.5700
   62MOL    H9116073   0.688   1.718   0.619 -2.3375 -0.2749 -2.3503
   62MOL    H9216074   0.778   1.705   0.474  2.3663  0.5885  0.7130
   62MOL    C9316075   1.154   1.763   0.794 -0.2838 -0.1408  0.1621
   62MOL    C9416076   1.100   1.756   0.941  0.0131 -0.5155  0.0896
   62MOL    O9516077   1.132   1.870   1.020  0.2165 -0.1737  0.6011
   62MOL    C9616078   1.049   1.981   1.004 -0.3848  0.7199 -0.6241
   62MOL    C9716079   1.115   2.099   1.071 -0.5050 -0.1542  0.1734
   62MOL    H9816080   1.148   1.864   0.753  1.6174 -0.1511 -0.1734
   62MOL    H9916081   1.262   1.756   0.805 -0.1470 -0.3142 -1.1862
   62MOL   H10016082   0.992   1.743   0.931 -0.3069 -0.3676  2.8489
   62MOL   H10116083   0.949   1.959   1.042  0.0636 -0.8456 -0.2758
   62MOL   H10216084   1.031   1.994   0.898 -1.0177 -2.0227 -0.8967
   62MOL   H10316085   1.216   2.123   1.039 -0.7142  2.2964  1.1656
   62MOL   H10416086   1.060   2.189   1.042 -0.4719  0.2898  1.4230
   62MOL   H10516087   1.127   2.088   1.179 -2.9370 -1.1146  0.3815
   62MOL   C10616088   1.154   1.632   1.015 -0.5910  0.1218  0.3812
   62MOL   C10716089   1.093   1.595   1.153 -0.0804 -0.2038  0.0180
   62MOL   O10816090   1.173   1.487   1.187  0.4667 -0.0010  0.4091
   62MOL   C10916091   1.278   1.516   1.270  0.6011 -0.5791 -0.3103
   62MOL   C11016092   1.361   1.391   1.273  0.0330  0.4653  0.2244
   62MOL   H11116093   1.262   1.647   1.025 -0.6499  2.5459 -2.1196
   62MOL   H11216094   1.146   1.538   0.959 -0.3384  0.8348 -0.8791
   62MOL   H11316095   1.101   1.674   1.228 -1.0020  1.1057 -1.2382
   62MOL   H11416096   1.241   1.548   1.368 -1.1571 -0.2554 -1.0573
   62MOL   H11516097   1.342   1.600   1.243 -0.4736  1.1754  2.3691
   62MOL   H11616098   1.296   1.307   1.297  0.9642  0.1955  1.8558
   62MOL   H11716099   1.402   1.372   1.174 -0.6652 -0.3763  0.0905
   62MOL   H11816100   1.448   1.390   1.338  0.4154 -0.2103 -0.2935
   62MOL   C11916101   0.940   1.558   1.139  0.2987 -0.3241  0.3248
   62MOL   C12016102   0.842   1.667   1.177 -0.5254 -0.3747  0.7941
   62MOL   O12116103   0.848   1.689   1.322  0.8154  0.2832  0.5819
   62MOL   C12216104   0.782   1.801   1.372 -0.0044 -0.6770 -0.1125
   62MOL   C12316105   0.766   1.780   1.530 -0.0510  0.0423 -0.6503
   62MOL   H12416106   0.908   1.493   1.221  1.5583 -1.1384  0.1798
   62MOL   H12516107   0.922   1.515   1.040  0.2625 -1.5296  0.8495
   62MOL   H12616108   0.882   1.760   1.136 -2.4308  0.7847  1.5064
   62MOL   H12716109   0.690   1.833   1.324 -0.2901 -1.9123 -0.4079
   62MOL   H12816110   0.848   1.886   1.358 -1.5853  0.4304 -0.9764
   62MOL   H12916111   0.760   1.876   1.582  0.9917  0.3265 -1.0367
   62MOL   H13016112   0.683   1.714   1.552 -0.4450  1.0645  0.9979
   62MOL   H13116113   0.852   1.735   1.581 -0.2459  0.6017  0.1850
   62MOL   C13216114   0.700   1.648   1.114 -0.1844  0.0728 -0.5354
   62MOL   C13316115   0.672   1.724   0.976  0.0222  0.6653 -0.7481
   62MOL   O13416116   0.666   1.867   0.999 -0.4201  0.6144  0.6056
   62MOL   C13516117   0.703   1.940   0.876 -0.0883  0.0465 -1.0213
   62MOL   C13616118   0.705   2.087   0.907  0.2383 -0.2132 -0.4806
   62MOL   H13716119   0.616   1.669   1.179 -0.1657  1.7518 -1.0266
   62MOL   H13816120   0.685   1.540   1.110 -1.9422  0.2624  0.3609
   62MOL   H13916121   0.752   1.695   0.908 -0.0845  0.1957 -0.6688
   62MOL   H14016122   0.630   1.939   0.796 -1.5268  0.6043  0.2615
   62MOL   H14116123   0.803   1.918   0.837  1.1385  0.5131  1.7342
   62MOL   H14216124   0.778   2.118   0.982 -0.2917 -0.9795  0.3653
   62MOL   H14316125   0.710   2.151   0.819 -0.6704  0.4017 -0.0924
   62MOL   H14416126   0.609   2.110   0.953 -1.2526 -0.5797 -3.2734
   62MOL   C14516127   0.544   1.688   0.907 -0.2300  0.5567  0.2403
   62MOL   C14616128   0.501   1.539   0.907 -0.0813 -0.5186  0.2038
   62MOL   O14716129   0.622   1.460   0.874  0.7645  0.3579  0.2500
   62MOL   C14816130   0.621   1.325   0.916  0.0239  1.2114 -0.6636
   62MOL   C14916131   0.738   1.266   0.827 -0.1221  0.1412 -0.1814
   62MOL   H15016132   0.572   1.727   0.809  3.4773 -0.4179  0.8379
   62MOL   H15116133   0.465   1.751   0.947  1.7329  3.6657 -0.5937
   62MOL   H15216134   0.467   1.512   1.006  1.2656 -2.0457  0.2723
   62MOL   H15316135   0.526   1.275   0.901  1.6257 -1.5906 -1.9683
   62MOL   H15416136   0.653   1.323   1.020  1.9794  0.3546 -1.2530
   62MOL   H15516137   0.829   1.320   0.848  1.0880 -1.3688 -1.4051
   62MOL   H15616138   0.756   1.158   0.833 -1.8850 -0.0227  3.1358
   62MOL   H15716139   0.713   1.290   0.723  0.6911 -0.9648 -0.6504
   62MOL   C15816140   0.394   1.515   0.798  0.5641  0.1415 -0.0011
   62MOL   C15916141   0.256   1.593   0.812 -0.0860  1.1788  0.2324
   62MOL   O16016142   0.201   1.568   0.945  0.3534 -0.0190  0.1781
   62MOL   C16116143   0.118   1.675   0.997 -0.1141 -0.0287  0.3451
   62MOL   C16216144   0.158   1.704   1.148 -0.1652 -0.4852 -0.1315
   62MOL   H16316145   0.360   1.411   0.803 -0.7792  0.5396 -0.7484
   62MOL   H16416146   0.444   1.535   0.703 -1.3663 -1.2728 -1.3462
   62MOL   H16516147   0.279   1.698   0.794  2.0081  0.4196 -1.8278
   62MOL   H16616148   0.019   1.630   1.000 -0.1265 -0.0394 -0.2243
   62MOL   H16716149   0.123   1.773   0.950  0.3618  0.3948  1.2849
   62MOL   H16816150   0.143   1.624   1.219  0.5551 -0.1463  0.4039
   62MOL   H16916151   0.254   1.752   1.166 -0.2590 -0.3438 -0.0097
   62MOL   H17016152   0.094   1.776   1.199 -0.3594  1.0747 -2.4590
   62MOL   C17116153   0.140   1.554   0.717  0.5322 -0.0829  0.1139
   62MOL   C17216154   0.160   1.558   0.566 -0.9018  0.1969 -0.6552
   62MOL   O17316155   0.199   1.693   0.542  0.7400  0.1901 -0.4588
   62MOL   C17416156   0.308   1.708   0.454 -1.1013  0.2948  0.4463
   62MOL   C17516157   0.422   1.795   0.502 -0.1583 -0.1526 -0.3743
   62MOL   H17616158   0.050   1.613   0.733 -1.1157 -2.0851 -1.5135
   62MOL   H17716159   0.105   1.454   0.744 -0.3642 -0.2169 -1.4777
   62MOL   H17816160   0.240   1.488   0.542  0.7622  2.2833 -1.3322
   62MOL   H17916161   0.279   1.744   0.355  0.9558  1.3377  0.1940
   62MOL   H18016162   0.370   1.620   0.444 -0.2802  0.5819  2.7044
   62MOL   H18116163   0.506   1.771   0.436  0.8077 -0.2867  0.9023
   62MOL   H18216164   0.392   1.899   0.516 -0.7742 -0.2390 -0.9904
   62MOL   H18316165   0.450   1.753   0.598 -1.0918  0.2883  0.1032
   62MOL   C18416166   0.021   1.515   0.506 -0.0823 -0.3982  0.4117
   62MOL   C18516167   7.840   1.519   0.356 -0.1682  0.0195  0.1839
   62MOL   O18616168   0.116   1.475   0.291 -0.1485 -0.7658 -0.6640
   62MOL   C18716169   0.128   1.343   0.263  0.9027 -0.4851  0.4128
   62MOL   C18816170   0.056   1.320   0.134  0.3577  0.2819  0.3564
   62MOL   H18916171   7.778   1.555   0.560  0.8834 -0.0324  1.7249
   62MOL   H19016172   0.007   1.409   0.528  1.3421 -0.3685  1.5317
   62MOL   H19116173   7.755   1.455   0.336  0.2705 -0.0259 -1.6217
   62MOL   H19216174   0.105   1.277   0.346  0.3766 -2.5554 -1.3050
   62MOL   H19316175   0.235   1.328   0.249  0.8662 -0.6234  0.2802
   62MOL   H19416176   0.138   1.330   0.062  0.2045 -1.7221 -0.1155
   62MOL   H19516177   0.021   1.218   0.142  0.0468  0.4950  1.8634
   62MOL   H19616178   7.834   1.403   0.106  1.9650  1.1023 -1.1477
   62MOL   C19716179   7.808   1.663   0.309  0.7252 -0.7775 -0.0741
   62MOL   C19816180   7.672   1.728   0.343 -0.7970 -0.1712 -0.0549
   62MOL   O19916181   7.669   1.754   0.480  0.0512  0.4098 -0.0254
   62MOL   C20016182   7.695   1.889   0.507  0.5377  0.2809  0.3370
   62MOL   C20116183   7.715   1.913   0.656 -0.7230 -0.1755 -0.3359
   62MOL   H20216184   7.823   1.667   0.202 -4.8937  2.8031 -0.9715
   62MOL   H20316185   0.033   1.735   0.355  0.9328 -1.1196  0.1507
   62MOL   H20416186   7.653   1.824   0.294  1.6241  1.5607  2.2904
   62MOL   H20516187   7.613   1.941   0.456 -0.2726 -2.4083 -1.1768
   62MOL   H20616188   7.785   1.932   0.463 -0.6755  1.9292 -0.5899
   62MOL   H20716189   7.642   1.861   0.719  0.0982 -0.1838  0.6121
   62MOL   H20816190   7.811   1.876   0.692 -0.5074  0.6539 -0.0699
   62MOL   H20916191   7.717   2.019   0.679 -0.3640 -0.3481  0.4582
   62MOL   C21016192   7.549   1.636   0.312 -0.7323  0.5112 -0.3694
   62MOL   C21116193   7.426   1.724   0.266 -0.0157  0.3170 -0.9338
   62MOL   O21216194   7.308   1.641   0.269  0.7051  0.1279  0.3968
   62MOL   C21316195   7.224   1.668   0.381  0.2071  0.4815 -0.5976
   62MOL   C21416196   7.114   1.564   0.371  0.0091  0.4828 -0.3534
   62MOL   H21516197   7.535   1.573   0.399 -3.9488 -0.2108 -1.3536
   62MOL   H21616198   7.583   1.564   0.237 -1.7865 -1.0311  0.6169
   62MOL   H21716199   7.410   1.811   0.329  1.4561 -0.6087  0.7575
   62MOL   H21816200   7.178   1.767   0.373 -1.4674 -0.3110 -0.9797
   62MOL   H21916201   7.276   1.654   0.476 -1.1772 -1.4229 -0.0929
   62MOL   H22016202   7.036   1.591   0.300 -0.4950  0.8634  0.3395
   62MOL   H22116203   7.146   1.461   0.358  1.9652  1.1126 -0.6112
   62MOL   H22216204   7.058   1.570   0.465  0.0537  1.2815 -0.3727
   62MOL   C22316205   7.441   1.771   0.121 -0.3740 -0.1771 -1.1484
   62MOL   C22416206   7.332   1.861   0.077  0.1204  0.1862 -0.0435
   62MOL   O22516207   7.329   1.878   7.780 -0.0756  0.0163  0.0364
   62MOL   C22616208   7.275   1.761   7.713 -0.5855  0.4106 -0.5715
   62MOL   C22716209   7.301   1.788   7.566 -0.1381 -0.0652 -0.1895
   62MOL   H22816210   7.439   1.678   0.064 -1.9427 -1.4881  0.9573
   62MOL   H22916211   7.535   1.820   0.095 -1.0301  0.6382 -1.9648
   62MOL   H23016212   7.240   1.823   0.122  0.5740 -0.7791  0.0781
   62MOL   H23116213   7.169   1.743   7.728  0.4054 -3.4750  2.5629
   62MOL   H23216214   7.338   1.674   7.732 -0.8004  0.9754  2.9851
   62MOL   H23316215   7.249   1.879   7.536  0.0170  0.4723  1.1260
   62MOL   H23416216   7.404   1.797   7.530 -0.7342 -0.4176 -2.0484
   62MOL   H23516217   7.260   1.706   7.508  1.1830 -2.3939  2.0722
   62MOL   C23616218   7.340   2.004   0.130  0.5132 -0.0770  0.4604
   62MOL   C23716219   7.231   2.107   0.084 -0.5146  0.1587  0.5312
   62MOL   O23816220   7.299   2.230   0.082 -0.2734  0.4671  0.5331
   62MOL   C23916221   7.359   2.277   7.802 -0.2151  0.3989 -0.3258
   62MOL   C24016222   7.416   2.422   7.823 -0.4395 -0.2528  0.4483
   62MOL   H24116223   7.431   2.052   0.093 -0.9877  0.6154 -2.5453
   62MOL   H24216224   7.341   1.998   0.238  3.4893 -0.9485  0.4188
   62MOL   H24316225   7.182   2.101   7.830  1.1948  2.5496 -0.5134
   62MOL   H24416226   7.293   2.283   7.715  0.5736  0.1640 -0.9469
   62MOL   H24516227   7.440   2.211   7.773 -0.8880 -0.9687  0.8522
   62MOL   H24616228   7.344   2.497   0.015  0.8106  1.1082  0.1528
   62MOL   H24716229   7.503   2.415   0.045  0.6107  0.3942 -0.8639
   62MOL   H24816230   7.464   2.464   7.735 -0.6161  0.4230  0.6682
   62MOL   C24916231   7.120   2.120   0.189  0.1112 -0.5916  0.3875
   62MOL   C25016232   7.023   2.005   0.193 -0.5599  0.0784 -0.1294
   62MOL   O25116233   6.924   2.029   0.289 -0.3963  0.1449 -0.9773
   62MOL   C25216234   6.842   1.920   0.314  0.1895 -0.6002 -0.3482
   62MOL   C25316235   6.748   1.950   0.436  0.4952  0.1240  0.6563
   62MOL   H25416236   7.054   2.206   0.174  1.4716  0.4713  0.3909
   62MOL   H25516237   7.169   2.141   0.284  1.8011 -0.1406 -0.5479
   62MOL   H25616238   6.972   1.978   0.100 -1.2794 -0.8670  0.5332
   62MOL   H25716239   6.889   1.825   0.340  0.3927 -1.5693 -4.0043
   62MOL   H25816240   6.789   1.900   0.221 -0.4736  0.7947 -0.2832
   62MOL   H25916241   6.672   2.028   0.423  1.7854  1.4861  1.1129
   62MOL   H26016242   6.697   1.858   0.465  1.6009 -0.7494 -0.1700
   62MOL   H26116243   6.805   1.986   0.522 -0.7028 -0.4746  1.7178
   62MOL   H26216244   7.079   1.914   0.215 -0.1467 -0.8422 -4.4211
   63MOL     C116245   2.947   0.272   6.538  0.6854 -0.0903  0.2610
   63MOL     C216246   2.875   0.402   6.498 -0.1827  0.1336 -0.1762
   63MOL     O316247   2.951   0.503   6.563  0.4738  0.4528  0.1211
   63MOL     C416248   2.947   0.634   6.505 -1.1708  0.4422  0.1771
   63MOL     C516249   3.027   0.737   6.597 -0.1877 -0.1220  0.6446
   63MOL     H616250   2.923   0.196   6.463 -0.4217 -1.4763  1.9963
   63MOL     H716251   3.055   0.276   6.523  0.7564 -2.1737  0.0731
   63MOL     H816252   2.884   0.432   6.393 -0.4724  1.6067  0.2130
   63MOL     H916253   2.844   0.667   6.498 -1.4492 -0.5525 -0.5713
   63MOL    H1016254   2.986   0.632   6.403  3.3927 -1.1565  1.7984
   63MOL    H1116255   3.016   0.837   6.556 -0.5757 -0.6468 -0.5479
   63MOL    H1216256   2.980   0.733   6.695 -0.7422  1.9424  0.4889
   63MOL    H1316257   3.132   0.709   6.614  0.4253  2.0562  0.5572
   63MOL    H1416258   2.942   0.241   6.642 -1.3802  2.1639  0.8554
   63MOL    C1516259   2.723   0.416   6.535  0.1634  0.3703 -0.0765
   63MOL    C1616260   2.625   0.301   6.493  0.0207 -0.5241  0.3495
   63MOL    O1716261   2.600   0.333   6.358  0.0445  0.2621 -0.0293
   63MOL    C1816262   2.645   0.225   6.272 -0.5010  0.2477 -0.1822
   63MOL    C1916263   2.673   0.306   6.138 -0.9178  0.3147 -0.0883
   63MOL    H2016264   2.690   0.515   6.502 -0.7866 -0.0159 -0.2869
   63MOL    H2116265   2.725   0.418   6.644 -0.8291  1.0174 -0.0576
   63MOL    H2216266   2.673   0.204   6.506 -2.1186 -1.9328 -1.9688
   63MOL    H2316267   2.562   0.156   6.255 -0.2769 -0.4418  1.4372
   63MOL    H2416268   2.737   0.180   6.308 -0.9879 -0.8279 -0.2822
   63MOL    H2516269   2.680   0.240   6.052 -2.9144  2.0432 -1.6534
   63MOL    H2616270   2.772   0.348   6.154 -1.8066  2.2487  0.6522
   63MOL    H2716271   2.591   0.373   6.110 -1.0635 -0.3674 -1.2938
   63MOL    C2816272   2.489   0.298   6.561  0.4540  0.1397 -0.5194
   63MOL    C2916273   2.425   0.157   6.556  0.8509 -0.3653 -0.3140
   63MOL    O3016274   2.278   0.172   6.562  0.4139  0.1339 -0.5916
   63MOL    C3116275   2.198   0.185   6.446  0.2057  0.7231 -0.0749
   63MOL    C3216276   2.053   0.220   6.482 -0.3325  0.2493 -0.1787
   63MOL    H3316277   2.434   0.380   6.514 -2.6202  0.8322  3.8627
   63MOL    H3416278   2.487   0.329   6.666 -1.0734 -0.0148 -0.4832
   63MOL    H3516279   2.454   0.109   6.463  2.7542  0.6802 -0.2984
   63MOL    H3616280   2.204   0.087   6.399 -1.4157  0.0494  1.1092
   63MOL    H3716281   2.239   0.259   6.376 -0.7073 -0.2028 -1.6345
   63MOL    H3816282   2.007   0.143   6.545  0.5319 -0.3360 -0.2565
   63MOL    H3916283   2.058   0.319   6.528  0.5656  0.9041 -1.6583
   63MOL    H4016284   1.995   0.221   6.390  1.9121  2.9342 -1.6057
   63MOL    C4116285   2.468   0.075   6.678  0.8256  0.6104 -0.2144
   63MOL    C4216286   2.400   7.776   6.685 -0.3705  0.1601  0.2505
   63MOL    O4316287   2.415   7.712   6.812 -0.2441  0.1191 -0.6057
   63MOL    C4416288   2.329   7.752   6.927 -0.2968 -0.1710  0.4485
   63MOL    C4516289   2.192   7.694   6.900 -0.4050 -0.5125 -0.3144
   63MOL    H4616290   2.458   0.125   6.774 -0.2897 -0.9768  0.5170
   63MOL    H4716291   2.576   0.056   6.679  0.2835 -2.7363  0.2060
   63MOL    H4816292   2.294   7.793   6.671 -0.6490 -1.8390 -0.2218
   63MOL    H4916293   2.325   0.017   6.932  0.0851 -0.0341 -1.7726
   63MOL    H5016294   2.364   7.721   7.026  1.5698 -0.9553 -0.4372
   63MOL    H5116295   2.199   7.585   6.896  1.3759 -0.3740 -1.4818
   63MOL    H5216296   2.122   7.703   6.983  0.9137  0.6381  0.7022
   63MOL    H5316297   2.140   7.741   6.817  0.5497  2.3833  0.6544
   63MOL    C5416298   2.451   7.673   6.575  0.3192  0.3702  0.2283
   63MOL    C5516299   2.359   7.553   6.573 -0.0749 -0.0580  0.1726
   63MOL    O5616300   2.430   7.454   6.501 -0.2620 -0.4719 -0.1084
   63MOL    C5716301   2.482   7.338   6.577  0.3325  0.1707 -0.0333
   63MOL    C5816302   2.574   7.253   6.487  0.3757  0.0885 -0.0066
   63MOL    H5916303   2.554   7.646   6.599 -0.3914 -3.1427 -0.4203
   63MOL    H6016304   2.449   7.716   6.475 -2.0791  1.9944  0.9262
   63MOL    H6116305   2.325   7.516   6.670  0.6150 -1.4454 -0.1015
   63MOL    H6216306   2.399   7.270   6.599 -0.6329  0.9409 -1.1754
   63MOL    H6316307   2.518   7.371   6.674 -1.6721 -0.6659  1.0382
   63MOL    H6416308   2.522   7.205   6.404  0.7648 -0.7252  0.2233
   63MOL    H6516309   2.651   7.318   6.444 -0.5349 -0.3954 -2.4450
   63MOL    H6616310   2.637   7.186   6.545  0.6444 -0.5047 -0.9718
   63MOL    C6716311   2.240   7.577   6.478 -0.2857  0.0365  0.0840
   63MOL    C6816312   2.118   7.479   6.494 -0.7502  0.1679 -0.1621
   63MOL    O6916313   2.020   7.527   6.405  0.3472  0.0801  0.3623
   63MOL    C7016314   2.036   7.486   6.268  0.3162 -0.0665  0.4770
   63MOL    C7116315   1.920   7.388   6.247 -0.2741  0.1652  0.4019
   63MOL    H7216316   2.273   7.584   6.374  1.0781 -0.1807  0.4929
   63MOL    H7316317   2.203   7.677   6.499  0.4690  0.8783 -2.4037
   63MOL    H7416318   2.141   7.374   6.476 -3.5798 -0.4428 -0.4893
   63MOL    H7516319   2.127   7.427   6.258  1.0699  0.9273  1.4088
   63MOL    H7616320   2.016   7.575   6.209 -1.3832  1.6284  3.4732
   63MOL    H7716321   1.944   7.299   6.305  1.5173  1.4725  1.7563
   63MOL    H7816322   1.820   7.421   6.273 -0.4125 -0.6412  0.8818
   63MOL    H7916323   1.913   7.346   6.147  1.7338  1.6483 -0.4234
   63MOL    C8016324   2.051   7.497   6.633 -0.5311 -0.1524  0.3557
   63MOL    C8116325   1.911   7.433   6.659  0.6671  0.1429 -0.0562
   63MOL    O8216326   1.872   7.460   6.792  0.8382  0.0192 -0.6521
   63MOL    C8316327   1.803   7.586   6.807  0.1982  0.1051  0.6482
   63MOL    C8416328   1.768   7.584   6.952  0.3478  0.1360  0.0117
   63MOL    H8516329   2.027   7.602   6.649  3.4707  0.6296  1.7614
   63MOL    H8616330   2.122   7.471   6.711  0.1938 -0.0599 -0.2653
   63MOL    H8716331   1.846   7.481   6.586 -0.3380 -1.2263 -0.0689
   63MOL    H8816332   1.716   7.612   6.747 -0.3196 -0.8546  0.9728
   63MOL    H8916333   1.874   7.662   6.776  0.1931  0.1682  0.7931
   63MOL    H9016334   1.727   7.682   6.973 -0.1890 -0.4942  2.0488
   63MOL    H9116335   1.699   7.502   6.972  1.0741 -0.2383  1.0174
   63MOL    H9216336   1.851   7.568   7.020 -1.2424 -2.0360  1.5387
   63MOL    C9316337   1.896   7.276   6.650 -0.1164  0.0130  0.4227
   63MOL    C9416338   1.752   7.218   6.660  0.2035  0.7506  0.0224
   63MOL    O9516339   1.759   7.071   6.658  0.2852 -0.3696  0.3181
   63MOL    C9616340   1.779   7.014   6.790 -0.1124 -0.0737 -0.1194
   63MOL    C9716341   1.800   6.864   6.758  0.5483  0.4709  0.4433
   63MOL    H9816342   1.955   7.236   6.732  3.5590  2.1677 -1.0370
   63MOL    H9916343   1.942   7.236   6.559 -1.0462  1.5191 -0.7457
   63MOL   H10016344   1.725   7.252   6.760 -1.4742 -2.4038  0.7232
   63MOL   H10116345   1.693   7.041   6.851 -0.0175 -1.1730  0.5153
   63MOL   H10216346   1.866   7.057   6.838 -0.0496 -1.8091  1.4002
   63MOL   H10316347   1.717   6.813   6.710 -0.5910 -0.1218  2.9309
   63MOL   H10416348   1.892   6.848   6.702  0.4650 -0.1380  0.4836
   63MOL   H10516349   1.802   6.804   6.849 -1.3047 -3.7565 -2.1912
   63MOL   C10616350   1.654   7.254   6.549 -0.5562 -0.4218  0.3383
   63MOL   C10716351   1.507   7.215   6.573 -0.1985 -0.3779  1.0777
   63MOL   O10816352   1.454   7.251   6.698  0.1416 -0.5244  0.1930
   63MOL   C10916353   1.399   7.380   6.702  0.1178  0.2883  0.3847
   63MOL   C11016354   1.402   7.434   6.848  0.1333  0.3677 -0.4588
   63MOL   H11116355   1.680   7.210   6.453  0.9819  1.4728 -0.1391
   63MOL   H11216356   1.654   7.357   6.515  0.6944 -0.2911  0.6897
   63MOL   H11316357   1.442   7.266   6.502 -0.0758 -0.0229  1.2222
   63MOL   H11416358   1.298   7.366   6.665 -0.0845  1.5253  0.4217
   63MOL   H11516359   1.444   7.452   6.634  0.0494 -0.4291 -0.4243
   63MOL   H11616360   1.370   7.359   6.920 -0.5350 -0.1392 -1.2718
   63MOL   H11716361   1.496   7.478   6.882  0.2513  0.5275 -0.9860
   63MOL   H11816362   1.333   7.518   6.857  0.2669  0.2572  1.9750
   63MOL   C11916363   1.485   7.064   6.560  0.1885 -0.4179  0.5156
   63MOL   C12016364   1.342   7.014   6.546  0.2148 -0.3135  0.2470
   63MOL   O12116365   1.335   6.877   6.597  0.6037 -1.0923  0.4611
   63MOL   C12216366   1.323   6.865   6.733 -0.3270 -0.0197  0.6477
   63MOL   C12316367   1.344   6.711   6.767 -0.5920 -0.1162 -0.2060
   63MOL   H12416368   1.525   7.021   6.652 -0.9527 -4.5311 -0.7868
   63MOL   H12516369   1.554   7.024   6.485  0.1013  0.1141  0.1471
   63MOL   H12616370   1.277   7.079   6.604  0.7898 -0.8138  1.4801
   63MOL   H12716371   1.223   6.902   6.754 -0.5486 -0.6387  0.6987
   63MOL   H12816372   1.399   6.917   6.792 -0.6591  0.1111  0.9607
   63MOL   H12916373   1.443   6.675   6.739 -0.5565 -0.2396  0.0738
   63MOL   H13016374   1.319   6.682   6.869 -3.3989 -0.6902 -1.0087
   63MOL   H13116375   1.271   6.660   6.704 -0.7489 -0.2593  0.0903
   63MOL   C13216376   1.284   7.018   6.406  0.5276 -0.3538 -0.4727
   63MOL   C13316377   1.149   6.946   6.383  0.0109 -0.3895  0.2232
   63MOL   O13416378   1.156   6.914   6.250 -0.0525 -0.6069  0.1512
   63MOL   C13516379   1.081   6.798   6.213  0.1992 -0.0138 -0.6664
   63MOL   C13616380   1.115   6.666   6.285  0.0966  0.1978  0.2900
   63MOL   H13716381   1.362   6.971   6.348 -0.7229  0.1241 -2.6208
   63MOL   H13816382   1.276   7.119   6.365  1.2771  0.4017  1.1921
   63MOL   H13916383   1.145   6.858   6.447  1.4903  0.3684  1.3882
   63MOL   H14016384   1.098   6.775   6.108  3.0009 -0.4332 -0.1517
   63MOL   H14116385   0.975   6.811   6.237  0.1595 -2.9784  1.0031
   63MOL   H14216386   1.221   6.649   6.266  0.1865  2.3574 -1.2789
   63MOL   H14316387   1.103   6.673   6.393  2.0815 -1.0531  0.6215
   63MOL   H14416388   1.054   6.581   6.254 -2.7354  3.0197 -2.2531
   63MOL   C14516389   1.018   7.029   6.402  0.2354  0.4131 -0.3670
   63MOL   C14616390   0.960   7.019   6.535  0.5177  0.4026 -0.7110
   63MOL   O14716391   0.906   6.885   6.535 -0.4957  0.3868  0.2031
   63MOL   C14816392   0.948   6.803   6.649 -1.0209 -0.2993  0.9725
   63MOL   C14916393   0.881   6.663   6.633 -0.9205 -0.9568  0.1011
   63MOL   H15016394   0.946   7.011   6.321 -1.8985  3.0669  0.8640
   63MOL   H15116395   1.055   7.129   6.378  0.8609 -0.1980 -2.0495
   63MOL   H15216396   1.039   7.043   6.607 -0.1768  2.7863 -0.7200
   63MOL   H15316397   0.913   6.858   6.737  1.3813  0.5490  1.4331
   63MOL   H15416398   1.056   6.809   6.662 -1.1324  2.5841  1.0746
   63MOL   H15516399   0.903   6.594   6.714  0.8845  1.1147  1.4424
   63MOL   H15616400   0.775   6.687   6.630 -1.0043 -1.0544  2.0308
   63MOL   H15716401   0.909   6.627   6.534  0.4433  3.0099 -1.0480
   63MOL   C15816402   0.832   7.103   6.553 -1.5021  0.4386  0.2326
   63MOL   C15916403   0.767   7.106   6.690  0.7230 -0.2329 -0.0205
   63MOL   O16016404   0.623   7.129   6.683 -0.1557 -0.1236 -0.1877
   63MOL   C16116405   0.550   7.008   6.671  0.4411 -0.0905  0.1235
   63MOL   C16216406   0.402   7.048   6.704  0.2564  0.3264 -0.6524
   63MOL   H16316407   0.761   7.058   6.483 -1.1216 -1.2699  0.8995
   63MOL   H16416408   0.848   7.202   6.512 -0.1552  0.0378 -0.2478
   63MOL   H16516409   0.792   7.020   6.752  1.3539 -1.3646 -1.8193
   63MOL   H16616410   0.571   6.933   6.746  2.1508  1.8859  1.7013
   63MOL   H16716411   0.566   6.956   6.576 -1.6562  0.6467 -0.6652
   63MOL   H16816412   0.413   7.092   6.803  0.0816 -0.2100 -0.3956
   63MOL   H16916413   0.368   7.129   6.640 -0.4418  1.1025  0.6632
   63MOL   H17016414   0.328   6.968   6.698  0.0793  0.4935 -0.6895
   63MOL   C17116415   0.816   7.231   6.775  0.2515  0.3543  0.6493
   63MOL   C17216416   0.970   7.244   6.808  0.2836  0.0332 -0.2597
   63MOL   O17316417   0.999   7.141   6.897  0.4304  0.9929  0.2233
   63MOL   C17416418   1.131   7.113   6.926  0.0741 -0.0232  0.1167
   63MOL   C17516419   1.120   6.970   6.984  0.3382 -1.3866  0.0332
   63MOL   H17616420   0.767   7.220   6.872 -0.6946 -2.4931 -0.0982
   63MOL   H17716421   0.771   7.322   6.736  2.1457  0.3343 -1.7536
   63MOL   H17816422   1.016   7.247   6.709 -0.5536  1.8878 -0.6186
   63MOL   H17916423   1.161   7.179   7.008  0.8106  0.5256 -0.5853
   63MOL   H18016424   1.197   7.120   6.840 -0.1437 -0.6059 -0.1005
   63MOL   H18116425   1.065   6.896   6.926 -1.2930  0.3401 -0.6710
   63MOL   H18216426   1.220   6.935   7.010  1.5124  0.2671 -2.0895
   63MOL   H18316427   1.068   6.974   7.080 -0.2149 -0.9604 -0.2802
   63MOL   C18416428   1.002   7.380   6.878  0.1708 -0.1896  0.5482
   63MOL   C18516429   0.987   7.503   6.779 -0.4945 -0.3060 -0.3393
   63MOL   O18616430   1.064   7.492   6.660  0.3436  0.1381 -0.2817
   63MOL   C18716431   0.989   7.479   6.540  0.2696  0.5085 -0.6770
   63MOL   C18816432   1.083   7.445   6.428 -0.2170  0.0601 -0.2519
   63MOL   H18916433   1.106   7.376   6.911 -0.2777  0.8216  2.2055
   63MOL   H19016434   0.943   7.390   6.969  1.4826 -0.2710  1.4352
   63MOL   H19116435   0.883   7.511   6.746  0.4786  0.9112 -3.3682
   63MOL   H19216436   0.928   7.564   6.510 -0.3555  0.2304 -0.2080
   63MOL   H19316437   0.907   7.409   6.557 -0.8788  2.1392  0.7387
   63MOL   H19416438   1.153   7.526   6.409  1.0083 -0.5741  1.4909
   63MOL   H19516439   1.147   7.363   6.460  0.3254  0.3269 -0.6564
   63MOL   H19616440   1.035   7.411   6.336 -0.2489 -1.7934  0.4324
   63MOL   C19716441   1.020   7.637   6.845  0.0856 -0.1127 -0.5769
   63MOL   C19816442   0.950   7.664   6.980 -0.7840 -0.5758 -0.6376
   63MOL   O19916443   0.810   7.638   6.947  0.6857 -0.5627  0.1336
   63MOL   C20016444   0.731   7.608   7.060 -0.2960  0.5564  0.4098
   63MOL   C20116445   0.646   7.501   6.999  0.3600 -0.2726 -0.6180
   63MOL   H20216446   1.010   7.719   6.774 -0.3520  1.2967  1.1026
   63MOL   H20316447   1.126   7.623   6.868  0.3269  0.7736 -1.1327
   63MOL   H20416448   0.991   7.594   7.053  0.8578  1.4790  0.4813
   63MOL   H20516449   0.662   7.692   7.070 -0.6103  0.5572 -1.5138
   63MOL   H20616450   0.775   7.573   7.153 -0.3656  1.4994  0.8080
   63MOL   H20716451   0.706   7.422   6.952  0.2594 -0.5262 -0.3240
   63MOL   H20816452   0.585   7.451   7.075  0.2840 -0.5130 -0.8374
   63MOL   H20916453   0.583   7.534   6.917 -0.8073  1.5536  0.9797
   63MOL   C21016454   0.960   7.808   7.029 -0.2422 -0.2110 -0.5147
   63MOL   C21116455   1.074   0.001   7.126  0.2826  0.7830 -0.5411
   63MOL   O21216456   1.185   7.813   7.049 -0.0682 -0.4258  0.5558
   63MOL   C21316457   1.303   0.037   7.088 -0.1383 -0.1610  0.1313
   63MOL   C21416458   1.420   0.005   6.992  0.2906  0.0774 -0.3678
   63MOL   H21516459   0.861   7.831   7.068 -0.4542 -0.1939 -1.0558
   63MOL   H21616460   0.951   0.030   6.942 -0.1242  0.1398 -0.2633
   63MOL   H21716461   1.080   0.106   7.153 -0.2126  0.9112 -0.9327
   63MOL   H21816462   1.331   7.837   7.185  0.2902 -2.2060 -0.8762
   63MOL   H21916463   1.284   0.144   7.087  1.0728  0.0561 -0.0668
   63MOL   H22016464   1.397   0.058   6.899  1.0886 -1.2496 -1.3302
   63MOL   H22116465   1.509   0.053   7.033 -0.3460  0.5436  0.4972
   63MOL   H22216466   1.435   7.744   6.969  0.2807 -0.3835  1.6599
   63MOL   C22316467   1.073   7.762   7.256 -0.3530  0.5643 -0.3048
   63MOL   C22416468   0.955   7.771   7.351 -0.2653 -0.0326 -0.4282
   63MOL   O22516469   0.932   0.068   7.361  0.4228  0.0406  0.3556
   63MOL   C22616470   0.800   0.106   7.386  0.0172 -0.2520  0.2311
   63MOL   C22716471   0.790   0.233   7.466  0.4976 -0.1166  0.0264
   63MOL   H22816472   1.160   7.790   7.314  1.8905 -1.4533 -2.5727
   63MOL   H22916473   1.082   7.656   7.231 -0.2389  0.1418  1.5187
   63MOL   H23016474   0.883   7.706   7.302 -1.3891 -0.3053  1.5519
   63MOL   H23116475   0.738   0.031   7.436 -2.5019  2.5539  1.5044
   63MOL   H23216476   0.757   0.109   7.286 -1.6251 -1.1219  0.8970
   63MOL   H23316477   0.861   0.306   7.427  2.3496 -1.8528  0.0730
   63MOL   H23416478   0.688   0.273   7.463  0.9886  1.1253 -0.3750
   63MOL   H23516479   0.810   0.205   7.570  0.2478 -2.0498 -0.4371
   63MOL   C23616480   0.987   7.722   7.497  0.4569 -0.0724  0.7161
   63MOL   C23716481   1.046   7.582   7.510 -0.1073  0.1297 -0.7441
   63MOL   O23816482   0.978   7.489   7.430 -0.5108 -0.4594  0.0143
   63MOL   C23916483   1.053   7.376   7.384 -0.5511  0.0650 -0.4979
   63MOL   C24016484   1.068   7.376   7.235  0.0447 -0.2123 -0.2550
   63MOL   H24116485   0.906   7.729   7.569 -0.1595  0.5897 -0.0252
   63MOL   H24216486   1.064   7.795   7.523 -1.1083  1.1545  2.0782
   63MOL   H24316487   1.150   7.599   7.480 -0.6444  1.4786 -1.9208
   63MOL   H24416488   0.995   7.289   7.415  1.0388 -1.1977 -0.9862
   63MOL   H24516489   1.149   7.364   7.435 -1.0300  2.3309  0.9940
   63MOL   H24616490   1.154   7.439   7.209  0.7805 -0.3662  1.7306
   63MOL   H24716491   1.083   7.275   7.198 -1.0710 -0.0661 -1.1627
   63MOL   H24816492   0.981   7.412   7.180  1.0539  0.9716 -1.1067
   63MOL   C24916493   1.049   7.540   7.659 -0.7533  0.1910  0.4634
   63MOL   C25016494   1.171   7.591   7.733 -0.3888  0.2301  0.0467
   63MOL   O25116495   1.292   7.540   7.690  0.4243  0.4662 -0.0765
   63MOL   C25216496   1.328   7.412   7.747 -0.0223 -0.1860 -0.3729
   63MOL   C25316497   1.473   7.394   7.700  0.5335 -0.4138 -0.1001
   63MOL   H25416498   1.054   7.431   7.667  1.9830 -0.1689 -4.4087
   63MOL   H25516499   0.962   7.569   7.717 -1.9808 -0.2822 -1.1107
   63MOL   H25616500   1.174   7.699   7.722 -0.1987  0.2435  0.2250
   63MOL   H25716501   1.263   7.328   7.724  0.2428 -0.3968 -0.3571
   63MOL   H25816502   1.330   7.427   0.011 -1.4207  0.9324 -0.5001
   63MOL   H25916503   1.508   7.298   7.741 -0.8391 -0.9774 -0.2147
   63MOL   H26016504   1.486   7.380   7.593  3.0712  0.4783  0.0497
   63MOL   H26116505   1.550   7.459   7.742  0.7787 -0.7852  0.0329
   63MOL   H26216506   1.149   7.581   7.839 -0.1427 -3.6872 -0.2033
   64MOL     C116507   5.796   7.830   4.581  0.1611  0.2250  0.2163
   64MOL     C216508   5.948   0.007   4.585 -0.2006 -0.3569 -0.5188
   64MOL     O316509   5.976   0.096   4.694 -0.0150 -0.9170 -0.0332
   64MOL     C416510   5.977   0.045   4.828 -0.0646 -0.1507  0.3156
   64MOL     C516511   6.011   0.148   4.938  0.1899 -0.0965  0.4319
   64MOL     H616512   5.782   7.750   4.508 -0.1485 -2.5957  3.2363
   64MOL     H716513   5.744   7.781   4.664 -0.6368  2.4932  1.1037
   64MOL     H816514   5.984   7.753   4.618 -2.7399 -1.6303 -1.4436
   64MOL     H916515   6.053   7.810   4.830 -1.1129 -1.2750 -1.7906
   64MOL    H1016516   5.878   0.001   4.838  0.7961 -2.4436 -0.9131
   64MOL    H1116517   5.935   0.226   4.943  0.2098  0.0599 -1.4979
   64MOL    H1216518   6.024   0.097   5.034  1.8534  0.3818  0.4772
   64MOL    H1316519   6.112   0.182   4.915 -0.2487  1.5071  0.8608
   64MOL    H1416520   5.732   0.070   4.553 -1.2868 -0.4982  1.2983
   64MOL    C1516521   6.012   0.063   4.460 -0.3540  0.0408 -0.2183
   64MOL    C1616522   6.162   0.077   4.467 -0.6041 -0.1117 -0.3621
   64MOL    O1716523   6.214   0.082   4.331 -0.2883 -0.0158  0.3522
   64MOL    C1816524   6.230   0.208   4.277  0.4780 -0.2366 -1.0636
   64MOL    C1916525   6.351   0.279   4.331 -0.6412  0.3941 -0.0818
   64MOL    H2016526   5.969   0.160   4.434 -1.5721 -1.1055 -2.6526
   64MOL    H2116527   5.999   7.839   4.375  1.7574 -1.0969  0.3201
   64MOL    H2216528   6.195   0.164   4.525 -1.6412  0.4633 -0.6054
   64MOL    H2316529   6.132   0.254   4.287 -0.0295 -1.5562  0.1952
   64MOL    H2416530   6.238   0.184   4.171 -0.2769  0.0560 -1.1897
   64MOL    H2516531   6.362   0.376   4.282 -3.0072 -0.3837 -2.2361
   64MOL    H2616532   6.448   0.239   4.301 -0.2051  1.4528 -0.0998
   64MOL    H2716533   6.364   0.278   4.439 -0.6366  2.3863 -0.0417
   64MOL    C2816534   6.234   7.794   4.521 -0.0004  0.0070 -0.4107
   64MOL    C2916535   6.384   7.812   4.532 -0.6448  0.3040  0.1025
   64MOL    O3016536   6.437   7.678   4.556  0.2514 -0.0108 -0.8949
   64MOL    C3116537   6.490   7.611   4.445  0.3523 -0.0637 -0.3632
   64MOL    C3216538   6.533   7.471   4.477  0.2271  0.1470  0.3415
   64MOL    H3316539   6.214   7.718   4.446  0.8502  0.1480 -0.7764
   64MOL    H3416540   6.194   7.772   4.620  1.7017 -1.0000  0.0678
   64MOL    H3516541   6.422   0.007   4.437 -0.9374  0.7882  0.1812
   64MOL    H3616542   6.574   7.668   4.406 -1.6098  1.4512 -2.5698
   64MOL    H3716543   6.425   7.620   4.357  2.9524  2.2113 -2.1425
   64MOL    H3816544   6.566   7.428   4.383 -1.7731 -1.7122  0.4619
   64MOL    H3916545   6.607   7.458   4.557  2.4594  1.8498 -1.3903
   64MOL    H4016546   6.456   7.407   4.521 -0.0058  0.0052 -0.2820
   64MOL    C4116547   6.434   0.063   4.635 -1.0360  1.3353 -0.1235
   64MOL    C4216548   6.587   0.071   4.655 -0.9630 -0.7146  0.0002
   64MOL    O4316549   6.597   0.159   4.773  0.1859 -0.1344 -0.0515
   64MOL    C4416550   6.733   0.161   4.827  0.7483  0.1075  0.6845
   64MOL    C4516551   6.734   0.239   4.956  0.2290  0.4372 -0.0296
   64MOL    H4616552   6.379   0.031   4.723  1.2614 -3.8102 -0.3713
   64MOL    H4716553   6.406   0.165   4.609 -0.9214  1.3790 -0.0755
   64MOL    H4816554   6.624   7.818   4.688  0.0379 -0.5425 -0.6004
   64MOL    H4916555   6.809   0.195   4.756  0.7023  1.1956  1.1383
   64MOL    H5016556   6.760   0.063   4.866  0.4784 -1.1751 -2.2494
   64MOL    H5116557   6.831   0.238   5.007 -0.7943 -0.7142  1.9464
   64MOL    H5216558   6.707   0.343   4.938 -0.5530 -0.0112 -1.5137
   64MOL    H5316559   6.654   0.194   5.015 -0.6003  0.8164 -0.8669
   64MOL    C5416560   6.665   0.134   4.539  0.3222 -0.6346 -0.2594
   64MOL    C5516561   6.783   0.045   4.482 -0.0060  0.1483 -0.4728
   64MOL    O5616562   6.871   0.023   4.591  0.3347  0.0579 -0.2713
   64MOL    C5716563   6.955   7.757   4.582  0.5017 -0.8953 -0.2337
   64MOL    C5816564   7.025   7.753   4.721  0.3257 -0.1019  0.1784
   64MOL    H5916565   6.694   0.238   4.555 -1.9333  0.3196 -2.0777
   64MOL    H6016566   6.595   0.154   4.459  0.6845 -0.4735 -0.5397
   64MOL    H6116567   6.741   7.795   4.446 -0.2315 -0.0079  0.1944
   64MOL    H6216568   7.027   7.767   4.501 -0.7102 -0.9065 -1.3335
   64MOL    H6316569   6.892   7.670   4.560 -0.0407 -0.0660 -2.0347
   64MOL    H6416570   7.097   7.833   4.735 -0.7569  0.5489  2.2007
   64MOL    H6516571   6.947   7.779   4.793  0.7946  1.3415  0.1773
   64MOL    H6616572   7.079   7.661   4.742 -1.9740 -1.2007  1.5031
   64MOL    C6716573   6.864   0.109   4.362 -1.3730 -0.6149  0.0023
   64MOL    C6816574   6.781   0.126   4.235 -0.5447 -0.0102  0.3203
   64MOL    O6916575   6.746   7.830   4.196 -0.4200 -0.3514 -0.4307
   64MOL    C7016576   6.624   7.836   4.127 -0.7029 -0.0506 -0.6337
   64MOL    C7116577   6.596   7.695   4.087  0.1738 -0.0396  0.1282
   64MOL    H7216578   6.953   0.051   4.340 -1.6214 -1.0063  0.0221
   64MOL    H7316579   6.895   0.208   4.396  0.6928 -1.4408  0.5441
   64MOL    H7416580   6.696   0.188   4.265  0.0093  0.4733  0.9118
   64MOL    H7516581   6.621   0.071   4.051  0.0013  0.8848  0.2823
   64MOL    H7616582   6.553   0.033   4.200 -0.2127  1.1215 -0.7958
   64MOL    H7716583   6.657   7.651   4.008  0.7150  1.8974 -0.5413
   64MOL    H7816584   6.591   7.628   4.174 -1.0562  0.2889  0.3154
   64MOL    H7916585   6.506   7.696   4.026  1.2401 -1.4298 -1.4882
   64MOL    C8016586   6.867   0.195   4.125  0.5390  0.2433  0.2538
   64MOL    C8116587   6.910   0.337   4.153  0.4972 -0.3351  0.0730
   64MOL    O8216588   6.795   0.406   4.200  0.3007 -0.3301 -0.0727
   64MOL    C8316589   6.794   0.536   4.264  0.4652  0.2835 -0.3426
   64MOL    C8416590   6.662   0.530   4.344 -0.2932  0.0855  0.2962
   64MOL    H8516591   6.808   0.186   4.034  1.9343  0.7798 -0.7104
   64MOL    H8616592   6.956   0.132   4.119  1.5212  1.5460  0.7749
   64MOL    H8716593   6.987   0.340   4.230  2.3739  0.7385 -1.7850
   64MOL    H8816594   6.808   0.615   4.190  0.8160  1.8500  1.3750
   64MOL    H8916595   6.871   0.535   4.341  0.6277  2.5709 -0.4643
   64MOL    H9016596   6.643   0.625   4.394  0.5911 -1.0392  2.8460
   64MOL    H9116597   6.570   0.502   4.293 -0.0774 -0.3823  0.1619
   64MOL    H9216598   6.666   0.458   4.426  1.2816  0.7265  0.8113
   64MOL    C9316599   6.954   0.411   4.024 -0.2048 -0.3917  0.3326
   64MOL    C9416600   7.100   0.388   3.976  0.0777  0.9040  0.0665
   64MOL    O9516601   7.150   0.506   3.913 -0.0770  0.0298  0.2126
   64MOL    C9616602   7.205   0.597   4.002  0.4671 -0.5840  0.3676
   64MOL    C9716603   7.248   0.721   3.928  0.0029  0.0847 -0.1619
   64MOL    H9816604   6.952   0.518   4.047  0.7363 -0.2136 -0.3587
   64MOL    H9916605   6.876   0.404   3.948 -1.5550  1.8602  1.4346
   64MOL   H10016606   7.157   0.342   4.057  0.0370 -0.5323 -0.6929
   64MOL   H10116607   7.298   0.562   4.047  0.0178  0.7548  2.4245
   64MOL   H10216608   7.132   0.621   4.080  0.4201  1.6566 -0.3225
   64MOL   H10316609   7.324   0.705   3.852  0.5889  0.3714  0.3636
   64MOL   H10416610   7.162   0.772   3.885 -0.5611 -0.6294  0.1139
   64MOL   H10516611   7.287   0.797   3.996  0.7518  0.4270 -0.9708
   64MOL   C10616612   7.103   0.278   3.874  0.0101  0.1028 -0.2083
   64MOL   C10716613   7.244   0.243   3.817 -0.0373 -0.0659 -0.2624
   64MOL   O10816614   7.229   0.158   3.707 -0.1443 -0.1836  0.3580
   64MOL   C10916615   7.224   0.230   3.586 -0.1798 -0.0769 -0.5610
   64MOL   C11016616   7.148   0.135   3.501  0.5471  0.6379 -0.2806
   64MOL   H11116617   7.039   0.320   3.797 -2.3075 -2.2433  0.3831
   64MOL   H11216618   7.054   0.189   3.912 -0.9426  1.8076  2.6759
   64MOL   H11316619   7.281   0.341   3.788 -2.1016  0.8600  0.0827
   64MOL   H11416620   7.318   0.268   3.545 -1.0727 -0.4199 -3.0310
   64MOL   H11516621   7.164   0.320   3.601  2.5822  1.2696  2.9942
   64MOL   H11616622   7.132   0.172   3.399  1.5770 -0.5240 -0.8753
   64MOL   H11716623   7.206   0.043   3.492  0.0602  0.2303  0.6931
   64MOL   H11816624   7.048   0.110   3.538  1.4783 -4.1901 -0.7392
   64MOL   C11916625   7.333   0.163   3.921 -0.3887  0.3828  0.0291
   64MOL   C12016626   7.448   0.079   3.854  0.6500 -0.6226 -0.0593
   64MOL   O12116627   7.527   0.017   3.956 -0.1807 -0.1698  0.6579
   64MOL   C12216628   7.468   7.739   4.000 -0.1511  0.0894 -0.8530
   64MOL   C12316629   7.566   7.666   4.089 -0.3881  0.2041 -0.1594
   64MOL   H12416630   7.267   0.095   3.974  2.3938 -1.8640  0.7301
   64MOL   H12516631   7.374   0.226   4.000  1.8166 -0.4608 -0.3914
   64MOL   H12616632   7.405   0.011   3.779 -0.3290  0.5447 -0.5807
   64MOL   H12716633   7.435   7.680   3.913  0.5734 -0.9675 -0.4210
   64MOL   H12816634   7.377   7.759   4.056  0.5904  1.0375  0.0016
   64MOL   H12916635   7.513   7.585   4.139 -0.6879  0.1418 -0.5744
   64MOL   H13016636   7.653   7.629   4.034  1.1187 -0.1683  2.4185
   64MOL   H13116637   7.596   7.735   4.167  1.1094 -1.6967  0.9749
   64MOL   C13216638   7.550   0.170   3.788 -0.3649  0.1137  0.4056
   64MOL   C13316639   7.667   0.105   3.712  0.2437 -0.5282 -0.0014
   64MOL   O13416640   7.738   0.212   3.665 -0.4571  0.0165 -0.1282
   64MOL   C13516641   0.031   0.203   3.711  0.4763  0.0633 -0.0376
   64MOL   C13616642   0.127   0.311   3.657 -0.0222  0.6238 -0.0241
   64MOL   H13716643   7.578   0.243   3.864 -2.3650  1.9786 -0.5899
   64MOL   H13816644   7.491   0.223   3.712  1.4466  0.5669 -0.7067
   64MOL   H13916645   7.722   0.057   3.793  0.5504  1.8852  1.2656
   64MOL   H14016646   0.082   0.114   3.675  0.4719  0.1754 -0.3214
   64MOL   H14116647   0.035   0.223   3.818  0.1190  0.0600 -0.0259
   64MOL   H14216648   0.129   0.312   3.548  0.5980  0.5251 -0.0156
   64MOL   H14316649   0.093   0.412   3.680  0.4473  1.1896 -1.7727
   64MOL   H14416650   0.230   0.305   3.693 -0.0209 -0.1247 -0.1408
   64MOL   C14516651   7.618   0.019   3.590  0.3968 -0.2669  0.5565
   64MOL   C14616652   7.726   7.812   3.495  0.3564 -0.3321  0.6345
   64MOL   O14716653   7.654   7.749   3.391 -0.3846 -0.2951  0.1735
   64MOL   C14816654   7.618   7.839   3.284  0.3910  0.5829 -0.7531
   64MOL   C14916655   7.472   7.835   3.254 -0.2158  0.3125 -0.8654
   64MOL   H15016656   7.547   0.078   3.532  0.7693  1.5709  1.9168
   64MOL   H15116657   7.555   7.780   3.622 -1.4598  0.3543 -1.4563
   64MOL   H15216658   7.786   0.054   3.463  1.0496 -0.4274  1.6639
   64MOL   H15316659   7.677   7.807   3.199  2.5378 -1.0262  1.2555
   64MOL   H15416660   7.652   0.098   3.300 -0.2343  0.8482 -1.1137
   64MOL   H15516661   7.406   0.035   3.329 -0.4877 -0.4131 -0.6812
   64MOL   H15616662   7.433   0.028   3.158 -0.8585 -1.2217 -1.2033
   64MOL   H15716663   7.446   7.730   3.267 -1.1228  0.5860 -0.3863
   64MOL   C15816664   7.817   7.713   3.568 -0.2439 -0.1423 -0.1465
   64MOL   C15916665   0.101   7.687   3.479  0.3577 -0.2726 -0.0711
   64MOL   O16016666   0.160   7.579   3.552 -0.3279  0.0391  0.3150
   64MOL   C16116667   0.167   7.455   3.484 -0.3491  0.5312 -0.1221
   64MOL   C16216668   0.194   7.336   3.576 -0.2897 -0.2642  0.6212
   64MOL   H16316669   7.755   7.623   3.573 -0.4097  0.0839  2.5631
   64MOL   H16416670   0.011   7.749   3.663  0.4722  0.9885 -0.8589
   64MOL   H16516671   0.069   7.653   3.380 -0.8677 -0.1194  0.2615
   64MOL   H16616672   0.244   7.473   3.409  0.5665  1.1391  0.9498
   64MOL   H16716673   0.081   7.439   3.419  0.5116 -0.1258 -1.1119
   64MOL   H16816674   0.122   7.329   3.658 -0.3315  3.5473  1.0313
   64MOL   H16916675   0.189   7.245   3.517 -1.4982  1.3060 -1.7580
   64MOL   H17016676   0.293   7.348   3.620  0.4313 -0.6923 -0.8620
   64MOL   C17116677   0.203   7.803   3.465  0.6116 -0.4957 -0.4019
   64MOL   C17216678   0.318   7.758   3.373 -0.4889 -0.1779  0.2160
   64MOL   O17316679   0.433   7.808   3.438  0.2559  0.1966  0.4555
   64MOL   C17416680   0.495   7.717   3.515 -0.2395 -0.1448 -0.6586
   64MOL   C17516681   0.601   7.784   3.602 -0.1671  0.1412 -0.1561
   64MOL   H17616682   0.251   7.837   3.557 -1.8235 -2.1029  1.5373
   64MOL   H17716683   0.163   0.043   3.407 -1.1737 -0.1613  1.2490
   64MOL   H17816684   0.320   7.649   3.371 -1.6411 -0.1907 -0.0980
   64MOL   H17916685   0.544   7.643   3.452 -3.4302 -0.5270 -2.7905
   64MOL   H18016686   0.435   7.655   3.582 -0.0631  0.6880  0.2802
   64MOL   H18116687   0.655   0.002   3.530  0.9817 -2.4129 -1.5250
   64MOL   H18216688   0.563   0.014   3.674  0.7796  0.6807 -0.2028
   64MOL   H18316689   0.659   7.705   3.649 -0.6451  1.7034  3.2524
   64MOL   C18416690   0.321   7.803   3.222 -0.1683  0.4331  0.2668
   64MOL   C18516691   0.219   7.732   3.133 -1.7215 -0.2290  0.2263
   64MOL   O18616692   0.238   7.588   3.144 -0.0651 -0.6360  0.6122
   64MOL   C18716693   0.118   7.516   3.126 -0.2162 -0.7963  0.4663
   64MOL   C18816694   0.155   7.371   3.136 -0.2172 -0.1265  0.8924
   64MOL   H18916695   0.420   7.774   3.188 -0.9201  0.7772 -2.3180
   64MOL   H19016696   0.317   0.067   3.210  0.7554  0.6806  1.9456
   64MOL   H19116697   0.120   7.768   3.159 -1.3972  0.0436  1.1347
   64MOL   H19216698   0.084   7.534   3.024  0.6879  0.3376  0.3480
   64MOL   H19316699   0.036   7.554   3.188 -0.7415 -0.0065 -0.7017
   64MOL   H19416700   0.220   7.348   3.220  0.8428 -0.9287 -0.1426
   64MOL   H19516701   0.060   7.319   3.155  0.3472 -0.3847  3.1612
   64MOL   H19616702   0.208   7.325   3.053 -1.4318  0.2049 -0.0819
   64MOL   C19716703   0.243   7.765   2.983 -0.5241 -0.4744 -0.1093
   64MOL   C19816704   0.286   0.062   2.948  0.2374 -0.5336 -0.6818
   64MOL   O19916705   0.191   0.160   3.005 -0.1153  0.1528  0.1807
   64MOL   C20016706   0.224   0.298   3.033 -0.4915 -0.1048  0.3628
   64MOL   C20116707   0.167   0.313   3.171 -0.1490 -0.3554  0.8053
   64MOL   H20216708   0.150   7.746   2.930  0.4450  0.5505 -2.2385
   64MOL   H20316709   0.321   7.699   2.946 -0.4230 -0.7745  0.6194
   64MOL   H20416710   0.382   0.079   2.996  0.6193 -0.5225 -1.4374
   64MOL   H20516711   0.191   0.375   2.963  0.1576  0.1396  0.3233
   64MOL   H20616712   0.331   0.315   3.041 -0.8420  1.4072  2.1627
   64MOL   H20716713   0.074   0.369   3.159  0.0370 -0.4912 -1.6024
   64MOL   H20816714   0.149   0.221   3.225 -0.7387 -0.7720 -0.0885
   64MOL   H20916715   0.220   0.377   3.242 -0.7293  2.4499 -1.1625
   64MOL   C21016716   0.292   0.094   2.796  0.5896  0.1200  0.1179
   64MOL   C21116717   0.154   0.102   2.729  0.1350 -0.2030  0.9456
   64MOL   O21216718   0.117   7.811   2.703 -0.0840  0.6377  0.4151
   64MOL   C21316719   7.814   7.791   2.693 -0.5822 -0.3331 -0.2116
   64MOL   C21416720   7.789   7.652   2.632 -0.2944  0.1738  0.0373
   64MOL   H21516721   0.349   0.016   2.745 -0.6353 -0.5207 -0.3021
   64MOL   H21616722   0.349   0.185   2.784  0.8838 -0.2675 -1.5086
   64MOL   H21716723   0.081   0.159   2.786  0.3019  0.1930  0.7670
   64MOL   H21816724   7.769   0.029   2.637 -2.3219 -0.6852  0.6589
   64MOL   H21916725   7.784   7.797   2.798  1.5108  1.6965  0.3120
   64MOL   H22016726   7.792   7.573   2.706  2.0218  0.1173 -0.0867
   64MOL   H22116727   7.691   7.644   2.586 -0.2729 -0.2259  0.0590
   64MOL   H22216728   0.014   7.631   2.549 -0.9175  0.4576 -0.5609
   64MOL   C22316729   0.169   0.163   2.583  0.0925  0.1310  0.2838
   64MOL   C22416730   0.203   0.312   2.574 -0.2956  0.5945  0.2653
   64MOL   O22516731   0.089   0.398   2.566 -0.0249 -0.5010 -0.0195
   64MOL   C22616732   0.009   0.395   2.678  0.3059  0.0891 -0.5621
   64MOL   C22716733   7.758   0.515   2.637 -0.2293 -0.1743 -0.1980
   64MOL   H22816734   0.085   0.135   2.521  0.8056 -0.3148 -0.4866
   64MOL   H22916735   0.252   0.110   2.537 -0.6944 -0.0787 -0.9087
   64MOL   H23016736   0.276   0.334   2.652 -0.0882 -2.1115  0.8621
   64MOL   H23116737   0.072   0.414   2.765 -0.6306 -1.6757  0.5138
   64MOL   H23216738   7.793   0.305   2.694 -2.4249  1.8409 -0.4680
   64MOL   H23316739   7.808   0.573   2.559  1.4243 -0.2607  0.7610
   64MOL   H23416740   7.673   0.479   2.580  0.4289 -0.1809 -1.1835
   64MOL   H23516741   7.745   0.587   2.718  0.6775 -0.3719  0.1333
   64MOL   C23616742   0.266   0.332   2.434 -0.5964  0.6494 -0.2153
   64MOL   C23716743   0.307   0.478   2.391 -0.3519  0.2118 -0.5601
   64MOL   O23816744   0.279   0.499   2.253  0.4497 -0.2501 -0.1704
   64MOL   C23916745   0.142   0.528   2.219 -0.6361  0.5928  0.5215
   64MOL   C24016746   0.122   0.525   2.074  0.2904  0.5007 -0.1523
   64MOL   H24116747   0.206   0.283   2.358 -1.1768 -0.6477  1.0531
   64MOL   H24216748   0.348   0.260   2.434 -1.4541 -0.3470 -1.1407
   64MOL   H24316749   0.250   0.553   2.445 -1.0785 -2.0092  1.9060
   64MOL   H24416750   0.124   0.622   2.270  0.0914  0.4951  0.9730
   64MOL   H24516751   0.069   0.454   2.252  0.3603 -0.7074 -0.0963
   64MOL   H24616752   0.016   0.519   2.048  0.4484 -0.1817 -0.6310
   64MOL   H24716753   0.163   0.615   2.029 -0.9123  1.5973  0.9050
   64MOL   H24816754   0.175   0.443   2.025  0.4063  0.7729 -0.4887
   64MOL   C24916755   0.456   0.510   2.413  0.1049  0.8895 -0.2794
   64MOL   C25016756   0.492   0.505   2.559 -0.0249 -0.1973 -0.2651
   64MOL   O25116757   0.635   0.537   2.571 -0.2278 -0.3626 -0.2147
   64MOL   C25216758   0.684   0.533   2.706 -0.3951  0.0868  0.1606
   64MOL   C25316759   0.838   0.519   2.695 -0.2491 -0.2986  0.2540
   64MOL   H25416760   0.473   0.615   2.389  1.3258  1.2843  2.1715
   64MOL   H25516761   0.521   0.444   2.355 -0.4390  0.7933 -0.7848
   64MOL   H25616762   0.442   0.581   2.618  1.8665  0.3999  0.6083
   64MOL   H25716763   0.648   0.441   2.752 -0.2208  0.9544  2.0818
   64MOL   H25816764   0.664   0.610   2.780 -2.5949 -1.8825  1.6957
   64MOL   H25916765   0.885   0.516   2.794  0.7313  3.0068 -0.0359
   64MOL   H26016766   0.855   0.427   2.639 -1.9156  0.2715 -1.2419
   64MOL   H26116767   0.877   0.606   2.641  1.0889 -1.4810 -0.7449
   64MOL   H26216768   0.478   0.403   2.596  1.3796 -0.9507 -1.7163
   65MOL     C116769   2.123   3.332   1.200 -0.2116 -0.6833 -0.0678
   65MOL     C216770   2.117   3.228   1.089 -0.4313 -0.4050  0.5623
   65MOL     O316771   2.109   3.097   1.140  0.1362 -0.0212  0.0453
   65MOL     C416772   1.975   3.051   1.157  0.7782  0.8085 -0.9742
   65MOL     C516773   1.881   3.052   1.035 -0.2337 -0.7083  1.0984
   65MOL     H616774   2.027   3.331   1.251 -0.7197  1.5240 -0.9185
   65MOL     H716775   2.201   3.319   1.276 -0.7911  0.8112  0.8009
   65MOL     H816776   2.038   3.256   1.020  0.2707 -2.2534 -1.0359
   65MOL     H916777   1.920   3.109   1.231  2.2881  0.8869  0.1157
   65MOL    H1016778   1.986   2.950   1.199 -2.1878 -1.1944 -4.6703
   65MOL    H1116779   1.793   2.989   1.044  0.4542 -2.2947 -2.7023
   65MOL    H1216780   1.852   3.157   1.030 -0.3223 -0.7781  0.1999
   65MOL    H1316781   1.935   3.038   0.942  1.2104  2.4283  1.3716
   65MOL    H1416782   2.140   3.433   1.163  0.5860 -0.2164  1.5082
   65MOL    C1516783   2.250   3.232   1.008 -0.3659 -0.3195  0.3845
   65MOL    C1616784   2.290   3.373   0.942 -0.5806 -0.0667  0.2302
   65MOL    O1716785   2.175   3.408   0.855  0.1922 -0.0687  0.3422
   65MOL    C1816786   2.181   3.540   0.804  0.0620 -0.0441 -0.2962
   65MOL    C1916787   2.047   3.572   0.739 -0.3806  0.6079  0.5275
   65MOL    H2016788   2.251   3.161   0.925 -1.8576 -1.2591  1.1588
   65MOL    H2116789   2.335   3.191   1.063 -1.6277  0.9488  3.4251
   65MOL    H2216790   2.299   3.442   1.026 -0.5965  0.5871 -0.3079
   65MOL    H2316791   2.254   3.546   0.723 -0.3385 -0.4435 -0.6855
   65MOL    H2416792   2.197   3.620   0.876 -1.4261  0.7514 -0.8199
   65MOL    H2516793   1.966   3.563   0.811  0.8983 -0.5833  1.8650
   65MOL    H2616794   2.021   3.492   0.669 -0.8792 -0.5321  1.9821
   65MOL    H2716795   2.041   3.670   0.692  1.4764  0.9979  1.0505
   65MOL    C2816796   2.428   3.391   0.867 -0.6437  0.5724  0.2483
   65MOL    C2916797   2.469   3.278   0.762  0.4150  0.2720  0.2279
   65MOL    O3016798   2.596   3.317   0.719 -0.1039 -0.7723 -0.2951
   65MOL    C3116799   2.695   3.218   0.736 -0.7948  0.0406 -0.3217
   65MOL    C3216800   2.840   3.276   0.710 -0.4197  0.4200  0.5910
   65MOL    H3316801   2.505   3.378   0.943  1.8606  0.1263 -2.2850
   65MOL    H3416802   2.452   3.488   0.823  1.2862  0.6081  1.3585
   65MOL    H3516803   2.469   3.190   0.825  2.0697  1.7618  2.3842
   65MOL    H3616804   2.673   3.141   0.662  1.0856 -0.6374 -0.1944
   65MOL    H3716805   2.687   3.180   0.838 -1.1945 -1.3244 -0.8524
   65MOL    H3816806   2.908   3.193   0.691  0.3952  0.9791  1.0759
   65MOL    H3916807   2.848   3.340   0.622  1.3439 -0.4727  0.0794
   65MOL    H4016808   2.867   3.340   0.793  0.9412 -0.5441  0.8927
   65MOL    C4116809   2.378   3.270   0.641  0.0760  0.5339  0.3350
   65MOL    C4216810   2.415   3.172   0.530 -0.3833  0.3676  0.2356
   65MOL    O4316811   2.326   3.163   0.415  0.0844 -0.1130  0.3007
   65MOL    C4416812   2.322   3.263   0.310  0.4256 -0.2052 -0.4206
   65MOL    C4516813   2.192   3.238   0.231  0.4530 -0.0265  0.0394
   65MOL    H4616814   2.374   3.370   0.597 -2.5392 -0.2624 -1.3757
   65MOL    H4716815   2.274   3.246   0.661  0.1475 -0.7683 -0.7959
   65MOL    H4816816   2.517   3.195   0.502 -1.2742  0.0785 -3.5526
   65MOL    H4916817   2.410   3.255   0.246 -0.9797  1.8291 -2.7310
   65MOL    H5016818   2.321   3.364   0.353 -2.7570  0.3199 -1.5439
   65MOL    H5116819   2.174   3.137   0.195  1.8338 -0.0055 -0.7585
   65MOL    H5216820   2.102   3.260   0.288 -0.6924 -0.9992 -1.3548
   65MOL    H5316821   2.180   3.308   0.148 -0.6171 -1.5666 -1.1347
   65MOL    C5416822   2.419   3.021   0.577  0.3612  0.3402 -0.2119
   65MOL    C5516823   2.462   2.917   0.470  0.5169  0.2596 -0.3305
   65MOL    O5616824   2.503   2.802   0.543 -0.4021  0.0376  0.3798
   65MOL    C5716825   2.393   2.712   0.566 -0.1520 -0.1601  0.2186
   65MOL    C5816826   2.461   2.585   0.622 -0.2083  0.5319  0.2685
   65MOL    H5916827   2.323   2.986   0.615  0.6321 -0.5188 -0.3041
   65MOL    H6016828   2.494   3.014   0.656  0.7385 -1.3916 -0.7028
   65MOL    H6116829   2.373   2.889   0.414 -1.4740  0.3403  2.6354
   65MOL    H6216830   2.343   2.690   0.472 -2.2820  0.3794  1.1853
   65MOL    H6316831   2.320   2.759   0.632 -1.0271  1.3732 -1.7717
   65MOL    H6416832   2.396   2.525   0.686 -1.2535  0.3577 -0.9360
   65MOL    H6516833   2.499   2.528   0.538 -0.7748  1.4282 -0.6023
   65MOL    H6616834   2.551   2.610   0.678  1.8492  1.2832 -3.2216
   65MOL    C6716835   2.571   2.947   0.370  0.0116  0.3471 -0.1050
   65MOL    C6816836   2.612   2.836   0.276  0.4014 -0.4345  0.1309
   65MOL    O6916837   2.723   2.895   0.206 -0.1447 -0.0864  0.0565
   65MOL    C7016838   2.819   2.806   0.151  0.4144 -0.4230  0.2852
   65MOL    C7116839   2.916   2.898   0.073 -0.1795 -0.1254 -0.2141
   65MOL    H7216840   2.652   2.985   0.433 -0.3690  0.4969  0.3002
   65MOL    H7316841   2.550   3.040   0.317 -0.8199  0.3816  0.2815
   65MOL    H7416842   2.650   2.744   0.322  1.2358  0.2949  0.9312
   65MOL    H7516843   2.771   2.731   0.088  1.3213 -0.8278  0.0593
   65MOL    H7616844   2.876   2.762   0.232  0.2131  0.1941  0.7702
   65MOL    H7716845   2.996   2.828   0.047 -1.0052 -1.1030 -0.1914
   65MOL    H7816846   2.879   2.941   7.824  2.8060  1.0680 -0.9050
   65MOL    H7916847   2.974   2.971   0.128 -1.3368 -0.1034  0.9920
   65MOL    C8016848   2.514   2.796   0.165 -0.6101 -0.1810 -0.4767
   65MOL    C8116849   2.463   2.900   0.054  0.1920  0.1012  0.2198
   65MOL    O8216850   2.340   2.848   7.844  1.0893 -0.1773 -0.2041
   65MOL    C8316851   2.230   2.888   0.078  0.5451  0.2148 -0.7906
   65MOL    C8416852   2.114   2.798   0.059  0.4729  0.4906  1.0874
   65MOL    H8516853   2.424   2.773   0.222 -2.5710  1.0152 -3.0065
   65MOL    H8616854   2.546   2.702   0.118  2.2587  1.3092 -1.6211
   65MOL    H8716855   2.448   3.001   0.093  1.0804  0.1121  0.5589
   65MOL    H8816856   2.213   2.989   0.040 -1.2342  0.1809 -0.1515
   65MOL    H8916857   2.243   2.907   0.185 -1.0063  0.2945 -0.5985
   65MOL    H9016858   2.092   2.793   7.796  0.5897  0.5374  1.0613
   65MOL    H9116859   2.128   2.694   0.089 -1.2271  0.4315  1.7354
   65MOL    H9216860   2.022   2.831   0.107 -1.4604 -2.6108 -0.3099
   65MOL    C9316861   2.563   2.924   7.783 -0.5166 -0.5722  0.4171
   65MOL    C9416862   2.509   2.996   7.652 -0.1725  0.2746  0.2316
   65MOL    O9516863   2.532   2.916   7.533 -0.4635  0.0852  0.0491
   65MOL    C9616864   2.429   2.818   7.518 -0.2864 -0.6594 -0.4545
   65MOL    C9716865   2.454   2.741   7.389  0.1519  0.0468  0.2512
   65MOL    H9816866   2.593   2.827   7.745 -1.3860 -0.5747 -0.3022
   65MOL    H9916867   2.652   2.974   7.822  0.1969 -1.7804  0.3338
   65MOL   H10016868   2.406   3.029   7.667  0.0933  1.3633 -0.2843
   65MOL   H10116869   2.335   2.872   7.513 -1.1443 -1.9037  1.6324
   65MOL   H10216870   2.430   2.755   7.606 -2.4913 -0.1456 -0.0375
   65MOL   H10316871   2.457   2.811   7.306 -2.3983  1.2443  1.0917
   65MOL   H10416872   2.545   2.682   7.382 -0.2349 -0.3464 -1.8541
   65MOL   H10516873   2.373   2.671   7.363  1.4460 -1.3197 -0.1823
   65MOL   C10616874   2.598   3.126   7.631  0.6203 -0.1868 -0.6834
   65MOL   C10716875   2.556   3.246   7.719 -0.6921 -0.3216 -0.0024
   65MOL   O10816876   2.438   3.290   7.658 -0.5063 -0.2824 -0.1155
   65MOL   C10916877   2.337   3.324   7.758  0.9387  0.0444  0.3900
   65MOL   C11016878   2.224   3.377   7.665 -0.8597 -0.2369 -0.0144
   65MOL   H11116879   2.591   3.155   7.526 -0.1398  4.6686  0.6147
   65MOL   H11216880   2.705   3.104   7.640  0.6238 -0.1419 -0.6203
   65MOL   H11316881   2.549   3.210   7.822  1.1273  0.2593  0.3404
   65MOL   H11416882   2.367   3.408   7.821  0.9623  1.5285 -1.5372
   65MOL   H11516883   2.303   3.240   7.818  1.1802 -0.6210 -0.4089
   65MOL   H11616884   2.166   3.311   7.601 -2.1281  0.8135  0.0139
   65MOL   H11716885   2.146   3.420   7.729  0.2265  1.7932  0.0056
   65MOL   H11816886   2.249   3.460   7.599 -0.2242 -0.0579  0.4495
   65MOL   C11916887   2.655   3.362   7.705 -0.6644  0.6656  0.6012
   65MOL   C12016888   2.783   3.338   7.795  0.2958  0.0195  0.2814
   65MOL   O12116889   2.754   3.360   0.089  0.3088 -0.6276 -0.1967
   65MOL   C12216890   2.773   3.236   0.161  0.2326  0.1393 -0.2161
   65MOL   C12316891   2.743   3.260   0.306 -0.4348  0.0508 -0.0157
   65MOL   H12416892   2.607   3.457   7.728 -0.3253  1.4107 -1.6346
   65MOL   H12516893   2.683   3.372   7.600  0.8488 -0.4650  0.8790
   65MOL   H12616894   2.803   3.231   7.787  0.9591  0.1557  0.0875
   65MOL   H12716895   2.876   3.201   0.154  0.8293  1.8702 -0.2364
   65MOL   H12816896   2.703   3.158   0.131 -0.5143  0.5996  0.3138
   65MOL   H12916897   2.636   3.269   0.324 -0.6222  0.6404 -1.3415
   65MOL   H13016898   2.770   3.170   0.360 -0.7454 -0.0085  0.0436
   65MOL   H13116899   2.799   3.345   0.346 -1.0912  1.2087 -1.4931
   65MOL   C13216900   2.894   3.428   7.754 -0.2188 -0.1423 -0.4196
   65MOL   C13316901   3.028   3.416   7.831  0.1236  0.1851 -0.1098
   65MOL   O13416902   3.108   3.522   7.793  0.1701  0.2610  0.4427
   65MOL   C13516903   3.078   3.654   7.810 -0.8088 -1.0549  0.3315
   65MOL   C13616904   3.194   3.731   7.760 -0.3566  0.4606 -0.2354
   65MOL   H13716905   2.866   3.533   7.759  1.0036  0.1314  0.6751
   65MOL   H13816906   2.923   3.422   7.649 -2.7917  0.0381 -1.1834
   65MOL   H13916907   3.006   3.433   0.093  0.8065 -1.8522  0.3702
   65MOL   H14016908   3.053   3.686   0.068 -1.4033  1.5120 -0.5806
   65MOL   H14116909   2.995   3.684   7.747 -1.7700 -1.7174  1.2636
   65MOL   H14216910   3.278   3.711   7.826  0.1863 -0.0359 -1.0690
   65MOL   H14316911   3.223   3.706   7.659  0.4028  2.6331 -0.5883
   65MOL   H14416912   3.167   3.837   7.771  1.1102  0.6623  1.8312
   65MOL   C14516913   3.110   3.285   7.828  0.0719  0.1703  0.4706
   65MOL   C14616914   3.223   3.278   0.094  0.5020 -0.1816  0.0606
   65MOL   O14716915   3.316   3.175   0.065  0.0449  0.2387 -0.1069
   65MOL   C14816916   3.446   3.223   0.045 -0.4701 -0.1177 -0.0933
   65MOL   C14916917   3.537   3.117   7.811 -0.5216 -0.9480  0.4828
   65MOL   H15016918   3.161   3.273   7.733  0.3786  0.6665  0.5706
   65MOL   H15116919   3.046   3.197   7.836  0.2640 -0.0829 -0.7232
   65MOL   H15216920   3.271   3.376   0.102  1.1148 -0.2246 -2.6206
   65MOL   H15316921   3.489   3.237   0.144  1.8574 -3.2858 -0.5618
   65MOL   H15416922   3.450   3.315   7.831  0.5062 -0.4310 -0.5433
   65MOL   H15516923   3.499   3.016   7.828  2.1982 -1.9066  1.0908
   65MOL   H15616924   3.539   3.134   7.704 -1.6563  1.9188  0.8695
   65MOL   H15716925   3.638   3.112   0.008  0.4998  0.8715 -1.7430
   65MOL   C15816926   3.170   3.238   0.238  0.6697 -0.1603 -0.0174
   65MOL   C15916927   3.276   3.249   0.350  0.2548 -0.5745 -0.2688
   65MOL   O16016928   3.220   3.204   0.474 -0.4315  0.1629  0.6500
   65MOL   C16116929   3.269   3.084   0.526 -0.3473  0.6744 -0.1398
   65MOL   C16216930   3.247   3.079   0.673  0.4232  0.0081 -0.1882
   65MOL   H16316931   3.128   3.137   0.240  3.3000 -1.3467 -1.9529
   65MOL   H16416932   3.094   3.306   0.277 -1.7911 -2.3806 -0.7091
   65MOL   H16516933   3.356   3.182   0.317 -0.5311 -1.9571  0.5857
   65MOL   H16616934   3.377   3.077   0.511  0.0181  0.2019  2.5799
   65MOL   H16716935   3.212   3.005   0.476 -2.7240  1.4698  1.2445
   65MOL   H16816936   3.147   3.097   0.709  0.4112 -0.8317  0.2159
   65MOL   H16916937   3.270   2.975   0.698 -0.7480 -0.1779  0.1032
   65MOL   H17016938   3.327   3.131   0.725  1.4977  0.3061 -2.0681
   65MOL   C17116939   3.339   3.393   0.370 -0.0237 -0.3803 -0.2724
   65MOL   C17216940   3.242   3.517   0.389  0.1826  0.5579  0.0819
   65MOL   O17316941   3.320   3.630   0.360  0.1307  0.3043  0.4803
   65MOL   C17416942   3.416   3.684   0.445  0.2242 -0.0024 -0.2888
   65MOL   C17516943   3.480   3.805   0.365 -0.7450 -0.1287 -0.4206
   65MOL   H17616944   3.421   3.409   0.300  0.1158 -1.0399 -0.2646
   65MOL   H17716945   3.395   3.373   0.461  1.3398  1.1309 -0.7563
   65MOL   H17816946   3.165   3.520   0.312 -0.3817  2.5302  0.7079
   65MOL   H17916947   3.485   3.604   0.473  1.2839  0.9097 -0.2373
   65MOL   H18016948   3.357   3.721   0.529 -2.1404  0.8396 -2.2838
   65MOL   H18116949   3.404   3.879   0.342  0.6375  1.8018  1.0054
   65MOL   H18216950   3.551   3.856   0.431 -1.3344  0.1898 -0.0266
   65MOL   H18316951   3.531   3.778   0.273  0.3270 -0.5458  0.2806
   65MOL   C18416952   3.166   3.514   0.527 -0.4029 -0.2947 -0.2592
   65MOL   C18516953   3.066   3.627   0.552  1.2714 -0.0301 -0.0591
   65MOL   O18616954   3.083   3.675   0.684  0.1712  0.0774 -0.2496
   65MOL   C18716955   3.119   3.814   0.701  0.4727 -0.1444 -0.0676
   65MOL   C18816956   3.170   3.841   0.845 -0.4629 -0.5028  0.3126
   65MOL   H18916957   3.244   3.506   0.603 -1.4757  1.2230  1.0344
   65MOL   H19016958   3.112   3.420   0.528  0.7676 -0.9877 -1.2140
   65MOL   H19116959   3.100   3.699   0.478  0.4316  0.3116 -0.1091
   65MOL   H19216960   3.027   3.872   0.697  0.2808 -0.5000 -0.8160
   65MOL   H19316961   3.189   3.849   0.625  0.3843 -1.6197 -0.8491
   65MOL   H19416962   3.111   3.797   0.924 -0.9364  1.5612  1.1348
   65MOL   H19516963   3.275   3.816   0.859  0.7340  2.9174 -1.7613
   65MOL   H19616964   3.164   3.948   0.865  3.2627 -0.0335 -0.6438
   65MOL   C19716965   2.920   3.586   0.528 -0.3370  0.5326  0.2371
   65MOL   C19816966   2.832   3.683   0.446  0.4779  0.4893 -0.1943
   65MOL   O19916967   2.849   3.815   0.474 -0.6525 -0.0343 -0.0097
   65MOL   C20016968   2.882   3.906   0.365 -0.3986  0.0197  0.6804
   65MOL   C20116969   3.013   3.982   0.401  0.4255 -0.4056  0.9867
   65MOL   H20216970   2.891   3.579   0.633  2.0556 -1.1129  0.8440
   65MOL   H20316971   2.919   3.486   0.486  0.9610  0.7441 -0.3246
   65MOL   H20416972   2.875   3.665   0.347  1.4922  0.4768  0.2507
   65MOL   H20516973   2.796   3.972   0.363 -0.3739  0.0025 -1.5042
   65MOL   H20616974   2.896   3.866   0.265  0.4368  2.4097 -0.1901
   65MOL   H20716975   3.047   4.054   0.327 -1.6332 -0.4058 -0.0008
   65MOL   H20816976   3.003   4.043   0.491 -2.2778 -2.0715  1.8554
   65MOL   H20916977   3.091   3.911   0.427  1.3273 -0.1798 -0.9871
   65MOL   C21016978   2.676   3.659   0.449 -0.0254  0.0455 -0.0932
   65MOL   C21116979   2.586   3.724   0.347  0.8058  0.2782 -0.6954
   65MOL   O21216980   2.454   3.693   0.392  0.2496  0.0792  0.1752
   65MOL   C21316981   2.394   3.806   0.457  0.1781  0.5001 -0.5981
   65MOL   C21416982   2.243   3.820   0.428  0.4250 -0.2624  0.2031
   65MOL   H21516983   2.637   3.697   0.543  1.1325  0.5446  0.1819
   65MOL   H21616984   2.649   3.553   0.451 -0.1351  0.0757  0.0571
   65MOL   H21716985   2.609   3.830   0.335  0.9616  0.3577  0.2881
   65MOL   H21816986   2.449   3.898   0.440  0.6580  0.6676  1.7119
   65MOL   H21916987   2.410   3.785   0.563  3.5886  1.0455 -0.9478
   65MOL   H22016988   2.176   3.736   0.444  0.4341  0.0091  1.8402
   65MOL   H22116989   2.210   3.896   0.499  0.8256 -2.5497  2.9534
   65MOL   H22216990   2.229   3.850   0.325 -2.1228 -2.4795 -0.1428
   65MOL   C22316991   2.615   3.655   0.209 -0.1391 -0.0018  0.1739
   65MOL   C22416992   2.560   3.732   0.091 -0.2679 -0.1656  0.9788
   65MOL   O22516993   2.641   3.852   0.063  0.0889 -0.1258 -0.2508
   65MOL   C22616994   2.759   3.826   7.834 -0.1054  0.1051 -0.2310
   65MOL   C22716995   2.822   3.961   7.785 -0.2664 -0.2570 -1.0876
   65MOL   H22816996   2.563   3.559   0.209  0.0640 -0.1499 -2.4699
   65MOL   H22916997   2.722   3.639   0.194 -0.1165 -0.1218  0.4574
   65MOL   H23016998   2.571   3.666   0.005  1.1063  1.4191 -0.0837
   65MOL   H23116999   2.747   3.770   7.742 -0.6740  1.7447 -1.1832
   65MOL   H23217000   2.835   3.777   0.051 -1.4380 -1.1896  0.4245
   65MOL   H23317001   2.756   4.011   7.714 -0.9672  1.0890  0.4646
   65MOL   H23417002   2.835   4.028   0.027 -0.1160  0.4191 -1.6369
   65MOL   H23517003   2.922   3.934   7.752 -0.8621 -3.3664 -0.4930
   65MOL   C23617004   2.418   3.775   0.099 -0.8840 -0.5797  0.2605
   65MOL   C23717005   2.353   3.847   7.817 -0.8530  0.3729 -0.7526
   65MOL   O23817006   2.223   3.882   0.009 -0.0025  0.0728  0.2282
   65MOL   C23917007   2.202   4.010   0.065 -0.5015  0.2952  0.5331
   65MOL   C24017008   2.049   4.011   0.093 -0.6039  0.1464  0.1917
   65MOL   H24117009   2.410   3.824   0.196 -1.4463 -1.0569  0.4539
   65MOL   H24217010   2.360   3.686   0.121  0.3219 -1.0027  1.8311
   65MOL   H24317011   2.408   3.939   7.796  0.2976  0.1744  1.2714
   65MOL   H24417012   2.223   4.080   7.829  0.4299  0.6885  1.1193
   65MOL   H24517013   2.257   4.038   0.155 -1.3161  0.4461  0.9946
   65MOL   H24617014   2.032   3.930   0.164  1.5671  0.7076  1.4134
   65MOL   H24717015   2.019   4.109   0.128  1.7538  1.3292 -0.9513
   65MOL   H24817016   1.995   3.996   7.843 -0.7731  1.5774  0.0500
   65MOL   C24917017   2.321   3.752   7.702  0.6308  0.1902 -0.3203
   65MOL   C25017018   2.246   3.821   7.587 -0.0946 -0.3745 -0.0183
   65MOL   O25117019   2.232   3.727   7.482  0.8671  0.1692 -0.0522
   65MOL   C25217020   2.155   3.778   7.369  0.0041  0.2584 -0.1018
   65MOL   C25317021   2.124   3.655   7.294 -0.3756 -0.1195 -0.1680
   65MOL   H25417022   2.260   3.669   7.737 -0.2035  0.7080 -0.5344
   65MOL   H25517023   2.410   3.698   7.668  0.5295 -0.0101 -0.2685
   65MOL   H25617024   2.153   3.869   7.620  0.4049  1.0130 -0.6213
   65MOL   H25717025   2.223   3.847   7.318  1.7992 -1.8274 -0.5952
   65MOL   H25817026   2.063   3.821   7.411 -0.2416  0.5420 -0.9257
   65MOL   H25917027   2.200   3.602   7.237 -0.6019  0.7986 -1.3527
   65MOL   H26017028   2.091   3.581   7.367 -0.9814 -1.4514 -1.7418
   65MOL   H26117029   2.033   3.667   7.235 -0.6631 -0.2755  0.2405
   65MOL   H26217030   2.301   3.906   7.546  0.8517 -1.1710 -0.4061
   66MOL     C117031   0.125   2.284   6.880 -0.4729 -0.4941  0.3256
   66MOL     C217032   0.133   2.140   6.933 -0.2009  0.0411  0.0113
   66MOL     O317033   0.226   2.070   6.848 -0.1033 -0.1584  0.5971
   66MOL     C417034   0.361   2.068   6.891  0.8580 -0.8047  1.0587
   66MOL     C517035   0.442   2.065   6.773  0.4620 -0.0225 -0.5009
   66MOL     H617036   0.227   2.323   6.879 -0.3916 -0.6136  2.3066
   66MOL     H717037   0.097   2.288   6.775  2.5663 -0.4873 -0.5304
   66MOL     H817038   0.175   2.152   7.033  1.8076 -1.7285 -0.5713
   66MOL     H917039   0.383   1.979   6.949  2.4560 -0.8925  0.3503
   66MOL    H1017040   0.394   2.153   6.952  2.7096  0.2830 -1.3520
   66MOL    H1117041   0.449   1.970   6.718  0.5706 -0.4293  0.2105
   66MOL    H1217042   0.404   2.136   6.699 -0.6491 -0.6614 -0.5519
   66MOL    H1317043   0.545   2.100   6.782  0.8383 -1.2177  0.0001
   66MOL    H1417044   0.070   2.356   6.940 -0.3227  1.5878 -1.9565
   66MOL    C1517045   7.841   2.064   6.933 -0.5257 -0.1226  0.2072
   66MOL    C1617046   7.757   2.098   7.059  0.1468  0.8289 -0.4814
   66MOL    O1717047   7.723   2.233   7.049 -0.2993 -0.3636  0.1150
   66MOL    C1817048   7.607   2.265   6.974 -0.1699 -0.0054 -0.1629
   66MOL    C1917049   7.590   2.412   6.943  0.4367  0.6405 -0.2995
   66MOL    H2017050   0.025   1.959   6.940  0.1170 -0.0477 -1.0908
   66MOL    H2117051   7.771   2.086   6.852 -1.1080  0.6426  0.9073
   66MOL    H2217052   7.675   2.028   7.050  1.3865 -0.6644 -0.4332
   66MOL    H2317053   7.521   2.244   7.037 -0.0868  1.3564  0.4281
   66MOL    H2417054   7.609   2.204   6.884  1.6631  0.4509 -0.4529
   66MOL    H2517055   7.489   2.435   6.910 -0.0942  0.4144  1.1231
   66MOL    H2617056   7.663   2.441   6.867  0.2910 -1.1700 -1.1803
   66MOL    H2717057   7.596   2.469   7.035 -3.1028 -0.5485  0.7357
   66MOL    C2817058   7.822   2.085   7.200 -0.3685  1.0002  0.2793
   66MOL    C2917059   7.709   2.034   7.299  0.8362 -0.8041  0.2973
   66MOL    O3017060   7.588   2.115   7.305 -0.1451 -0.0339  0.4363
   66MOL    C3117061   7.599   2.254   7.334 -0.6489 -0.2142  0.1045
   66MOL    C3217062   7.545   2.290   7.470  0.0965 -0.2518  0.1332
   66MOL    H3317063   0.025   2.176   7.239 -1.0734  1.0036  1.1421
   66MOL    H3417064   0.050   2.007   7.175 -0.1562  0.2352  3.1179
   66MOL    H3517065   7.687   1.929   7.283 -1.0252 -0.2975 -0.6159
   66MOL    H3617066   7.534   2.307   7.264  1.5056  1.0312 -1.0144
   66MOL    H3717067   7.697   2.301   7.325 -0.8512  0.3918  0.9628
   66MOL    H3817068   7.597   2.246   7.555 -0.6977  0.6228  1.0753
   66MOL    H3917069   7.548   2.395   7.498 -0.3267 -0.4991  1.1310
   66MOL    H4017070   7.440   2.260   7.479  0.3904 -1.6859 -0.9500
   66MOL    C4117071   7.784   2.038   7.440  0.0056  0.2598  0.4329
   66MOL    C4217072   7.708   1.960   7.549 -0.1782 -0.4463 -0.0484
   66MOL    O4317073   7.780   1.982   7.668  0.0503  0.2092 -1.0376
   66MOL    C4417074   7.724   2.058   7.772 -0.0189  0.0978  0.4192
   66MOL    C4517075   7.825   2.089   0.028 -0.2296 -0.2569  0.1210
   66MOL    H4617076   7.817   2.131   7.484 -0.5055  0.7722 -0.2494
   66MOL    H4717077   0.034   1.985   7.426  1.3407  2.8548 -0.7573
   66MOL    H4817078   7.607   2.002   7.551  1.2009  2.9854  1.0630
   66MOL    H4917079   7.637   2.007   7.814 -0.6139  1.0084  0.3288
   66MOL    H5017080   7.685   2.150   7.728  2.4513  1.3758  0.8246
   66MOL    H5117081   7.780   2.136   0.114  1.5165 -0.0940  0.9583
   66MOL    H5217082   0.026   1.996   0.065  0.7543 -0.1514 -0.7577
   66MOL    H5317083   0.056   2.151   7.821 -1.2135  0.0634 -0.9525
   66MOL    C5417084   7.701   1.811   7.529 -0.0628  0.2544 -0.0653
   66MOL    C5517085   7.825   1.729   7.477 -0.1666  1.0599  0.0336
   66MOL    O5617086   0.010   1.735   7.336 -0.0536 -0.0184 -0.3722
   66MOL    C5717087   0.144   1.752   7.302 -1.0922  0.1156 -0.1434
   66MOL    C5817088   0.145   1.706   7.160  0.1677  0.4363 -0.5190
   66MOL    H5917089   7.622   1.777   7.461 -2.3298  2.0110  1.6013
   66MOL    H6017090   7.667   1.765   7.622  1.3960 -1.1122 -0.1774
   66MOL    H6117091   0.069   1.763   7.533  0.4010 -1.7699  0.9533
   66MOL    H6217092   0.225   1.700   7.352 -1.3944  0.2342  0.4868
   66MOL    H6317093   0.171   1.857   7.313 -3.2506  0.5524  1.4254
   66MOL    H6417094   0.227   1.751   7.103  1.6097 -1.3716  0.0866
   66MOL    H6517095   0.169   1.600   7.167 -0.1561  0.4007  0.0658
   66MOL    H6617096   0.054   1.722   7.102 -1.4248  2.1261  2.3217
   66MOL    C6717097   7.830   1.582   7.520 -0.2844  0.5450  0.5903
   66MOL    C6817098   7.719   1.495   7.463  0.1837  0.3042  0.0922
   66MOL    O6917099   7.663   1.407   7.562  0.0530 -0.0642  0.1261
   66MOL    C7017100   7.584   1.466   7.663  0.4802  0.0110  0.5841
   66MOL    C7117101   7.471   1.373   7.692  0.2396 -0.0773 -0.0554
   66MOL    H7217102   7.810   1.587   7.627  0.8960 -0.1768  0.8532
   66MOL    H7317103   0.085   1.538   7.503 -1.5634 -0.9208 -3.7469
   66MOL    H7417104   7.638   1.560   7.430  0.0866 -0.8881 -2.1122
   66MOL    H7517105   7.551   1.568   7.643  2.0311  0.8423  2.1367
   66MOL    H7617106   7.649   1.470   7.750  0.5789  2.6009  0.4255
   66MOL    H7717107   7.428   1.397   7.789 -0.2140  2.6608 -0.8983
   66MOL    H7817108   7.396   1.387   7.614  1.3676  0.7918 -0.9957
   66MOL    H7917109   7.495   1.266   7.692  0.6904 -0.0644 -4.0312
   66MOL    C8017110   7.766   1.414   7.344  0.4286  0.5408 -1.0022
   66MOL    C8117111   7.652   1.331   7.277 -0.5484  0.1031  0.1713
   66MOL    O8217112   7.710   1.247   7.175  0.1284 -0.8317 -0.4043
   66MOL    C8317113   7.786   1.135   7.222  0.4557 -0.0952 -0.2725
   66MOL    C8417114   0.077   1.142   7.149  0.0509 -0.2474 -0.1124
   66MOL    H8517115   0.004   1.353   7.382  0.3679  0.0254 -1.6793
   66MOL    H8617116   7.814   1.476   7.269 -0.6219  0.3370 -1.8672
   66MOL    H8717117   7.609   1.264   7.352 -1.7674  0.6987  0.0218
   66MOL    H8817118   7.726   1.044   7.217  0.1087  0.1417 -0.4354
   66MOL    H8917119   7.809   1.149   7.327  1.1084 -2.9854  0.0174
   66MOL    H9017120   0.129   1.237   7.165  0.2329 -0.7034  2.2461
   66MOL    H9117121   0.140   1.060   7.186  0.5590  0.0060 -0.4164
   66MOL    H9217122   0.061   1.118   7.044  1.4176 -1.8416  0.0069
   66MOL    C9317123   7.545   1.422   7.227  0.5354 -0.4574 -0.0848
   66MOL    C9417124   7.438   1.349   7.139 -0.0790 -0.4966  0.0315
   66MOL    O9517125   7.337   1.450   7.118  0.6163 -0.5714 -0.5359
   66MOL    C9617126   7.281   1.453   6.989 -0.1988  0.4584 -0.2039
   66MOL    C9717127   7.212   1.580   6.969  0.0670  0.4557 -0.1667
   66MOL    H9817128   7.585   1.513   7.183 -1.0843  1.1256  1.6762
   66MOL    H9917129   7.489   1.461   7.311  0.9656 -0.0626  0.0184
   66MOL   H10017130   7.474   1.310   7.044 -0.7619  0.4180 -0.6124
   66MOL   H10117131   7.215   1.367   6.981 -1.6539  1.2250  2.6868
   66MOL   H10217132   7.351   1.455   6.905 -0.1907  0.2542 -0.2028
   66MOL   H10317133   7.146   1.601   7.053  0.5031  1.8793 -0.1773
   66MOL   H10417134   7.271   1.671   6.962  1.1222 -0.3761 -2.4147
   66MOL   H10517135   7.148   1.584   6.881 -1.4347 -0.5477  0.8321
   66MOL   C10617136   7.362   1.232   7.214 -0.1434  0.4251  0.5814
   66MOL   C10717137   7.402   1.091   7.187 -0.3291  0.5782 -0.0895
   66MOL   O10817138   7.345   1.046   7.063 -0.4929  0.3463  0.2558
   66MOL   C10917139   7.428   0.950   6.989 -0.3152  0.4084  0.2087
   66MOL   C11017140   7.337   0.887   6.880  0.4621  0.9881  0.5667
   66MOL   H11117141   7.262   1.231   7.171 -1.1277  1.8343  2.7410
   66MOL   H11217142   7.342   1.247   7.320 -1.5616  0.4514  0.3186
   66MOL   H11317143   7.509   1.072   7.182 -0.1604  1.2674  0.6927
   66MOL   H11417144   7.460   0.881   7.067  2.1110  0.9936 -0.2150
   66MOL   H11517145   7.521   0.989   6.948 -0.3386  0.0582 -0.1737
   66MOL   H11617146   7.385   0.794   6.849 -0.4676  0.7833 -0.3012
   66MOL   H11717147   7.237   0.861   6.916  0.6445  0.2703  0.5714
   66MOL   H11817148   7.317   0.953   6.796 -2.6651 -1.8680 -1.0539
   66MOL   C11917149   7.333   0.995   7.289 -0.6070  0.1539 -0.7501
   66MOL   C12017150   7.382   0.991   7.434  0.3614  0.1600  0.2358
   66MOL   O12117151   7.513   0.932   7.435 -0.4928 -0.3738 -0.4019
   66MOL   C12217152   7.604   0.979   7.531  0.1557  0.1896  0.0297
   66MOL   C12317153   7.724   0.890   7.541 -0.4330 -0.3617 -0.4462
   66MOL   H12417154   7.317   0.896   7.247  1.9950 -0.9836  0.8284
   66MOL   H12517155   7.232   1.036   7.277 -2.5491 -3.7759  1.2659
   66MOL   H12617156   7.393   1.093   7.471 -3.7457  0.9265 -0.4466
   66MOL   H12717157   7.562   0.980   7.631 -1.4748 -0.5290 -0.6351
   66MOL   H12817158   7.631   1.082   7.506 -0.5960  0.7490  1.4682
   66MOL   H12917159   7.807   0.933   7.598 -1.3060 -0.0152  0.5792
   66MOL   H13017160   7.697   0.799   7.595 -0.7728  0.9852  1.6974
   66MOL   H13117161   7.761   0.851   7.446 -3.0571 -1.2511 -1.1334
   66MOL   C13217162   7.288   0.913   7.530  0.7259 -0.2205  0.1965
   66MOL   C13317163   7.145   0.963   7.535 -0.5308 -0.0815 -1.0886
   66MOL   O13417164   7.102   0.951   7.672 -0.0795  0.5137 -0.3479
   66MOL   C13517165   7.044   1.071   7.728 -0.2013 -0.4909  0.0885
   66MOL   C13617166   7.005   1.043   0.027 -0.8644  0.0632 -0.4542
   66MOL   H13717167   7.314   0.930   7.635 -0.7680 -0.1725  0.5684
   66MOL   H13817168   7.294   0.805   7.515  0.7422 -0.2126  0.1467
   66MOL   H13917169   7.157   1.065   7.499  2.5499 -0.6352 -1.8196
   66MOL   H14017170   6.952   1.098   7.674  1.2805  1.3926 -1.5819
   66MOL   H14117171   7.116   1.153   7.730 -1.8114  0.9704 -0.4757
   66MOL   H14217172   6.941   0.955   0.021 -0.8842  0.0892 -0.6279
   66MOL   H14317173   7.095   1.027   0.087 -0.8740 -0.2129 -0.5145
   66MOL   H14417174   6.952   1.125   0.076  0.7178  0.7743  0.1209
   66MOL   C14517175   7.043   0.883   7.453  0.3059 -0.0993  0.5744
   66MOL   C14617176   6.932   0.961   7.376 -0.0170  0.0144 -0.6273
   66MOL   O14717177   6.847   1.033   7.463 -0.2023  0.8167 -0.0295
   66MOL   C14817178   6.828   1.168   7.419  0.1352 -0.5506  0.1023
   66MOL   C14917179   6.726   1.231   7.507 -0.3149  0.6852 -0.0996
   66MOL   H15017180   6.992   0.816   7.522 -1.3126 -1.4892 -1.8704
   66MOL   H15117181   7.100   0.819   7.385 -2.0633 -0.2367 -1.3663
   66MOL   H15217182   6.982   1.024   7.303 -1.7034  0.3412 -1.5299
   66MOL   H15317183   6.799   1.178   7.314  0.3717 -0.8308  0.0075
   66MOL   H15417184   6.922   1.219   7.438 -1.3043  1.8846  0.8217
   66MOL   H15517185   6.686   1.328   7.479 -1.5369 -0.0765 -1.0397
   66MOL   H15617186   6.640   1.164   7.515  0.5766 -0.4435  0.1139
   66MOL   H15717187   6.766   1.242   7.608 -1.8429 -0.3222  0.6443
   66MOL   C15817188   6.856   0.846   7.298 -0.2967 -0.1219 -0.5177
   66MOL   C15917189   6.861   0.845   7.149  0.4703  0.1476  0.4574
   66MOL   O16017190   6.813   0.972   7.107  0.4103  0.5772 -0.0911
   66MOL   C16117191   6.855   1.009   6.979 -0.6203  0.3585 -0.0501
   66MOL   C16217192   6.860   1.162   6.972  0.6645  0.5659 -0.2753
   66MOL   H16317193   6.753   0.871   7.323  0.0238  0.7129  0.0117
   66MOL   H16417194   6.887   0.752   7.342 -0.7206  0.8148  1.8544
   66MOL   H16517195   6.969   0.835   7.132  0.4470 -2.3492  1.5278
   66MOL   H16617196   6.801   0.955   6.900 -1.4049  0.1707  0.6136
   66MOL   H16717197   6.955   0.973   6.957 -1.0352 -0.1989 -1.1031
   66MOL   H16817198   6.764   1.198   7.010  0.2168 -1.9193  1.0146
   66MOL   H16917199   6.931   1.197   7.047  0.5140 -1.9352  1.0690
   66MOL   H17017200   6.897   1.203   6.878 -0.3497 -0.6227 -1.2090
   66MOL   C17117201   6.785   0.724   7.085 -0.0546  0.2032  0.4477
   66MOL   C17217202   6.849   0.586   7.115 -0.3287  0.5636 -0.2323
   66MOL   O17317203   6.992   0.589   7.104 -0.1053  0.2392 -0.6845
   66MOL   C17417204   7.066   0.555   7.226 -0.2503 -0.0442  0.0648
   66MOL   C17517205   7.215   0.557   7.198  0.9526 -0.8310 -0.6006
   66MOL   H17617206   6.791   0.744   6.978 -1.0519  1.2174  0.5694
   66MOL   H17717207   6.680   0.722   7.115 -0.8177 -0.2598 -2.1480
   66MOL   H17817208   6.819   0.553   7.215  2.7559  1.4386  1.0158
   66MOL   H17917209   7.048   0.451   7.255  0.7951 -0.3827 -0.4737
   66MOL   H18017210   7.045   0.607   7.319 -0.0665 -0.4299  0.3215
   66MOL   H18117211   7.255   0.498   7.115  2.2290 -1.7304  0.6207
   66MOL   H18217212   7.233   0.662   7.176 -1.5433 -0.3289 -0.3491
   66MOL   H18317213   7.271   0.529   7.288  2.0884  0.5143 -0.8754
   66MOL   C18417214   6.787   0.474   7.022  0.1667 -0.2710  0.0638
   66MOL   C18517215   6.785   0.334   7.085  0.6157 -0.0330 -0.2530
   66MOL   O18617216   6.784   0.256   6.968  0.5995 -0.0525 -0.0154
   66MOL   C18717217   6.855   0.136   6.981 -0.4702  0.6585  0.0852
   66MOL   C18817218   6.829   0.051   6.854 -0.1756  0.2527 -0.3977
   66MOL   H18917219   6.842   0.489   6.929  0.8277 -2.3008  0.1055
   66MOL   H19017220   6.688   0.500   6.984 -0.0716 -1.4665 -0.1465
   66MOL   H19117221   6.873   0.325   7.148  0.5542  1.2497  0.0215
   66MOL   H19217222   6.839   0.083   7.075  0.1286  0.0807 -0.1293
   66MOL   H19317223   6.958   0.171   6.982  0.2080 -1.2642 -0.0396
   66MOL   H19417224   6.845   0.089   6.753 -0.1427  1.2985  0.0027
   66MOL   H19517225   6.910   7.823   6.840 -0.1954  0.1109  0.2039
   66MOL   H19617226   6.737   7.836   6.858 -0.2295  0.3122 -0.7305
   66MOL   C19717227   6.661   0.303   7.180  0.1224 -0.0066 -0.1928
   66MOL   C19817228   6.695   0.295   7.338 -0.1544  0.2175 -0.2473
   66MOL   O19917229   6.757   0.167   7.365 -0.2535 -0.0751  0.3190
   66MOL   C20017230   6.877   0.179   7.447 -0.0320 -0.3492 -0.3211
   66MOL   C20117231   6.966   0.055   7.414  0.4059 -0.2430 -0.1765
   66MOL   H20217232   6.621   0.203   7.166 -1.6809  0.5972  0.5358
   66MOL   H20317233   6.574   0.366   7.163 -0.9900 -1.7950 -1.4009
   66MOL   H20417234   6.756   0.378   7.375  1.7698 -2.2819  2.3661
   66MOL   H20517235   6.844   0.198   7.549  0.5801 -0.6458 -0.0714
   66MOL   H20617236   6.940   0.262   7.415 -0.8650 -0.1264 -1.4425
   66MOL   H20717237   6.974   0.040   7.306  2.0980  0.7026 -0.2039
   66MOL   H20817238   7.064   0.078   7.455  0.0180 -0.1848  0.7232
   66MOL   H20917239   6.913   7.811   7.453 -1.0996  0.6297 -0.2204
   66MOL   C21017240   6.566   0.304   7.435  0.0203 -0.0219  1.2055
   66MOL   C21117241   6.507   0.447   7.454 -0.2872 -0.1071 -0.2323
   66MOL   O21217242   6.605   0.518   7.523 -0.4752  0.4445  0.4207
   66MOL   C21317243   6.610   0.661   7.529  0.4214  0.4943 -0.4672
   66MOL   C21417244   6.734   0.690   7.610 -0.4983 -0.0824  0.4753
   66MOL   H21517245   6.585   0.264   7.534 -2.7079 -1.3550  1.2352
   66MOL   H21617246   6.490   0.245   7.384 -1.1090  0.8280  1.8660
   66MOL   H21717247   6.493   0.481   7.351  0.8820 -2.9727 -1.4114
   66MOL   H21817248   6.522   0.698   7.582  1.0168 -0.9472  1.5922
   66MOL   H21917249   6.615   0.697   7.426  0.8477  0.7058 -0.3755
   66MOL   H22017250   6.807   0.670   7.532  0.4226  0.6621  1.1429
   66MOL   H22117251   6.737   0.798   7.624  1.7962  0.2256 -2.1109
   66MOL   H22217252   6.755   0.638   7.704  1.4083 -1.8587 -0.8950
   66MOL   C22317253   6.372   0.443   7.529  0.1545 -0.0439  0.4695
   66MOL   C22417254   6.242   0.414   7.433 -0.3002  0.1581 -0.4022
   66MOL   O22517255   6.247   0.526   7.343 -0.1249 -0.3455 -0.0729
   66MOL   C22617256   6.215   0.483   7.213  0.6303 -0.1653  0.0858
   66MOL   C22717257   6.244   0.592   7.108  0.6762 -0.4832  0.2206
   66MOL   H22817258   6.354   0.537   7.581  3.0341  1.5534 -1.2461
   66MOL   H22917259   6.375   0.372   7.611 -0.3845 -0.1560  0.3956
   66MOL   H23017260   6.257   0.317   7.385  1.3403  1.2280 -2.1242
   66MOL   H23117261   6.107   0.465   7.209  0.6700 -0.4556  0.2547
   66MOL   H23217262   6.266   0.390   7.187  0.2405 -0.2860 -0.2547
   66MOL   H23317263   6.198   0.689   7.127  1.2751 -0.5812  2.2575
   66MOL   H23417264   6.352   0.598   7.116  0.7406  0.4959 -1.1811
   66MOL   H23517265   6.226   0.564   7.004 -0.2225 -4.3747  1.3350
   66MOL   C23617266   6.104   0.412   7.506 -0.5471 -0.1655 -0.5807
   66MOL   C23717267   6.098   0.323   7.629  0.3832 -0.3118  0.0485
   66MOL   O23817268   6.040   0.197   7.592 -0.1215 -0.3423 -0.1008
   66MOL   C23917269   6.094   0.085   7.671  0.7882 -0.6479  0.4276
   66MOL   C24017270   6.040   0.080   7.816  0.1906 -0.0344 -0.2909
   66MOL   H24117271   6.019   0.390   7.442  0.0459 -1.3853 -0.9876
   66MOL   H24217272   6.085   0.512   7.544  0.9142 -0.5025  1.0781
   66MOL   H24317273   6.191   0.300   7.681 -0.8882 -0.3689  2.3442
   66MOL   H24417274   6.202   0.076   7.671  0.8340 -0.5270 -2.1636
   66MOL   H24517275   6.063   7.835   7.626 -0.1155 -0.7211  1.1920
   66MOL   H24617276   6.065   0.161   0.042 -1.0628  1.9178 -2.0863
   66MOL   H24717277   5.932   0.069   7.814 -0.1887  2.2668  2.8608
   66MOL   H24817278   6.074   7.835   0.027  0.3776  0.6525  0.7387
   66MOL   C24917279   5.998   0.386   7.728 -0.0540 -0.0425 -0.1058
   66MOL   C25017280   6.078   0.489   7.818 -0.2321  0.2594  0.1019
   66MOL   O25117281   6.161   0.418   0.080  0.0058 -0.7176 -0.0304
   66MOL   C25217282   6.210   0.512   0.168  0.7363 -0.7543 -0.1877
   66MOL   C25317283   6.295   0.445   0.284 -0.8044  0.0899 -0.1824
   66MOL   H25417284   5.936   0.313   7.781  2.5609 -1.4633  1.1039
   66MOL   H25517285   5.929   0.449   7.672 -0.9361  0.1224  1.1694
   66MOL   H25617286   6.143   0.551   7.757  1.4412 -1.6851 -0.1446
   66MOL   H25717287   6.127   0.563   0.217  1.1963 -1.0237  0.8828
   66MOL   H25817288   6.261   0.592   0.113  0.2308  0.1976  0.6992
   66MOL   H25917289   6.386   0.423   0.229 -1.1222 -0.3909 -0.5149
   66MOL   H26017290   6.323   0.513   0.365  2.1544  0.4732 -1.4419
   66MOL   H26117291   6.258   0.355   0.333 -0.3377 -0.7317 -1.3219
   66MOL   H26217292   6.003   0.554   0.020  1.9416  2.7599  0.2151
   67MOL     C117293   6.520   3.658   6.384  1.2144 -0.2649  1.2200
   67MOL     C217294   6.472   3.559   6.284 -0.0710 -0.2121 -0.2022
   67MOL     O317295   6.333   3.578   6.269  0.1570 -0.6931 -0.9634
   67MOL     C417296   6.274   3.563   6.139 -0.3050 -0.9430 -0.2391
   67MOL     C517297   6.309   3.683   6.048  0.4297  0.0067 -0.3152
   67MOL     H617298   6.628   3.658   6.372  0.9608 -0.7249 -1.4049
   67MOL     H717299   6.491   3.758   6.351  2.4354 -0.7354 -1.3826
   67MOL     H817300   6.533   3.580   6.197 -0.6752 -1.7742 -1.0138
   67MOL     H917301   6.167   3.543   6.136 -0.7211  0.9275  1.1745
   67MOL    H1017302   6.313   3.483   6.075  2.2179  0.3405 -0.3680
   67MOL    H1117303   6.244   3.683   5.960  0.4805 -2.5023 -0.3716
   67MOL    H1217304   6.301   3.773   6.110  0.4785 -2.0283  2.7350
   67MOL    H1317305   6.416   3.679   6.027  0.5513 -1.5492  0.5394
   67MOL    H1417306   6.485   3.632   6.484 -0.1424  1.6843  1.2758
   67MOL    C1517307   6.487   3.413   6.325  0.0388  0.2881  0.5014
   67MOL    C1617308   6.632   3.360   6.353 -0.9538  0.3753  0.2712
   67MOL    O1717309   6.694   3.415   6.465  0.3151 -0.3130  0.0734
   67MOL    C1817310   6.631   3.387   6.594 -0.4511  0.0954  0.6285
   67MOL    C1917311   6.739   3.382   6.711 -0.0911  0.1289 -0.0584
   67MOL    H2017312   6.449   3.358   6.240  2.1659 -2.0874  1.0280
   67MOL    H2117313   6.421   3.398   6.410  0.3881  1.5837  1.0109
   67MOL    H2217314   6.628   3.251   6.355  0.5872  0.3058  0.8214
   67MOL    H2317315   6.588   3.288   6.580 -1.0685  0.6112 -1.2699
   67MOL    H2417316   6.561   3.467   6.615  0.7657  1.1832  0.6224
   67MOL    H2517317   6.682   3.362   6.802 -0.9362  1.6543 -0.2321
   67MOL    H2617318   6.784   3.481   6.715  0.2438 -0.0860  2.3379
   67MOL    H2717319   6.822   3.314   6.694  0.4052  0.8825 -0.6621
   67MOL    C2817320   6.730   3.377   6.241  0.0717  0.5491 -0.3845
   67MOL    C2917321   6.717   3.277   6.119 -0.3071 -0.8815  0.0450
   67MOL    O3017322   6.743   3.142   6.152 -0.3912 -0.2213 -0.2343
   67MOL    C3117323   6.874   3.122   6.208  0.4571 -0.2660  0.5603
   67MOL    C3217324   6.929   2.990   6.166 -0.2847  0.4517  0.6049
   67MOL    H3317325   6.824   3.391   6.294 -0.9159  1.8176  1.0821
   67MOL    H3417326   6.720   3.478   6.200  0.0008  0.6504 -0.1150
   67MOL    H3517327   6.610   3.279   6.102 -0.4315  1.0313  0.9306
   67MOL    H3617328   6.864   3.126   6.316  0.7249  0.2108  0.5679
   67MOL    H3717329   6.940   3.206   6.187  2.4492 -0.8966  4.0102
   67MOL    H3817330   6.959   2.993   6.062  0.6085  2.3960  0.8826
   67MOL    H3917331   7.028   2.995   6.212  0.2136  1.5150 -0.5620
   67MOL    H4017332   6.877   2.899   6.195  0.8831 -0.2802  0.4163
   67MOL    C4117333   6.798   3.331   5.999  0.2843  0.4298 -0.2930
   67MOL    C4217334   6.734   3.286   5.864 -0.2313 -0.4527 -0.2253
   67MOL    O4317335   6.612   3.355   5.830 -0.1074  0.0307 -0.2094
   67MOL    C4417336   6.627   3.496   5.825  0.2749  0.4461  0.2423
   67MOL    C4517337   6.496   3.527   5.761  0.5362 -0.4146  0.6265
   67MOL    H4617338   6.900   3.292   6.002 -0.3984 -1.5794 -1.5372
   67MOL    H4717339   6.805   3.439   5.999 -1.3636  0.5985  3.8672
   67MOL    H4817340   6.791   3.320   5.777  0.7973  4.7109  2.2645
   67MOL    H4917341   6.714   3.531   5.769  0.5955 -0.5067  0.1307
   67MOL    H5017342   6.619   3.548   5.920  0.5412 -0.9615  1.0406
   67MOL    H5117343   6.490   3.636   5.752 -2.3964 -0.7221 -1.6378
   67MOL    H5217344   6.495   3.481   5.663  0.5921 -1.2928  1.0374
   67MOL    H5317345   6.408   3.497   5.817 -0.2904  0.6322 -0.0780
   67MOL    C5417346   6.713   3.131   5.853  0.4423 -0.0410 -0.9650
   67MOL    C5517347   6.690   3.066   5.712 -0.1485 -0.4259 -0.5472
   67MOL    O5617348   6.804   3.082   5.635  0.5534 -0.4142  0.8160
   67MOL    C5717349   6.905   2.986   5.649 -0.2846 -0.2790 -0.0075
   67MOL    C5817350   7.032   3.028   5.568 -0.6743  0.0840 -0.0459
   67MOL    H5917351   6.635   3.120   5.929  0.6008  0.8510 -0.6641
   67MOL    H6017352   6.788   3.069   5.902 -1.1421  0.4841  2.2607
   67MOL    H6117353   6.677   2.959   5.727  2.4148 -0.3807  2.7114
   67MOL    H6217354   6.867   2.888   5.618  1.0309 -0.1006 -2.3267
   67MOL    H6317355   6.932   2.983   5.754  0.3846 -1.3329 -0.1969
   67MOL    H6417356   7.003   3.037   5.463 -2.3903 -0.9045  0.3237
   67MOL    H6517357   7.053   3.131   5.596 -0.6696 -0.1892  0.9520
   67MOL    H6617358   7.121   2.967   5.584  0.0658  0.8068 -1.3162
   67MOL    C6717359   6.572   3.126   5.636  0.5216 -0.1112  0.5348
   67MOL    C6817360   6.430   3.112   5.701 -0.0529 -0.2847 -0.3678
   67MOL    O6917361   6.408   2.978   5.714  0.6131  0.5272 -0.4307
   67MOL    C7017362   6.321   2.948   5.821  0.0783  0.1250 -0.2319
   67MOL    C7117363   6.266   2.800   5.806  0.2864  0.4113 -0.0118
   67MOL    H7217364   6.566   3.060   5.549 -0.9993 -1.0198  1.3045
   67MOL    H7317365   6.601   3.226   5.603  1.2206 -0.6095 -0.3670
   67MOL    H7417366   6.445   3.162   5.796  0.1789  2.2319 -1.6838
   67MOL    H7517367   6.230   3.008   5.818  0.5932  0.9639  0.7103
   67MOL    H7617368   6.369   2.972   5.915 -0.2546  0.6349 -0.1894
   67MOL    H7717369   6.230   2.786   5.704 -1.3767  2.5738  0.2372
   67MOL    H7817370   6.346   2.728   5.824  1.3683  1.0342 -2.2216
   67MOL    H7917371   6.193   2.777   5.884  0.3818  2.1656  0.6244
   67MOL    C8017372   6.320   3.188   5.618 -0.3677  0.1041 -0.9597
   67MOL    C8117373   6.298   3.146   5.470  0.1271  0.5025  0.0106
   67MOL    O8217374   6.196   3.234   5.417  0.4866 -0.7712 -0.3256
   67MOL    C8317375   6.228   3.366   5.382 -0.2624 -0.3578 -0.7997
   67MOL    C8417376   6.094   3.417   5.332  1.1095  0.4883  0.8038
   67MOL    H8517377   6.334   3.296   5.624  1.8167 -0.2238  0.2561
   67MOL    H8617378   6.230   3.176   5.679  0.6243 -0.2349  0.4775
   67MOL    H8717379   6.392   3.154   5.415  0.4806  0.5847  0.6147
   67MOL    H8817380   6.302   3.357   5.302 -1.4928 -0.9406 -1.8967
   67MOL    H8917381   6.272   3.416   5.468  0.4200 -1.0154 -0.7542
   67MOL    H9017382   6.093   3.523   5.310 -1.0433  0.1200 -1.1290
   67MOL    H9117383   6.078   3.352   5.246 -1.3722 -0.1875  1.7124
   67MOL    H9217384   6.026   3.395   5.414  1.6230  0.2466  1.1656
   67MOL    C9317385   6.230   3.004   5.454  0.7380 -1.1360  0.4635
   67MOL    C9417386   6.229   2.945   5.306  0.7884 -0.5942 -0.1048
   67MOL    O9517387   6.154   2.825   5.297 -0.2742  0.2727  0.1567
   67MOL    C9617388   6.007   2.819   5.298  0.1323 -0.4869  0.9412
   67MOL    C9717389   5.952   2.678   5.307 -0.2448  0.0603  0.1999
   67MOL    H9817390   6.126   3.021   5.481  0.6561 -0.0328 -0.5020
   67MOL    H9917391   6.285   2.940   5.523  1.4109 -1.3335 -0.2539
   67MOL   H10017392   6.174   3.017   5.245  1.0226 -1.7319 -1.6947
   67MOL   H10117393   5.969   2.863   5.206 -2.6927 -1.1469  1.7508
   67MOL   H10217394   5.971   2.863   5.390 -1.7893 -0.5465  0.2353
   67MOL   H10317395   5.944   2.627   5.211 -1.7775  1.5800 -0.4965
   67MOL   H10417396   6.022   2.619   5.367 -0.5421 -0.6791 -0.1648
   67MOL   H10517397   5.856   2.669   5.358 -0.7768 -0.4974 -0.8766
   67MOL   C10617398   6.366   2.927   5.239 -0.4385  0.7254  1.0828
   67MOL   C10717399   6.467   2.832   5.300 -0.4479  0.0861  0.2517
   67MOL   O10817400   6.594   2.858   5.243  0.4800  0.3172  0.6165
   67MOL   C10917401   6.703   2.802   5.309  0.1034  0.1719 -0.0205
   67MOL   C11017402   6.800   2.738   5.206 -0.0431 -0.1384 -0.1049
   67MOL   H11117403   6.409   3.025   5.218  1.0469 -0.1646 -0.1325
   67MOL   H11217404   6.342   2.894   5.138 -1.3288  0.2178  1.4495
   67MOL   H11317405   6.475   2.854   5.406  1.7657  2.4950 -0.3619
   67MOL   H11417406   6.679   2.721   5.377  1.0665  1.5686  2.0344
   67MOL   H11517407   6.751   2.886   5.359  1.1081 -0.2075 -0.3300
   67MOL   H11617408   6.857   2.817   5.159  0.9673 -0.7709  0.0433
   67MOL   H11717409   6.868   2.666   5.252 -0.2129 -1.7419 -2.2933
   67MOL   H11817410   6.739   2.683   5.134  0.4193  0.2547 -0.8044
   67MOL   C11917411   6.420   2.681   5.306 -1.0414  0.1163 -1.1410
   67MOL   C12017412   6.356   2.614   5.177  0.1801  0.3347  0.0861
   67MOL   O12117413   6.333   2.479   5.204 -0.4067 -0.2497 -0.2420
   67MOL   C12217414   6.214   2.437   5.269 -0.0933 -0.2579  0.4070
   67MOL   C12317415   6.224   2.293   5.309  0.0547  0.8204 -0.5884
   67MOL   H12417416   6.341   2.675   5.381  0.1388 -2.6945 -0.0949
   67MOL   H12517417   6.497   2.614   5.341 -1.0883  0.1146 -1.0405
   67MOL   H12617418   6.265   2.668   5.153  1.4933  1.9357 -1.4264
   67MOL   H12717419   6.129   2.459   5.206  1.0301  0.5637 -0.8500
   67MOL   H12817420   6.193   2.497   5.358  2.1138  0.4208  0.4993
   67MOL   H12917421   6.286   2.284   5.398  0.2370  0.2309 -0.7778
   67MOL   H13017422   6.125   2.277   5.354  1.0659 -1.4755  0.9016
   67MOL   H13117423   6.226   2.223   5.226 -0.7311  0.1436 -0.0528
   67MOL   C13217424   6.449   2.611   5.047 -0.0526 -0.1975 -0.2636
   67MOL   C13317425   6.371   2.561   4.930  0.1349  0.8601  0.9418
   67MOL   O13417426   6.466   2.539   4.821  0.4542 -0.8613 -0.3435
   67MOL   C13517427   6.512   2.404   4.821  0.2893  0.1690  0.1913
   67MOL   C13617428   6.640   2.387   4.735 -0.8727 -0.0338  0.3396
   67MOL   H13717429   6.531   2.542   5.067 -1.5267 -2.6360 -2.2881
   67MOL   H13817430   6.488   2.711   5.031  2.5410 -0.7244  2.1980
   67MOL   H13917431   6.319   2.471   4.963  1.2849  0.7005  2.3693
   67MOL   H14017432   6.425   2.344   4.792  1.0672  0.3114 -2.6017
   67MOL   H14117433   6.538   2.389   4.926  0.6786 -0.5912 -0.0067
   67MOL   H14217434   6.672   2.283   4.726 -0.8262 -0.1397  1.6163
   67MOL   H14317435   6.619   2.420   4.633  0.4626 -0.8300 -0.2075
   67MOL   H14417436   6.720   2.452   4.769 -0.1981 -0.6778  0.0084
   67MOL   C14517437   6.273   2.659   4.858 -0.4168  0.0341  0.1873
   67MOL   C14617438   6.125   2.638   4.907 -0.1079  0.0543  0.0922
   67MOL   O14717439   6.087   2.517   4.854  0.2231  0.0811 -0.2123
   67MOL   C14817440   5.986   2.449   4.918 -0.1585 -0.5716  0.2817
   67MOL   C14917441   5.996   2.301   4.865 -0.3640 -0.8232 -0.5425
   67MOL   H15017442   6.267   2.647   4.750  0.1474 -0.4849  0.2151
   67MOL   H15117443   6.302   2.762   4.876  0.2874 -0.3564  1.3681
   67MOL   H15217444   6.121   2.630   5.015 -2.4231  1.0644  0.0962
   67MOL   H15317445   5.887   2.482   4.887  0.5528  1.0830 -0.2446
   67MOL   H15417446   5.993   2.459   5.027 -0.3018  1.8046  0.0982
   67MOL   H15517447   5.912   2.245   4.908 -0.1109  1.2076  2.7952
   67MOL   H15617448   5.988   2.299   4.756  0.2520 -1.6142 -0.5746
   67MOL   H15717449   6.091   2.259   4.899 -0.1342  1.3294  1.6081
   67MOL   C15817450   6.014   2.737   4.862  0.6381 -0.7192  0.8847
   67MOL   C15917451   6.013   2.770   4.709 -0.9612 -0.2767 -0.6667
   67MOL   O16017452   5.902   2.863   4.718  0.1811 -0.3391  0.3864
   67MOL   C16117453   5.900   2.984   4.646 -0.2578  0.0744 -0.1670
   67MOL   C16217454   5.755   3.028   4.648 -0.3657  0.4578  0.1502
   67MOL   H16317455   6.021   2.826   4.923  0.1669  0.4119 -0.6793
   67MOL   H16417456   5.916   2.698   4.890 -0.3184 -0.1167 -1.4769
   67MOL   H16517457   6.107   2.818   4.680 -0.5379 -0.5249  0.2829
   67MOL   H16617458   5.925   2.967   4.541 -2.4780  0.3389 -0.7625
   67MOL   H16717459   5.970   3.050   4.697 -0.7887 -0.3000  1.0706
   67MOL   H16817460   5.689   2.974   4.581 -1.9189  0.7238  1.4403
   67MOL   H16917461   5.718   3.009   4.749  3.1650 -2.0077  1.1101
   67MOL   H17017462   5.765   3.130   4.613  1.7127  0.0418 -0.5349
   67MOL   C17117463   5.988   2.650   4.611  0.2511  0.4421  0.4654
   67MOL   C17217464   6.016   2.691   4.470  0.4106  0.6581  0.3155
   67MOL   O17317465   5.895   2.738   4.420 -0.1333  0.0712 -0.2622
   67MOL   C17417466   5.904   2.800   4.291 -0.3556  0.6481  0.1417
   67MOL   C17517467   5.773   2.880   4.268  0.0560 -0.4147  0.2007
   67MOL   H17617468   5.886   2.619   4.631  1.0967 -1.6452  1.7481
   67MOL   H17717469   6.068   2.580   4.636  0.3313  0.0274 -0.9259
   67MOL   H17817470   6.088   2.773   4.468  0.7420  0.3545 -1.1025
   67MOL   H17917471   5.919   2.720   4.218 -0.0554  0.6516  0.2014
   67MOL   H18017472   5.990   2.866   4.294 -0.1037  0.3242  0.1079
   67MOL   H18117473   5.686   2.817   4.285 -0.4934 -0.0193 -1.0502
   67MOL   H18217474   5.769   2.974   4.324 -2.8680 -0.4571  0.1012
   67MOL   H18317475   5.776   2.903   4.161  0.8728 -3.1176 -0.3939
   67MOL   C18417476   6.064   2.564   4.393  0.0801 -0.6807 -0.2334
   67MOL   C18517477   6.213   2.513   4.424  0.0907 -0.5068 -0.0590
   67MOL   O18617478   6.303   2.621   4.408  0.5660  0.1481  0.1035
   67MOL   C18717479   6.431   2.611   4.470 -0.5950 -0.4057 -0.1126
   67MOL   C18817480   6.511   2.736   4.424 -0.6627 -0.3061 -0.9151
   67MOL   H18917481   6.055   2.581   4.286  0.4995 -1.5928 -0.4135
   67MOL   H19017482   5.996   2.481   4.409  0.6149 -1.1130 -0.2035
   67MOL   H19117483   6.225   2.466   4.522  0.2333 -1.3045 -0.4549
   67MOL   H19217484   6.481   2.517   4.447  0.1570 -0.6240  2.2792
   67MOL   H19317485   6.427   2.624   4.578  0.6248 -1.5220  0.0832
   67MOL   H19417486   6.475   2.819   4.485  1.2262 -0.5131  0.5282
   67MOL   H19517487   6.615   2.735   4.455 -1.3650 -0.4072  1.5535
   67MOL   H19617488   6.512   2.760   4.318  1.2157 -0.6833 -0.9948
   67MOL   C19717489   6.244   2.409   4.321 -0.8030 -0.2709  1.4718
   67MOL   C19817490   6.240   2.261   4.378 -0.3643  0.1747 -0.7148
   67MOL   O19917491   6.113   2.223   4.423  0.0394  0.1262  0.0754
   67MOL   C20017492   6.009   2.200   4.330 -0.5476 -0.5547 -0.3547
   67MOL   C20117493   5.886   2.151   4.412 -0.3352  0.1898  0.2648
   67MOL   H20217494   6.346   2.430   4.288 -1.9646  2.5823 -0.5173
   67MOL   H20317495   6.177   2.423   4.236 -3.2075  0.2792  3.4104
   67MOL   H20417496   6.277   2.205   4.292  0.0738 -1.1404  0.3246
   67MOL   H20517497   6.035   2.127   4.254 -1.9709  0.2198 -1.6126
   67MOL   H20617498   5.990   2.295   4.279  0.0509 -0.8361 -1.1266
   67MOL   H20717499   5.882   2.045   4.434 -0.2495  0.4098  1.3711
   67MOL   H20817500   5.863   2.200   4.507  0.5374  0.4367  0.3580
   67MOL   H20917501   5.794   2.172   4.358  0.0693  1.9785  0.2173
   67MOL   C21017502   6.338   2.224   4.492 -0.4252 -0.6066  0.8207
   67MOL   C21117503   6.437   2.121   4.453  0.6835  0.2334 -0.1263
   67MOL   O21217504   6.501   2.157   4.334  0.6122 -0.3613  0.2597
   67MOL   C21317505   6.625   2.216   4.358 -0.0263 -0.6701 -0.9715
   67MOL   C21417506   6.686   2.272   4.232 -0.8859 -0.8127  0.4679
   67MOL   H21517507   6.284   2.190   4.581 -0.5261 -1.4540  0.4348
   67MOL   H21617508   6.400   2.309   4.522  1.0130 -0.7953 -1.5404
   67MOL   H21717509   6.512   2.110   4.532  1.2619  2.3280 -0.3413
   67MOL   H21817510   6.695   2.145   4.402 -0.7257 -1.2030 -0.7162
   67MOL   H21917511   6.614   2.297   4.430 -1.0070  0.8519 -2.7786
   67MOL   H22017512   6.693   2.202   4.149  0.4783  0.1451 -0.2566
   67MOL   H22117513   6.635   2.362   4.198 -1.1270 -1.3448 -0.6114
   67MOL   H22217514   6.784   2.309   4.263 -0.2965 -1.7778 -0.2006
   67MOL   C22317515   6.353   1.993   4.414 -0.0558  0.4783 -0.0852
   67MOL   C22417516   6.430   1.859   4.415  0.2606  0.7713 -0.0330
   67MOL   O22517517   6.355   1.752   4.350 -0.5737 -0.0496  0.4053
   67MOL   C22617518   6.368   1.745   4.210 -0.1122 -0.4083 -0.5701
   67MOL   C22717519   6.307   1.617   4.159  0.0451  0.7681 -0.2242
   67MOL   H22817520   6.293   1.996   4.324 -1.5586  0.9728  0.9150
   67MOL   H22917521   6.286   1.987   4.499 -0.7104  1.0904 -0.5582
   67MOL   H23017522   6.526   1.864   4.366  1.3622 -2.2014  1.7004
   67MOL   H23117523   6.473   1.757   4.182 -0.0090  3.0013  0.9189
   67MOL   H23217524   6.319   1.836   4.175  1.5501  1.6007  2.0558
   67MOL   H23317525   6.295   1.620   4.051  0.1859 -1.0864 -0.3141
   67MOL   H23417526   6.362   1.529   4.192 -0.0903 -0.5238 -3.3319
   67MOL   H23517527   6.209   1.600   4.204 -0.4510  2.2832 -0.6961
   67MOL   C23617528   6.460   1.822   4.563  0.1302 -0.5271 -0.7783
   67MOL   C23717529   6.545   1.695   4.574  0.2536  0.9007  0.5319
   67MOL   O23817530   6.511   1.603   4.679  0.3441 -0.2031 -0.0151
   67MOL   C23917531   6.413   1.501   4.644 -0.4107 -0.0726  0.5605
   67MOL   C24017532   6.407   1.384   4.733 -0.1978  0.1003  0.3342
   67MOL   H24117533   6.365   1.818   4.615 -0.2518 -1.0521 -1.5074
   67MOL   H24217534   6.510   1.902   4.617  0.8082 -0.7967 -0.9924
   67MOL   H24317535   6.533   1.646   4.477 -0.7395  4.0832 -0.9928
   67MOL   H24417536   6.420   1.467   4.540 -0.3868 -2.8972  1.4406
   67MOL   H24517537   6.314   1.547   4.644 -0.9682 -1.1748 -1.4767
   67MOL   H24617538   6.507   1.340   4.734 -0.7338 -1.1714 -0.9217
   67MOL   H24717539   6.379   1.405   4.837  1.1157 -1.7468  1.0910
   67MOL   H24817540   6.337   1.313   4.690 -1.0799  1.6076 -0.7733
   67MOL   C24917541   6.690   1.723   4.582 -0.3199 -0.2220 -0.6355
   67MOL   C25017542   6.795   1.608   4.575  0.0351 -0.6037  1.0740
   67MOL   O25117543   6.795   1.550   4.446 -0.6269 -0.7654 -0.1868
   67MOL   C25217544   6.870   1.427   4.442  0.3861 -0.1446 -0.0521
   67MOL   C25317545   7.017   1.453   4.404  0.3344 -0.5436  0.9634
   67MOL   H25417546   6.707   1.785   4.669  0.8460 -0.7588 -0.4772
   67MOL   H25517547   6.715   1.784   4.496 -0.7691 -0.5538 -1.0051
   67MOL   H25617548   6.892   1.645   4.608 -0.2401  0.8249  0.3349
   67MOL   H25717549   6.831   1.354   4.370 -0.4081  1.4073 -1.2230
   67MOL   H25817550   6.872   1.365   4.532  1.9051 -0.1278 -0.0605
   67MOL   H25917551   7.058   1.362   4.361 -2.6592 -0.5157 -2.1209
   67MOL   H26017552   7.020   1.528   4.325 -1.6112  1.3154  2.5904
   67MOL   H26117553   7.094   1.477   4.477  1.1000 -1.5870  0.5017
   67MOL   H26217554   6.766   1.535   4.650  0.1655 -2.2476 -0.4227
   68MOL     C117555   0.895   1.274   2.687  0.0140 -0.3053  0.3533
   68MOL     C217556   0.844   1.420   2.664 -0.5395  0.3108 -0.5319
   68MOL     O317557   0.794   1.487   2.783  0.1672  0.5754 -0.1084
   68MOL     C417558   0.892   1.506   2.878  0.5618 -0.0029  0.1192
   68MOL     C517559   0.829   1.591   2.991  0.1703  0.0785  0.3595
   68MOL     H617560   0.943   1.236   2.596  0.6323  0.8191  0.2084
   68MOL     H717561   0.967   1.264   2.768  0.4684  0.8814  0.1087
   68MOL     H817562   0.923   1.490   2.634 -0.9375  0.8068 -0.4367
   68MOL     H917563   0.966   1.574   2.837  0.3346 -0.1300 -0.5145
   68MOL    H1017564   0.947   1.417   2.909  0.0718  0.2065  1.6149
   68MOL    H1117565   0.777   1.679   2.953 -2.5276 -1.8088 -0.4884
   68MOL    H1217566   0.745   1.535   3.033  0.3422 -1.3617 -1.1334
   68MOL    H1317567   0.886   1.623   3.078 -0.2115 -0.2364  0.7272
   68MOL    H1417568   0.813   1.206   2.711 -0.8650  0.2669 -0.9215
   68MOL    C1517569   0.722   1.440   2.571 -0.6815 -0.1850  0.4224
   68MOL    C1617570   0.738   1.382   2.422  0.3180  0.2148  0.2428
   68MOL    O1717571   0.838   1.460   2.354  0.6160 -0.1875  0.1592
   68MOL    C1817572   0.949   1.383   2.307  0.2408  0.2578  0.1757
   68MOL    C1917573   1.001   1.443   2.173  0.1276 -0.0798 -0.3900
   68MOL    H2017574   0.709   1.548   2.563 -0.2652 -0.2373 -1.3554
   68MOL    H2117575   0.638   1.389   2.617 -0.0939 -3.2898 -1.7231
   68MOL    H2217576   0.768   1.278   2.436  3.1743  0.8955 -0.2882
   68MOL    H2317577   0.925   1.278   2.297 -1.0099  0.4874  0.6242
   68MOL    H2417578   1.023   1.395   2.386  1.3639 -0.8706 -0.7114
   68MOL    H2517579   0.920   1.447   2.100  0.1732  0.8300 -0.3924
   68MOL    H2617580   1.081   1.376   2.142 -1.8667 -2.9335  0.3286
   68MOL    H2717581   1.041   1.543   2.186  1.1607 -0.8058  2.5108
   68MOL    C2817582   0.609   1.379   2.344 -0.2935 -0.2612  0.5752
   68MOL    C2917583   0.603   1.363   2.191  0.2242 -0.4014 -0.5641
   68MOL    O3017584   0.462   1.361   2.165 -0.4487 -0.0917 -0.0796
   68MOL    C3117585   0.418   1.475   2.090  0.1008  0.1700 -0.0133
   68MOL    C3217586   0.260   1.456   2.055 -0.0488 -0.4136  0.2809
   68MOL    H3317587   0.565   1.478   2.359  1.2546  0.2366  2.0335
   68MOL    H3417588   0.536   1.310   2.388 -1.6585  0.5959 -0.3070
   68MOL    H3517589   0.651   1.451   2.150  0.0181  0.3256  0.7105
   68MOL    H3617590   0.471   1.485   1.995  1.3280  0.3605  0.6709
   68MOL    H3717591   0.435   1.560   2.156 -2.8759 -2.1224  3.9316
   68MOL    H3817592   0.228   1.376   1.989 -2.6891  1.2279 -0.4905
   68MOL    H3917593   0.209   1.438   2.150  2.2548 -0.4888  1.5413
   68MOL    H4017594   0.227   1.549   2.011  0.5962 -0.3820 -0.1439
   68MOL    C4117595   0.663   1.234   2.128 -0.4076 -0.2147 -0.4019
   68MOL    C4217596   0.653   1.226   1.971 -0.3758 -0.2559  0.3121
   68MOL    O4317597   0.740   1.120   1.947 -0.6389  0.4280 -0.0977
   68MOL    C4417598   0.679   0.996   1.933 -0.3012 -0.9580  0.0039
   68MOL    C4517599   0.790   0.893   1.927  0.1460 -0.5740  0.3332
   68MOL    H4617600   0.603   1.153   2.171 -1.1868 -0.2171 -1.4950
   68MOL    H4717601   0.764   1.213   2.164  0.2853 -1.6871 -3.0721
   68MOL    H4817602   0.550   1.209   1.940 -0.7795  0.3894  1.2697
   68MOL    H4917603   0.614   0.993   1.845 -0.2381 -2.1792 -0.0041
   68MOL    H5017604   0.608   0.973   2.012 -0.9413 -0.6277 -0.4645
   68MOL    H5117605   0.862   0.902   2.008 -0.5415 -0.3360  0.9180
   68MOL    H5217606   0.743   0.794   1.925 -0.1211 -0.4255 -0.9677
   68MOL    H5317607   0.843   0.908   1.833 -1.7470 -2.1931 -1.0378
   68MOL    C5417608   0.718   1.339   1.890 -0.1059 -0.2323 -0.0173
   68MOL    C5517609   0.694   1.328   1.736  0.9423 -0.0564  0.5611
   68MOL    O5617610   0.782   1.418   1.666 -0.4282 -0.4726  0.0333
   68MOL    C5717611   0.922   1.379   1.665  0.6039  0.1757  0.1683
   68MOL    C5817612   0.999   1.467   1.567 -0.3750 -0.1589 -0.2129
   68MOL    H5917613   0.823   1.334   1.919 -0.3046  0.9185  0.9375
   68MOL    H6017614   0.690   1.440   1.917  1.5797  0.7002 -1.5941
   68MOL    H6117615   0.718   1.228   1.699  2.1237  1.0872 -1.8740
   68MOL    H6217616   0.926   1.278   1.625 -0.5106 -1.0195  2.9684
   68MOL    H6317617   0.962   1.388   1.766  0.2712 -2.0006  0.5096
   68MOL    H6417618   1.096   1.422   1.544 -0.0514  0.1884  0.4671
   68MOL    H6517619   0.938   1.479   1.478  0.1800 -1.0516 -0.7180
   68MOL    H6617620   1.001   1.571   1.597  0.0729  0.7070 -3.1075
   68MOL    C6717621   0.549   1.355   1.686 -0.2228 -0.5161 -0.4085
   68MOL    C6817622   0.525   1.325   1.536  0.5420 -0.2108  0.0143
   68MOL    O6917623   0.411   1.398   1.499 -0.5898  0.4336  0.9491
   68MOL    C7017624   0.439   1.525   1.442 -0.3799 -0.2629 -0.1123
   68MOL    C7117625   0.328   1.619   1.462  0.6975  0.1278 -0.7286
   68MOL    H7217626   0.522   1.459   1.705  1.6372 -0.4568  2.0216
   68MOL    H7317627   0.474   1.293   1.735 -0.3424 -0.0392  0.0102
   68MOL    H7417628   0.612   1.344   1.473  1.2544  1.5040  1.4818
   68MOL    H7517629   0.459   1.507   1.336 -1.5269  0.1943 -0.4097
   68MOL    H7617630   0.530   1.567   1.485 -1.2073 -0.8037  2.2651
   68MOL    H7717631   0.239   1.576   1.415  1.3724 -0.1459 -1.7838
   68MOL    H7817632   0.309   1.645   1.566  0.1453  0.6355 -0.9529
   68MOL    H7917633   0.333   1.712   1.406  2.2179  0.7190  0.3859
   68MOL    C8017634   0.497   1.179   1.510  0.6726 -0.1745 -0.0506
   68MOL    C8117635   0.477   1.134   1.366 -0.3433 -1.2056  0.1217
   68MOL    O8217636   0.350   1.170   1.321  0.3264  0.2255  0.1354
   68MOL    C8317637   0.331   1.178   1.177 -0.5361 -0.0880  0.2921
   68MOL    C8417638   0.201   1.259   1.159 -0.1561 -0.5333  0.3567
   68MOL    H8517639   0.410   1.148   1.567  0.1082  0.9148 -0.3056
   68MOL    H8617640   0.584   1.125   1.546  0.3238 -0.4138  0.4293
   68MOL    H8717641   0.549   1.184   1.302 -0.8608  0.2382  0.6370
   68MOL    H8817642   0.309   1.077   1.140 -2.3189 -1.4113  4.6513
   68MOL    H8917643   0.412   1.221   1.118  1.0879 -1.9539  1.0955
   68MOL    H9017644   0.153   1.226   1.067  1.8940 -1.1235 -0.5322
   68MOL    H9117645   0.130   1.232   1.237  1.1186 -2.0452  1.0189
   68MOL    H9217646   0.218   1.367   1.165 -1.9360 -0.0995 -1.5804
   68MOL    C9317647   0.513   0.984   1.347 -0.1399 -0.6753 -0.3011
   68MOL    C9417648   0.669   0.958   1.364  0.3777  0.7731 -0.5280
   68MOL    O9517649   0.733   1.029   1.259 -0.2373  0.1643  0.2975
   68MOL    C9617650   0.843   1.113   1.310 -0.3756 -0.0183  0.2179
   68MOL    C9717651   0.904   1.216   1.217 -0.0984 -0.5321 -0.9870
   68MOL    H9817652   0.483   0.955   1.246 -2.3356 -1.2318  0.4908
   68MOL    H9917653   0.452   0.925   1.415  1.6527 -1.4255  0.6811
   68MOL   H10017654   0.698   0.977   1.467 -0.3791 -0.3679 -0.0952
   68MOL   H10117655   0.922   1.044   1.340 -1.6026 -1.1800  0.8667
   68MOL   H10217656   0.802   1.170   1.394 -2.5609 -0.6680 -0.3567
   68MOL   H10317657   0.992   1.263   1.262 -0.6815 -0.3236 -0.0383
   68MOL   H10417658   0.926   1.164   1.124 -3.6189 -3.9329 -0.0535
   68MOL   H10517659   0.827   1.292   1.203  2.4917  2.4785  0.4366
   68MOL   C10617660   0.691   0.801   1.347  0.0675 -0.5380  0.6605
   68MOL   C10717661   0.827   0.752   1.380  0.3625 -0.1207 -0.6696
   68MOL   O10817662   0.869   0.626   1.313  0.2082 -0.0399  0.1891
   68MOL   C10917663   0.960   0.636   1.203  0.4905 -0.4091  0.2489
   68MOL   C11017664   0.894   0.673   1.070 -0.5415  0.2932 -0.4413
   68MOL   H11117665   0.670   0.777   1.243 -2.2600  0.8121  0.7816
   68MOL   H11217666   0.611   0.752   1.403 -0.8520  0.2063  0.0082
   68MOL   H11317667   0.897   0.827   1.343  1.7299 -0.6117  0.8110
   68MOL   H11417668   0.999   0.536   1.186  0.6661 -0.2676 -0.1973
   68MOL   H11517669   1.047   0.696   1.230 -0.1685  1.1258 -0.9323
   68MOL   H11617670   0.968   0.680   0.991  0.7557  1.2012  0.8382
   68MOL   H11717671   0.821   0.600   1.035  0.6850 -1.3194  0.2813
   68MOL   H11817672   0.843   0.769   1.071  0.4605  0.8705 -2.3428
   68MOL   C11917673   0.848   0.731   1.527  0.1190 -0.3490  0.8679
   68MOL   C12017674   1.001   0.728   1.568  0.6251  0.5634 -0.4316
   68MOL   O12117675   1.006   0.685   1.708 -0.2189 -0.2682  0.1949
   68MOL   C12217676   0.996   0.540   1.721  0.0313  0.5308  0.3146
   68MOL   C12317677   0.907   0.506   1.838  0.1603 -0.3803 -0.1664
   68MOL   H12417678   0.796   0.643   1.563 -0.6347 -0.7432 -1.0861
   68MOL   H12517679   0.800   0.808   1.586  0.0636  1.1263 -1.0355
   68MOL   H12617680   1.046   0.667   1.490  1.4864  0.3378  0.2302
   68MOL   H12717681   1.098   0.504   1.734 -0.2005  0.1749  1.1995
   68MOL   H12817682   0.957   0.505   1.625  0.5100  2.0726 -0.4708
   68MOL   H12917683   0.809   0.550   1.822  0.2399 -1.3306 -3.8427
   68MOL   H13017684   0.880   0.403   1.863  0.1555 -0.3587 -0.0819
   68MOL   H13117685   0.960   0.549   1.923  2.7309 -1.0341 -1.3862
   68MOL   C13217686   1.082   0.860   1.566 -0.1364 -0.0889  0.1411
   68MOL   C13317687   1.236   0.847   1.598  0.1322  0.4034 -0.0072
   68MOL   O13417688   1.283   0.946   1.693  0.0349  0.0793  0.0530
   68MOL   C13517689   1.250   0.940   1.834 -0.3397  0.2284 -0.4978
   68MOL   C13617690   1.318   1.057   1.910 -0.2334 -0.4853 -0.0508
   68MOL   H13717691   1.031   0.919   1.642 -0.0835  0.9147 -0.5976
   68MOL   H13817692   1.068   0.916   1.473  1.2012  0.1358  0.0680
   68MOL   H13917693   1.266   0.757   1.652  2.1243  0.6604 -0.6223
   68MOL   H14017694   1.286   0.848   1.880 -1.3448  1.9503  3.9517
   68MOL   H14117695   1.141   0.934   1.834 -0.4357  1.2551  2.5108
   68MOL   H14217696   1.280   1.156   1.887  2.3627  1.5626  3.8918
   68MOL   H14317697   1.313   1.037   2.017  1.8748  0.9364  0.3313
   68MOL   H14417698   1.422   1.050   1.879 -0.1836 -1.9186  0.3910
   68MOL   C14517699   1.327   0.874   1.477 -0.6152 -0.3804 -0.2461
   68MOL   C14617700   1.324   0.766   1.376 -0.8276 -0.6552 -0.0079
   68MOL   O14717701   1.366   0.638   1.432  0.3935  0.0494 -0.3613
   68MOL   C14817702   1.311   0.532   1.363  0.0732  0.2454 -0.4975
   68MOL   C14917703   1.314   0.404   1.445  0.5882  0.5487  0.1654
   68MOL   H15017704   1.427   0.894   1.515 -0.5828  1.0178 -1.0230
   68MOL   H15117705   1.294   0.962   1.422  0.4953  0.0723 -0.1842
   68MOL   H15217706   1.240   0.779   1.307  0.8507  2.1504 -1.6143
   68MOL   H15317707   1.363   0.535   1.267  1.1750  1.0531  0.1125
   68MOL   H15417708   1.208   0.553   1.335 -0.4833 -1.9658 -0.2332
   68MOL   H15517709   1.281   0.322   1.380 -1.8517 -1.0215  3.2382
   68MOL   H15617710   1.410   0.371   1.482 -0.7505  0.2193  3.5285
   68MOL   H15717711   1.237   0.413   1.522  0.2779  0.2204 -0.1020
   68MOL   C15817712   1.448   0.805   1.276  0.6088  0.2543 -0.5332
   68MOL   C15917713   1.424   0.924   1.177 -0.6464  0.1789  0.2087
   68MOL   O16017714   1.303   0.882   1.112 -0.5441 -0.4922 -0.5922
   68MOL   C16117715   1.228   0.985   1.050  0.4544  0.1684  0.2515
   68MOL   C16217716   1.096   0.931   0.981  0.3132  0.2132 -0.1411
   68MOL   H16317717   1.484   0.716   1.224  1.9560 -0.2760  1.2649
   68MOL   H16417718   1.532   0.821   1.343  0.4417  1.0257 -0.5043
   68MOL   H16517719   1.407   1.013   1.237  1.7383  1.6647 -1.2453
   68MOL   H16617720   1.289   1.015   0.965 -0.6408 -0.0697 -0.6257
   68MOL   H16717721   1.209   1.077   1.104 -1.4322  1.3635 -2.3444
   68MOL   H16817722   1.024   0.917   1.062  0.6541 -1.4431 -0.0957
   68MOL   H16917723   1.056   1.001   0.909 -1.8681 -0.8970 -0.0549
   68MOL   H17017724   1.110   0.839   0.923 -0.7906 -0.0438  0.0012
   68MOL   C17117725   1.539   0.936   1.074  0.3432  0.2746 -0.6025
   68MOL   C17217726   1.658   1.007   1.138  0.3234 -0.3737  0.4192
   68MOL   O17317727   1.619   1.142   1.174  0.0772  0.1011 -0.2241
   68MOL   C17417728   1.681   1.177   1.299 -0.2426  0.1626  0.4366
   68MOL   C17517729   1.594   1.127   1.413 -0.3589  0.0142 -0.2764
   68MOL   H17617730   1.502   1.003   0.997 -2.5764 -4.3064 -3.4244
   68MOL   H17717731   1.567   0.835   1.043 -0.9378 -0.6479  1.1032
   68MOL   H17817732   1.692   0.944   1.221 -0.0652 -0.0241  0.8488
   68MOL   H17917733   1.695   1.285   1.307  0.6785 -0.0137  1.2706
   68MOL   H18017734   1.772   1.127   1.333 -0.9205 -0.2005  1.7516
   68MOL   H18117735   1.646   1.160   1.503 -2.8537 -1.7814  1.8913
   68MOL   H18217736   1.494   1.165   1.392 -0.7470 -1.0681 -0.4114
   68MOL   H18317737   1.595   1.019   1.427  2.4826  0.2221  1.4416
   68MOL   C18417738   1.782   1.019   1.046 -0.3810  0.2108  0.0083
   68MOL   C18517739   1.764   1.080   0.904  0.5709  1.3471  0.1589
   68MOL   O18617740   1.719   0.969   0.834 -0.7223  0.2961  0.1249
   68MOL   C18717741   1.622   0.998   0.741  0.1832 -0.3089  0.0176
   68MOL   C18817742   1.573   0.864   0.691 -0.3568 -0.5794  0.3865
   68MOL   H18917743   1.809   0.915   1.032  1.5353  0.5879  0.7449
   68MOL   H19017744   1.861   1.068   1.104 -1.1334  0.3127  0.9547
   68MOL   H19117745   1.697   1.165   0.912 -1.8187 -0.6756  2.7022
   68MOL   H19217746   1.668   1.058   0.662 -0.6031  0.3305  0.0495
   68MOL   H19317747   1.552   1.060   0.797 -1.7632 -0.0256 -2.6406
   68MOL   H19417748   1.487   0.874   0.624 -0.3383 -0.1807  0.4266
   68MOL   H19517749   1.652   0.803   0.646  0.9819  1.7202 -0.4170
   68MOL   H19617750   1.535   0.807   0.776 -1.3229 -1.0733 -0.3650
   68MOL   C19717751   1.887   1.129   0.844  0.8728  1.3341  0.4960
   68MOL   C19817752   1.941   1.268   0.877 -0.3124 -0.0159 -0.0681
   68MOL   O19917753   1.941   1.335   0.754  1.0491 -0.2865  0.3412
   68MOL   C20017754   1.835   1.424   0.726  1.0030 -1.2337 -0.1508
   68MOL   C20117755   1.864   1.572   0.765 -0.0394 -0.8881 -0.0239
   68MOL   H20217756   1.875   1.125   0.736 -1.8080 -1.5580  0.8424
   68MOL   H20317757   1.973   1.064   0.862  1.0583  2.1678  2.8108
   68MOL   H20417758   1.881   1.313   0.956 -0.3273  0.4127 -0.3252
   68MOL   H20517759   1.745   1.392   0.779  1.0432 -0.8363  0.1600
   68MOL   H20617760   1.812   1.428   0.620 -0.6987  3.2200  0.2898
   68MOL   H20717761   1.923   1.563   0.856 -1.1681  1.5291  0.9974
   68MOL   H20817762   1.920   1.626   0.689  1.5555 -1.3791  0.7734
   68MOL   H20917763   1.777   1.628   0.797 -1.1821 -0.6990 -3.2836
   68MOL   C21017764   2.087   1.273   0.933 -0.2425  0.3879  0.2506
   68MOL   C21117765   2.111   1.254   1.081 -0.4126 -0.5478 -0.0220
   68MOL   O21217766   2.097   1.380   1.149 -0.5510 -0.0405 -0.1227
   68MOL   C21317767   1.981   1.387   1.231  0.7513 -1.0701 -0.0065
   68MOL   C21417768   2.013   1.314   1.362 -0.6602 -0.4598 -0.0133
   68MOL   H21517769   2.141   1.365   0.911  0.4146  0.3127  1.5277
   68MOL   H21617770   2.137   1.202   0.866 -1.1419 -0.8860  0.9254
   68MOL   H21717771   2.035   1.180   1.108 -0.3237 -0.4885  0.3960
   68MOL   H21817772   1.888   1.352   1.184 -0.6704 -0.8113  2.5193
   68MOL   H21917773   1.965   1.489   1.266  0.2769 -1.2313  0.2584
   68MOL   H22017774   2.108   1.335   1.411 -0.2925 -1.3448 -0.3266
   68MOL   H22117775   1.936   1.314   1.439 -1.0619 -1.1034 -0.4130
   68MOL   H22217776   2.023   1.209   1.336  0.7122 -0.7271  1.5365
   68MOL   C22317777   2.254   1.215   1.106 -0.0728  0.3431 -0.1513
   68MOL   C22417778   2.274   1.057   1.093 -0.3670 -0.0115 -0.0279
   68MOL   O22517779   2.249   1.003   1.223  0.3355 -0.2337  0.1668
   68MOL   C22617780   2.145   0.910   1.223  0.6742  0.4613 -0.2855
   68MOL   C22717781   2.100   0.895   1.374  0.3389 -0.0470  0.1755
   68MOL   H22817782   2.290   1.243   1.205  0.2199  0.8452 -0.3965
   68MOL   H22917783   2.313   1.270   1.033  0.0600 -1.1543 -1.1909
   68MOL   H23017784   2.201   1.014   1.025 -1.0317  1.5870 -0.3561
   68MOL   H23117785   2.185   0.819   1.177 -0.6581  0.2321 -1.0416
   68MOL   H23217786   2.058   0.950   1.171  1.3079  2.2233 -0.0002
   68MOL   H23317787   2.055   0.990   1.403 -1.3258 -0.4899 -0.9043
   68MOL   H23417788   2.027   0.815   1.385  1.8067 -1.4205  0.2373
   68MOL   H23517789   2.180   0.858   1.438  0.3301  0.8179  0.6941
   68MOL   C23617790   2.421   1.030   1.052  0.2933  0.5895  0.0500
   68MOL   C23717791   2.464   0.879   1.068 -0.5861 -0.2080  0.1738
   68MOL   O23817792   2.606   0.875   1.073  0.3857  0.5833  0.3069
   68MOL   C23917793   2.680   0.872   0.950  0.0259 -0.7252 -0.1801
   68MOL   C24017794   2.828   0.890   0.973 -0.5249  0.1603  0.1989
   68MOL   H24117795   2.483   1.079   1.127 -0.1882  0.1161  0.7645
   68MOL   H24217796   2.426   1.064   0.948 -0.0389 -0.8845 -0.4545
   68MOL   H24317797   2.421   0.844   1.162 -0.9910 -0.4242 -0.0884
   68MOL   H24417798   2.649   0.944   0.874  1.5762  0.8417  0.6606
   68MOL   H24517799   2.656   0.774   0.908 -1.4937 -1.1123  1.5232
   68MOL   H24617800   2.851   0.991   1.007  0.6278  0.5052 -1.5310
   68MOL   H24717801   2.865   0.821   1.049  1.4275  0.0049 -0.8367
   68MOL   H24817802   2.892   0.885   0.885  0.6609  1.9217  0.9353
   68MOL   C24917803   2.390   0.780   0.971  0.8635 -0.2940  0.4227
   68MOL   C25017804   2.414   0.632   1.001  0.3839  0.3675 -0.0237
   68MOL   O25117805   2.352   0.560   0.899  0.3067  0.1180 -0.3892
   68MOL   C25217806   2.366   0.422   0.913  0.2215  0.2793 -0.6537
   68MOL   C25317807   2.502   0.374   0.872 -0.7644  0.4774  0.0740
   68MOL   H25417808   2.413   0.801   0.866 -2.7458  1.8254 -0.0140
   68MOL   H25517809   2.283   0.801   0.974  0.8448 -0.5623  2.0576
   68MOL   H25617810   2.523   0.625   1.002  0.3102 -0.6917  0.1842
   68MOL   H25717811   2.285   0.377   0.856 -1.5183  3.4906 -0.8217
   68MOL   H25817812   2.353   0.391   1.017  1.1010  0.0974 -0.5934
   68MOL   H25917813   2.576   0.406   0.945 -1.4609  2.2213  0.0437
   68MOL   H26017814   2.501   0.266   0.856  0.8273  0.5802 -0.8028
   68MOL   H26117815   2.537   0.412   0.776 -1.1065  2.2357  0.6367
   68MOL   H26217816   2.384   0.607   1.103 -1.9978  1.3285 -0.4545
   69MOL     C117817   4.575   3.606   5.933 -0.5667 -0.0446 -0.2900
   69MOL     C217818   4.463   3.683   5.998  0.4379 -0.5034 -0.3768
   69MOL     O317819   4.476   3.818   5.936  0.0383 -0.2387  0.1771
   69MOL     C417820   4.429   3.839   5.802 -0.3797  0.1740  0.0058
   69MOL     C517821   4.281   3.835   5.803 -0.5916  0.3696  0.6274
   69MOL     H617822   4.578   3.509   5.983  1.6209 -0.3127 -0.8505
   69MOL     H717823   4.564   3.593   5.825  1.3156 -1.0086 -0.3919
   69MOL     H817824   4.371   3.633   5.971  1.0399 -1.4169 -0.7490
   69MOL     H917825   4.478   3.772   5.733  0.0218 -0.6045  1.0283
   69MOL    H1017826   4.466   3.934   5.763 -2.3023 -0.0076 -2.3423
   69MOL    H1117827   4.237   3.804   5.708 -0.8545  2.1727  0.1510
   69MOL    H1217828   4.247   3.763   5.878  5.0571 -0.8042  2.2689
   69MOL    H1317829   4.244   3.936   5.818  0.2369  0.8736 -0.6504
   69MOL    H1417830   4.673   3.655   5.933 -0.6821  0.1862 -0.1207
   69MOL    C1517831   4.486   3.709   6.151  0.3645 -0.2062  1.0219
   69MOL    C1617832   4.424   3.607   6.240 -0.2392  0.4080 -0.7821
   69MOL    O1717833   4.283   3.616   6.242 -0.0759  0.5107  0.1167
   69MOL    C1817834   4.204   3.501   6.243 -0.0201  1.0950  0.2726
   69MOL    C1917835   4.140   3.478   6.108 -0.1304 -0.0188  0.0449
   69MOL    H2017836   4.441   3.803   6.182 -0.3751 -0.3050  0.2556
   69MOL    H2117837   4.593   3.698   6.171  1.1389  1.9329 -1.6765
   69MOL    H2217838   4.453   3.513   6.194  0.8234  1.1763 -1.7258
   69MOL    H2317839   4.133   3.505   6.325 -0.1749  1.1929  0.1340
   69MOL    H2417840   4.264   3.416   6.274  0.5642  1.1215 -0.7600
   69MOL    H2517841   4.065   3.399   6.119  0.7392 -0.4470  3.6161
   69MOL    H2617842   4.221   3.456   6.038  0.7172 -2.3412  1.6815
   69MOL    H2717843   4.091   3.565   6.066 -1.8215 -0.7656  0.4574
   69MOL    C2817844   4.474   3.592   6.382  0.0443 -0.3963  0.5788
   69MOL    C2917845   4.477   3.721   6.465  0.5461  0.3655  0.1062
   69MOL    O3017846   4.519   3.687   6.596  0.0262 -0.5270 -0.2738
   69MOL    C3117847   4.662   3.675   6.614 -1.1572  0.1499  0.3138
   69MOL    C3217848   4.699   3.561   6.717  0.2076 -0.4099 -0.2005
   69MOL    H3317849   4.578   3.558   6.376 -0.0538 -0.5774 -0.1393
   69MOL    H3417850   4.427   3.511   6.439 -0.0610 -0.7015  0.0607
   69MOL    H3517851   4.541   3.798   6.423  0.4861  1.2663  1.6140
   69MOL    H3617852   4.683   3.772   6.659  2.9139 -0.4579 -0.1361
   69MOL    H3717853   4.722   3.664   6.524 -1.0377  2.1482  0.1265
   69MOL    H3817854   4.649   3.467   6.697  1.3581 -1.1439  0.3561
   69MOL    H3917855   4.805   3.543   6.731 -0.0697 -0.7815  1.6027
   69MOL    H4017856   4.670   3.594   6.817  0.5126  0.8302 -0.5137
   69MOL    C4117857   4.331   3.774   6.494  0.1196  0.2814 -0.5678
   69MOL    C4217858   4.336   3.892   6.598  0.6968  0.2036  0.3680
   69MOL    O4317859   4.208   3.946   6.601 -0.4532 -0.6816  0.8584
   69MOL    C4417860   4.108   3.886   6.682  0.3107  1.0317 -0.3995
   69MOL    C4517861   4.120   3.937   6.831  0.0237 -0.0498 -1.3397
   69MOL    H4617862   4.274   3.691   6.536 -2.3168  2.3429  0.3284
   69MOL    H4717863   4.279   3.819   6.409 -0.8829  1.1659  0.4958
   69MOL    H4817864   4.381   3.866   6.693  1.9830  0.8508 -0.0576
   69MOL    H4917865   4.105   3.777   6.681 -1.6100  1.0740 -1.9852
   69MOL    H5017866   4.016   3.917   6.632 -0.8900 -1.5305  0.1188
   69MOL    H5117867   4.205   3.895   6.885 -2.3131 -1.8135  1.1391
   69MOL    H5217868   4.132   4.045   6.830 -1.5981  0.1606 -0.5384
   69MOL    H5317869   4.030   3.906   6.884  1.8144  1.4429  2.8361
   69MOL    C5417870   4.400   4.017   6.534  0.4960  0.8286  0.4024
   69MOL    C5517871   4.528   4.052   6.612  0.1077 -0.4545  0.5582
   69MOL    O5617872   4.489   4.120   6.725  0.2865 -0.4630  0.5170
   69MOL    C5717873   4.506   4.049   6.849  0.1107  0.0249  0.7744
   69MOL    C5817874   4.476   4.139   6.974 -0.0108  0.3139  0.0618
   69MOL    H5917875   4.348   4.112   6.548  0.2316  0.4562  1.9498
   69MOL    H6017876   4.409   4.008   6.426 -1.3854  1.2523  0.1995
   69MOL    H6117877   4.590   3.968   6.644 -0.4434 -1.8015 -1.7885
   69MOL    H6217878   4.609   4.014   6.854 -0.5091 -2.3646 -1.6569
   69MOL    H6317879   4.437   3.966   6.856  0.7803 -0.6940 -0.8559
   69MOL    H6417880   4.384   4.197   6.972  0.9252  1.8479  0.5443
   69MOL    H6517881   4.469   4.083   7.067 -0.3676 -1.4129 -0.9778
   69MOL    H6617882   4.551   4.218   6.986  1.0089 -0.5710 -0.3775
   69MOL    C6717883   4.622   4.149   6.542 -0.1349 -0.3520  0.6696
   69MOL    C6817884   4.714   4.084   6.436  0.3414  0.0439  0.0939
   69MOL    O6917885   4.798   3.982   6.495 -0.0515 -0.3268  0.2823
   69MOL    C7017886   4.879   4.011   6.608  0.4253 -0.3694  0.1557
   69MOL    C7117887   4.981   3.899   6.635 -0.7976 -0.1506  0.3129
   69MOL    H7217888   4.681   4.203   6.616  0.7120 -0.2260 -0.0904
   69MOL    H7317889   4.555   4.220   6.494  0.1936 -0.6681 -0.2610
   69MOL    H7417890   4.664   4.037   6.351  0.2654  1.8223 -0.8591
   69MOL    H7517891   4.817   4.026   6.697  0.3011 -0.0204  0.0127
   69MOL    H7617892   4.937   4.100   6.584 -1.5658  0.3512 -2.2372
   69MOL    H7717893   5.048   3.876   6.551 -0.2738  0.4185  0.5736
   69MOL    H7817894   5.052   3.913   6.716  1.4733  0.3862 -1.7179
   69MOL    H7917895   4.932   3.804   6.658  0.2637 -0.9916 -0.7960
   69MOL    C8017896   4.808   4.189   6.368  0.8944 -0.0279 -0.4135
   69MOL    C8117897   4.737   4.279   6.253 -0.0417 -1.0319 -0.5243
   69MOL    O8217898   4.716   4.184   6.147  0.1894 -0.1277 -0.8533
   69MOL    C8317899   4.619   4.217   6.053  0.3329  0.3153 -0.1773
   69MOL    C8417900   4.495   4.134   6.075 -0.1102 -0.3141  0.4324
   69MOL    H8517901   4.892   4.130   6.331  0.5475 -1.6716  1.3584
   69MOL    H8617902   4.844   4.253   6.449 -3.6574  0.6223  1.2677
   69MOL    H8717903   4.641   4.314   6.289  0.2198 -0.1495 -0.6663
   69MOL    H8817904   4.652   4.190   5.953 -1.3968  1.2412 -1.0093
   69MOL    H8917905   4.589   4.322   6.058 -1.3008 -0.0551 -1.7525
   69MOL    H9017906   4.444   4.164   6.167 -0.9356  2.3308 -0.8480
   69MOL    H9117907   4.422   4.133   5.994  0.0032 -0.2441  0.3298
   69MOL    H9217908   4.521   4.031   6.098 -1.0655 -0.9718 -1.3406
   69MOL    C9317909   4.833   4.395   6.212  0.3494 -0.4465  0.3774
   69MOL    C9417910   4.841   4.519   6.302  0.3971 -0.3045 -0.0374
   69MOL    O9517911   4.892   4.490   6.427  0.3212  0.1985 -0.4883
   69MOL    C9617912   4.972   4.589   6.487  0.2217 -0.7083  0.2039
   69MOL    C9717913   5.000   4.532   6.625 -0.2790 -0.3808  0.0849
   69MOL    H9817914   4.807   4.442   6.117  1.0101 -1.1030 -0.1342
   69MOL    H9917915   4.932   4.352   6.196  0.2616 -0.4691 -0.1078
   69MOL   H10017916   4.901   4.599   6.256 -0.0453 -0.0360 -0.1471
   69MOL   H10117917   4.917   4.683   6.487  1.3275 -0.0568 -0.0382
   69MOL   H10217918   5.065   4.610   6.435  0.5021 -0.0484  0.9578
   69MOL   H10317919   5.051   4.609   6.685  0.0014  0.4093 -1.1577
   69MOL   H10417920   4.912   4.491   6.675 -0.4325  0.8363  0.8502
   69MOL   H10517921   5.065   4.447   6.607  0.9619  0.8959 -1.6012
   69MOL   C10617922   4.702   4.591   6.321  0.4612 -0.5596  0.5929
   69MOL   C10717923   4.636   4.642   6.199 -0.4557  0.0047 -0.7283
   69MOL   O10817924   4.732   4.706   6.115  0.6550  0.2858 -0.2936
   69MOL   C10917925   4.706   4.726   5.977  0.3489 -0.3912  0.1509
   69MOL   C11017926   4.640   4.614   5.900  0.7531  0.4245  0.1389
   69MOL   H11117927   4.712   4.675   6.390  0.9760  0.6987 -0.9761
   69MOL   H11217928   4.634   4.523   6.372 -2.5881  0.3373 -2.1023
   69MOL   H11317929   4.597   4.550   6.155 -0.9847 -0.1400  0.0432
   69MOL   H11417930   4.807   4.744   5.939 -0.1090  1.3008 -0.3120
   69MOL   H11517931   4.643   4.815   5.972 -3.6157 -3.1151 -0.8926
   69MOL   H11617932   4.542   4.582   5.937 -0.2885 -0.0106 -2.8149
   69MOL   H11717933   4.620   4.643   5.797 -1.5070 -0.7976  0.1768
   69MOL   H11817934   4.704   4.526   5.895  0.4149  0.0415  1.9952
   69MOL   C11917935   4.518   4.743   6.209  0.7676 -0.3703  0.1234
   69MOL   C12017936   4.390   4.691   6.266 -0.2230  0.4126 -1.1700
   69MOL   O12117937   4.340   4.592   6.174  0.2314 -0.3287 -0.0424
   69MOL   C12217938   4.306   4.470   6.241 -0.0901  0.7776 -0.4633
   69MOL   C12317939   4.206   4.399   6.153  0.4799 -0.0228 -0.9711
   69MOL   H12417940   4.484   4.785   6.115  0.2328 -0.7670  0.1376
   69MOL   H12517941   4.563   4.818   6.274  0.6815 -0.0648 -0.1750
   69MOL   H12617942   4.416   4.652   6.365 -1.4635  0.9104 -0.6355
   69MOL   H12717943   4.266   4.487   6.342  0.1796 -1.9793  0.1392
   69MOL   H12817944   4.396   4.415   6.265 -0.2167  0.3094 -1.0693
   69MOL   H12917945   4.128   4.470   6.127 -0.0097 -0.0448  0.3932
   69MOL   H13017946   4.248   4.356   6.062 -0.8478 -0.3794 -1.4121
   69MOL   H13117947   4.167   4.314   6.208 -1.2206 -0.5128 -2.8904
   69MOL   C13217948   4.297   4.811   6.284  0.4991 -0.6907  0.3353
   69MOL   C13317949   4.188   4.803   6.393  0.5375 -0.2076 -0.0281
   69MOL   O13417950   4.085   4.887   6.359  0.4678  0.0340 -0.1867
   69MOL   C13517951   3.955   4.823   6.327 -0.1392 -0.3529  0.2191
   69MOL   C13617952   3.842   4.915   6.270 -0.1159  0.0800  0.7289
   69MOL   H13717953   4.241   4.833   6.194 -1.7841 -1.1185  1.6016
   69MOL   H13817954   4.350   4.903   6.306  0.0357 -0.4097  0.2881
   69MOL   H13917955   4.168   4.697   6.411 -1.7724  0.0842 -0.7568
   69MOL   H14017956   3.932   4.768   6.418  1.0247 -1.8427 -0.3570
   69MOL   H14117957   3.967   4.747   6.250  0.8514 -0.2609  0.2779
   69MOL   H14217958   3.871   4.969   6.180 -0.5166  3.2727  2.4260
   69MOL   H14317959   3.749   4.860   6.254 -0.0007 -0.2339  1.1174
   69MOL   H14417960   3.807   4.997   6.332 -1.4608  0.7649 -0.9079
   69MOL   C14517961   4.227   4.864   6.529 -0.1053  0.0430  0.2290
   69MOL   C14617962   4.319   4.780   6.620 -0.0307  0.9222  0.5248
   69MOL   O14717963   4.261   4.655   6.651  0.6891  0.3751 -0.3697
   69MOL   C14817964   4.343   4.553   6.705 -0.8487 -0.6244  0.6732
   69MOL   C14917965   4.434   4.491   6.601  0.3022 -0.1570  0.1883
   69MOL   H15017966   4.138   4.880   6.589  0.1678  1.3030  0.2999
   69MOL   H15117967   4.280   4.958   6.517  0.0634  0.0131  0.7551
   69MOL   H15217968   4.407   4.762   6.557  0.3025  0.4402  1.1337
   69MOL   H15317969   4.283   4.472   6.744 -0.7370  0.0689  2.3121
   69MOL   H15417970   4.398   4.581   6.794  0.6353 -1.8210  0.1440
   69MOL   H15517971   4.499   4.567   6.560  0.8776 -1.1322 -0.7149
   69MOL   H15617972   4.498   4.412   6.641 -0.7917 -1.8544 -1.3056
   69MOL   H15717973   4.375   4.455   6.516 -2.2516 -0.1134  1.8915
   69MOL   C15817974   4.366   4.860   6.745 -0.0817 -0.5210 -0.3404
   69MOL   C15917975   4.509   4.920   6.740 -0.8487  0.0823  1.0600
   69MOL   O16017976   4.518   5.025   6.637 -0.1094  0.0029 -0.2835
   69MOL   C16117977   4.523   5.156   6.693 -0.1029 -0.1019  0.4987
   69MOL   C16217978   4.579   5.247   6.583 -0.5961 -0.3829 -0.7957
   69MOL   H16317979   4.361   4.795   6.832  2.2118 -2.8529 -1.8696
   69MOL   H16417980   4.297   4.943   6.760 -0.2717 -0.6226 -0.6300
   69MOL   H16517981   4.536   4.953   6.840 -2.6566  0.2434  1.5223
   69MOL   H16617982   4.584   5.164   6.783 -0.2168 -0.2605  0.5900
   69MOL   H16717983   4.424   5.181   6.732  0.9655  0.1902  3.0754
   69MOL   H16817984   4.584   5.355   6.603  3.0457 -1.0129  2.2931
   69MOL   H16917985   4.683   5.213   6.583 -0.8822 -1.2646 -0.9677
   69MOL   H17017986   4.540   5.213   6.488  0.2683  0.3239 -1.4206
   69MOL   C17117987   4.618   4.826   6.694 -0.1472 -0.3982 -0.1178
   69MOL   C17217988   4.751   4.853   6.764 -0.7247 -0.4426 -0.1990
   69MOL   O17317989   4.863   4.861   6.668 -0.1214  0.3939 -0.3590
   69MOL   C17417990   4.885   4.989   6.610  0.5083  0.0157 -0.5484
   69MOL   C17517991   4.978   4.985   6.498 -1.0250  0.1242  0.0621
   69MOL   H17617992   4.625   4.824   6.585  0.3695 -1.3390 -0.0704
   69MOL   H17717993   4.586   4.723   6.710 -2.0540 -0.1976 -2.2569
   69MOL   H17817994   4.746   4.955   6.803 -2.3153 -0.9262  0.9000
   69MOL   H17917995   4.920   5.058   6.687 -1.5727  0.4372  0.0571
   69MOL   H18017996   4.793   5.031   6.570  0.9687  1.7117  0.1443
   69MOL   H18117997   4.947   4.931   6.408  0.7889  0.4956 -0.8166
   69MOL   H18217998   4.996   5.083   6.454 -1.8555 -0.5046 -1.7223
   69MOL   H18317999   5.068   4.933   6.531 -2.1654 -1.6582  0.4286
   69MOL   C18418000   4.794   4.758   6.866  0.7957  0.0146 -0.2389
   69MOL   C18518001   4.716   4.766   7.007  0.1992  0.7385  0.4015
   69MOL   O18618002   4.590   4.698   6.994 -0.0557 -0.2667  0.6185
   69MOL   C18718003   4.586   4.568   7.050  0.1503 -0.2191 -0.0603
   69MOL   C18818004   4.553   4.572   7.197 -0.2965  0.8142  0.0522
   69MOL   H18918005   4.900   4.782   6.878  0.8002 -0.4651  0.8299
   69MOL   H19018006   4.796   4.655   6.830 -0.9123  0.2932 -1.1953
   69MOL   H19118007   4.762   4.707   7.086 -2.4581  0.6863  1.9816
   69MOL   H19218008   4.666   4.502   7.020  0.5453  0.0604  0.3680
   69MOL   H19318009   4.500   4.520   7.003 -0.8090 -0.5195  1.9313
   69MOL   H19418010   4.500   4.482   7.230 -0.5373  0.2306 -1.8869
   69MOL   H19518011   4.642   4.589   7.257  1.4768  0.7999 -2.5258
   69MOL   H19618012   4.478   4.646   7.224  1.2483  1.7861  1.7669
   69MOL   C19718013   4.703   4.908   7.084 -0.3254  0.5415  0.2379
   69MOL   C19818014   4.836   4.974   7.133 -0.0014  0.8841  0.4910
   69MOL   O19918015   4.858   4.951   7.273  1.2934  0.2843  0.3494
   69MOL   C20018016   4.957   4.851   7.299 -0.2804 -0.5184 -0.2275
   69MOL   C20118017   4.936   4.834   7.453 -0.1390 -0.2458 -0.2252
   69MOL   H20218018   4.635   4.881   7.165 -0.8378  0.0263 -0.3628
   69MOL   H20318019   4.650   4.978   7.020 -0.8615 -1.3414 -1.4234
   69MOL   H20418020   4.915   4.952   7.062 -0.2718  4.4671 -0.9798
   69MOL   H20518021   5.059   4.883   7.282  0.7336 -2.0759  2.5892
   69MOL   H20618022   4.927   4.758   7.251 -0.1032 -0.4901 -0.3886
   69MOL   H20718023   4.987   4.748   7.496  0.6259  0.6612  0.6876
   69MOL   H20818024   4.971   4.924   7.504 -0.7379  0.1666 -0.5329
   69MOL   H20918025   4.831   4.823   7.478 -0.6647  3.6600 -0.3644
   69MOL   C21018026   4.813   5.127   7.123 -0.2283 -0.5700 -0.4687
   69MOL   C21118027   4.938   5.217   7.127  0.1143 -0.3775 -0.0053
   69MOL   O21218028   4.891   5.351   7.111 -0.2214 -0.8878  0.3962
   69MOL   C21318029   4.833   5.410   7.232 -0.1387  0.0626 -0.6902
   69MOL   C21418030   4.836   5.560   7.209  0.3543 -0.2858  0.3168
   69MOL   H21518031   4.754   5.158   7.209 -0.3026 -1.2913 -0.2569
   69MOL   H21618032   4.756   5.167   7.039  2.7589  0.5658 -2.0679
   69MOL   H21718033   4.985   5.210   7.225 -2.3318 -2.3894  1.0962
   69MOL   H21818034   4.890   5.380   7.321 -0.6692 -1.7933 -0.9420
   69MOL   H21918035   4.731   5.375   7.244 -0.6973  1.8345 -0.1612
   69MOL   H22018036   4.791   5.624   7.285  0.3556 -0.1015  0.1656
   69MOL   H22118037   4.942   5.582   7.213  0.8577 -2.5401 -0.1434
   69MOL   H22218038   4.786   5.588   7.116 -1.2288 -1.8585  0.6594
   69MOL   C22318039   5.052   5.194   7.023 -0.4014  0.1921 -0.7233
   69MOL   C22418040   5.175   5.109   7.071 -0.4852  0.6057  0.0809
   69MOL   O22518041   5.235   5.185   7.180  0.0927 -0.8927  0.0553
   69MOL   C22618042   5.291   5.100   7.276 -0.3362 -1.1581 -0.0262
   69MOL   C22718043   5.318   5.189   7.401  0.0502  0.0165  0.7284
   69MOL   H22818044   5.104   5.288   7.004  1.3571 -0.6787 -0.2707
   69MOL   H22918045   5.016   5.156   6.928  1.8235 -0.8606 -1.1727
   69MOL   H23018046   5.129   5.019   7.113  0.6295  0.0462  0.1273
   69MOL   H23118047   5.383   5.053   7.240 -0.5560  0.7518 -3.2216
   69MOL   H23218048   5.225   5.017   7.300 -1.8311  0.2094  0.6399
   69MOL   H23318049   5.394   5.137   7.460  0.9115  1.2210  0.6849
   69MOL   H23418050   5.358   5.289   7.384 -0.1309  0.3279  2.0741
   69MOL   H23518051   5.223   5.188   7.453  0.4659 -2.2032  1.5216
   69MOL   C23618052   5.282   5.066   6.962  0.2336 -0.4295  0.1541
   69MOL   C23718053   5.228   4.961   6.861 -0.5983 -0.4212  0.4327
   69MOL   O23818054   5.240   4.820   6.896  0.2328  0.0063 -0.6810
   69MOL   C23918055   5.183   4.776   7.019 -0.1422  0.0799 -0.2249
   69MOL   C24018056   5.192   4.624   7.035 -0.0678  0.7841  0.6004
   69MOL   H24118057   5.367   5.036   7.023 -1.8463 -0.6990  3.0484
   69MOL   H24218058   5.305   5.162   6.915 -2.1342 -0.0354 -0.2533
   69MOL   H24318059   5.120   4.971   6.854 -0.6012 -0.6151  0.1802
   69MOL   H24418060   5.079   4.809   7.022 -1.6853 -4.4712  0.1650
   69MOL   H24518061   5.236   4.826   7.099  0.0691  0.7046 -0.7461
   69MOL   H24618062   5.292   4.582   7.037 -0.5867 -0.4347  2.5354
   69MOL   H24718063   5.147   4.608   7.133 -1.9565  0.1854 -0.3264
   69MOL   H24818064   5.130   4.564   6.967  1.1177  0.3974 -0.1505
   69MOL   C24918065   5.288   4.988   6.724  0.2970  0.3519  0.3096
   69MOL   C25018066   5.441   4.967   6.717 -0.2272  0.4490 -0.2879
   69MOL   O25118067   5.491   5.020   6.599  0.1291 -0.6847  0.1547
   69MOL   C25218068   5.628   5.058   6.591 -0.0250 -0.2909  0.4962
   69MOL   C25318069   5.649   5.135   6.460 -0.2027 -0.2842 -0.1572
   69MOL   H25418070   5.265   5.089   6.691  0.7725 -0.6397 -3.3418
   69MOL   H25518071   5.237   4.930   6.646 -0.3725  2.1970 -0.6415
   69MOL   H25618072   5.489   5.027   6.794 -1.6542  1.4499 -0.1681
   69MOL   H25718073   5.683   4.964   6.604 -0.6902 -0.9715 -1.3411
   69MOL   H25818074   5.649   5.123   6.676 -0.3935  0.0762  0.3042
   69MOL   H25918075   5.643   5.071   6.372 -0.0957 -0.0892 -0.3050
   69MOL   H26018076   5.581   5.220   6.454 -2.0834 -1.8328 -1.2770
   69MOL   H26118077   5.749   5.177   6.459 -0.2258 -0.1923  0.6183
   69MOL   H26218078   5.474   4.866   6.743 -0.7899  0.4755  0.5351
   70MOL     C118079   3.326   5.178   1.471 -0.2627 -0.1415 -0.3558
   70MOL     C218080   3.181   5.229   1.490 -0.0403 -0.5250  0.1955
   70MOL     O318081   3.113   5.187   1.606 -0.2576  0.1201  0.4219
   70MOL     C418082   3.100   5.278   1.714 -0.1208 -0.0322 -0.1389
   70MOL     C518083   3.060   5.200   1.837 -0.0815  0.0656  0.4466
   70MOL     H618084   3.332   5.070   1.460  0.0500 -0.2885  1.0933
   70MOL     H718085   3.382   5.230   1.394 -1.3251  0.8429 -0.4852
   70MOL     H818086   3.177   5.338   1.486 -0.1977 -0.5968 -2.3116
   70MOL     H918087   3.040   5.367   1.696 -0.5583 -0.2501  0.2095
   70MOL    H1018088   3.196   5.310   1.753 -0.6936  1.1700  0.3050
   70MOL    H1118089   3.132   5.119   1.841  1.0916  1.0915  0.5479
   70MOL    H1218090   3.060   5.270   1.921  0.7121  1.8572 -1.0024
   70MOL    H1318091   2.964   5.149   1.828  0.8986 -1.8386  0.6737
   70MOL    H1418092   3.386   5.196   1.560  0.3147 -0.6769 -0.6389
   70MOL    C1518093   3.090   5.197   1.370 -0.7966 -0.2184  0.1931
   70MOL    C1618094   2.945   5.261   1.368 -0.2466 -0.0951  0.4151
   70MOL    O1718095   2.882   5.212   1.253 -0.0742  0.4611  0.2506
   70MOL    C1818096   2.823   5.086   1.253 -0.5363  0.3069 -0.0123
   70MOL    C1918097   2.730   5.088   1.130  0.1430  0.4819 -0.4424
   70MOL    H2018098   3.068   5.092   1.390  0.8664 -0.6944 -0.3504
   70MOL    H2118099   3.141   5.210   1.275 -0.1553  3.0125  0.9208
   70MOL    H2218100   2.889   5.223   1.454 -1.6841  0.1809 -0.3963
   70MOL    H2318101   2.777   5.042   1.342  0.0011  1.0453  0.6392
   70MOL    H2418102   2.911   5.025   1.230 -0.9794 -0.9420  1.4880
   70MOL    H2518103   2.684   4.991   1.110  1.8617 -0.3255 -0.6302
   70MOL    H2618104   2.768   5.136   1.040 -1.2835 -0.4382 -1.5595
   70MOL    H2718105   2.648   5.147   1.172 -3.1464 -2.5050 -2.3583
   70MOL    C2818106   2.948   5.414   1.349  0.4815 -0.1768  0.5267
   70MOL    C2918107   2.808   5.476   1.320 -0.3416 -0.5726 -0.9867
   70MOL    O3018108   2.835   5.609   1.299 -0.1870  0.6436 -0.3837
   70MOL    C3118109   2.833   5.634   1.160 -0.0105  0.1327  0.1705
   70MOL    C3218110   2.916   5.772   1.146  0.1575  0.5276  0.1663
   70MOL    H3318111   3.021   5.438   1.271 -0.5625 -0.7744 -0.6361
   70MOL    H3418112   2.995   5.457   1.438 -0.0986 -0.9413  1.2078
   70MOL    H3518113   2.775   5.425   1.230  0.9519 -1.3945 -1.0216
   70MOL    H3618114   2.731   5.647   1.123  0.0838 -0.4105 -0.2774
   70MOL    H3718115   2.888   5.565   1.096 -0.5664  0.2323 -0.4306
   70MOL    H3818116   3.017   5.750   1.181  0.1230  0.0024 -0.0525
   70MOL    H3918117   2.941   5.797   1.042 -1.5867  0.2340 -0.3358
   70MOL    H4018118   2.886   5.861   1.201  0.2213 -0.3501  1.6453
   70MOL    C4118119   2.709   5.458   1.431 -0.1987 -0.0608  0.0401
   70MOL    C4218120   2.562   5.489   1.398 -0.3417 -0.1293  0.2491
   70MOL    O4318121   2.523   5.422   1.285  0.3685 -0.2538  0.7843
   70MOL    C4418122   2.387   5.384   1.284 -0.0040 -0.9111 -0.5342
   70MOL    C4518123   2.357   5.301   1.163 -0.2913 -0.1969 -0.4331
   70MOL    H4618124   2.729   5.494   1.532  1.1000  0.6717 -0.4677
   70MOL    H4718125   2.715   5.355   1.464 -0.7710 -0.1090 -0.0075
   70MOL    H4818126   2.505   5.450   1.482  1.5766  2.8542  3.0758
   70MOL    H4918127   2.325   5.473   1.286 -1.1112 -1.6540 -1.5351
   70MOL    H5018128   2.355   5.322   1.367 -0.6654  1.5909  1.1414
   70MOL    H5118129   2.248   5.297   1.152 -0.0748 -0.0743 -2.7369
   70MOL    H5218130   2.373   5.354   1.069  2.1502  1.1155  0.6733
   70MOL    H5318131   2.411   5.207   1.161  0.2050  0.0382  1.2516
   70MOL    C5418132   2.534   5.640   1.393 -0.0077  0.2764 -0.1793
   70MOL    C5518133   2.562   5.715   1.527 -0.2715 -0.2697 -0.3053
   70MOL    O5618134   2.497   5.667   1.646  0.0864 -0.2298  0.4695
   70MOL    C5718135   2.567   5.568   1.724  0.5249  0.2157 -0.4608
   70MOL    C5818136   2.483   5.533   1.846 -0.4075 -0.2132  0.0435
   70MOL    H5918137   2.432   5.647   1.355 -0.8933 -1.8412  1.7472
   70MOL    H6018138   2.588   5.689   1.312  0.4265 -1.3234 -0.8759
   70MOL    H6118139   2.669   5.715   1.549 -0.1736 -0.2457 -0.7683
   70MOL    H6218140   2.662   5.606   1.760  1.4130  0.4193 -2.9191
   70MOL    H6318141   2.585   5.473   1.675  1.1120  0.8157 -1.4164
   70MOL    H6418142   2.541   5.477   1.919 -0.4287  0.1661  0.3572
   70MOL    H6518143   2.445   5.629   1.882 -0.2200  0.1393 -0.6939
   70MOL    H6618144   2.402   5.466   1.821  1.0825 -2.0994  0.2093
   70MOL    C6718145   2.526   5.861   1.517 -0.4251  0.1186 -0.8089
   70MOL    C6818146   2.545   5.951   1.634 -0.0574 -0.0425  0.0020
   70MOL    O6918147   2.502   6.076   1.589  0.5232  0.1589  0.0415
   70MOL    C7018148   2.405   6.129   1.676 -0.2850 -0.0823 -0.1094
   70MOL    C7118149   2.325   6.239   1.612 -0.2646  0.3908  0.3361
   70MOL    H7218150   2.421   5.859   1.489 -0.6331 -0.9903 -0.0201
   70MOL    H7318151   2.586   5.902   1.436  1.3690  0.5217  0.6710
   70MOL    H7418152   2.491   5.916   1.722 -1.1808  2.3682  0.3229
   70MOL    H7518153   2.452   6.174   1.763  0.9942 -0.6684 -0.4892
   70MOL    H7618154   2.329   6.056   1.706  1.8125 -1.4583  2.0479
   70MOL    H7718155   2.395   6.321   1.594 -0.4055  0.3076 -0.5700
   70MOL    H7818156   2.280   6.209   1.518  1.0679 -0.3899 -0.0615
   70MOL    H7918157   2.244   6.277   1.674 -1.4407 -0.1854 -0.8418
   70MOL    C8018158   2.692   5.969   1.672  0.2583  0.2042 -0.3314
   70MOL    C8118159   2.720   6.043   1.803 -0.4812  0.1764  0.7685
   70MOL    O8218160   2.867   6.049   1.822 -0.2603 -0.1999 -0.2243
   70MOL    C8318161   2.937   6.161   1.778 -0.3119 -0.0766  0.1775
   70MOL    C8418162   3.089   6.125   1.762  0.1505  0.3606  0.4020
   70MOL    H8518163   2.736   6.017   1.585 -3.0884  3.7376 -0.1770
   70MOL    H8618164   2.745   5.874   1.674 -1.2986 -0.6673  1.6423
   70MOL    H8718165   2.672   6.140   1.799 -2.3294 -0.7985 -4.1994
   70MOL    H8818166   2.928   6.240   1.853 -0.8553  1.5658 -1.5776
   70MOL    H8918167   2.902   6.192   1.679  0.7954 -1.5588 -0.7023
   70MOL    H9018168   3.100   6.061   1.674  1.3861 -1.4280  1.8214
   70MOL    H9118169   3.144   6.218   1.747  0.9776 -0.0400  0.8844
   70MOL    H9218170   3.141   6.081   1.847  1.3706  0.9803 -0.0014
   70MOL    C9318171   2.671   5.966   1.940 -0.3767 -0.8397  0.6050
   70MOL    C9418172   2.660   6.046   2.069 -0.3215 -0.1524  0.0320
   70MOL    O9518173   2.591   6.164   2.022  0.2884 -0.3418  0.6661
   70MOL    C9618174   2.504   6.228   2.113 -0.6876  0.5767  0.7132
   70MOL    C9718175   2.432   6.338   2.039 -0.2019 -0.2141 -0.6744
   70MOL    H9818176   2.742   5.888   1.967 -0.7943 -0.4110  3.0707
   70MOL    H9918177   2.576   5.916   1.923 -0.9899  0.0130  1.4181
   70MOL   H10018178   2.608   5.987   2.145  0.2931 -1.0990 -0.2703
   70MOL   H10118179   2.565   6.270   2.193 -3.3308  1.1740  2.4612
   70MOL   H10218180   2.432   6.164   2.164  0.9712 -0.4623  1.8119
   70MOL   H10318181   2.495   6.409   1.986 -0.4867 -0.2043 -1.0069
   70MOL   H10418182   2.363   6.293   1.967 -2.2549  0.0237  1.0990
   70MOL   H10518183   2.368   6.399   2.103  1.5601 -0.8671  1.7283
   70MOL   C10618184   2.788   6.087   2.134  0.1894  0.1211 -0.2670
   70MOL   C10718185   2.847   5.977   2.211  0.1444 -0.3297 -0.4727
   70MOL   O10818186   2.754   5.947   2.322  0.6647 -0.0646 -0.1070
   70MOL   C10918187   2.747   5.807   2.358  0.4303  0.2987  0.2796
   70MOL   C11018188   2.648   5.787   2.473  0.0216  0.4256 -0.8883
   70MOL   H11118189   2.776   6.173   2.200 -1.1951 -0.9010  0.8571
   70MOL   H11218190   2.855   6.118   2.054 -1.0713 -0.1574 -1.4556
   70MOL   H11318191   2.859   5.889   2.148 -1.0108 -1.8862  1.4176
   70MOL   H11418192   2.847   5.767   2.373  1.0286  1.2786 -1.0066
   70MOL   H11518193   2.697   5.760   2.274  0.1926  1.2908 -0.1429
   70MOL   H11618194   2.693   5.839   2.558 -2.0985  0.1731  0.4413
   70MOL   H11718195   2.552   5.831   2.445  0.3137  2.5429  1.2866
   70MOL   H11818196   2.638   5.683   2.505  0.5826  0.9378  1.0253
   70MOL   C11918197   2.993   6.015   2.267 -0.3594 -0.2128 -0.0197
   70MOL   C12018198   3.110   6.036   2.169 -0.0987  0.7180 -0.1219
   70MOL   O12118199   3.171   5.909   2.158  0.2138  0.4296  0.3358
   70MOL   C12218200   3.186   5.863   2.022 -0.3773  0.1379 -0.8843
   70MOL   C12318201   3.253   5.723   2.014 -0.1707  0.4525  0.5789
   70MOL   H12418202   3.016   5.931   2.331  0.4410  0.2025  0.2425
   70MOL   H12518203   2.975   6.104   2.327  1.2757  0.8829 -1.1151
   70MOL   H12618204   3.068   6.069   2.074  1.5260  2.1938 -0.3479
   70MOL   H12718205   3.250   5.922   1.957 -0.9241  1.2699 -0.4143
   70MOL   H12818206   3.091   5.852   1.970 -0.5387  1.6042 -0.9377
   70MOL   H12918207   3.191   5.654   2.071  0.3867  0.7343  1.5463
   70MOL   H13018208   3.260   5.697   1.908  0.5590  1.3477  0.4032
   70MOL   H13118209   3.353   5.742   2.053  1.0434 -2.0929 -1.0956
   70MOL   C13218210   3.220   6.143   2.210  0.2015 -0.5800 -0.1201
   70MOL   C13318211   3.169   6.291   2.242  0.5986 -0.3485 -0.3194
   70MOL   O13418212   3.104   6.309   2.371  0.2608  0.4873  0.0898
   70MOL   C13518213   3.188   6.295   2.479 -0.0609 -0.2415  0.4141
   70MOL   C13618214   3.128   6.342   2.609 -0.1439  0.2270 -0.0988
   70MOL   H13718215   3.303   6.153   2.141 -0.0205 -2.6570 -0.7294
   70MOL   H13818216   3.257   6.096   2.301 -1.3264 -0.4852  0.5803
   70MOL   H13918217   3.260   6.352   2.239 -0.4367  1.2217 -0.3413
   70MOL   H14018218   3.280   6.352   2.474 -0.9433  1.1820  0.0040
   70MOL   H14118219   3.216   6.190   2.471 -2.5757 -0.7737 -2.1102
   70MOL   H14218220   3.021   6.319   2.614 -0.6459  2.6313  1.5286
   70MOL   H14318221   3.176   6.304   2.699 -1.9011  1.6417  1.4950
   70MOL   H14418222   3.125   6.448   2.636  0.3889  0.3118 -0.3761
   70MOL   C14518223   3.077   6.334   2.126  0.3448  0.0069  0.4744
   70MOL   C14618224   3.062   6.486   2.085  0.1729 -0.1818  0.2707
   70MOL   O14718225   2.971   6.502   1.973 -0.4996 -0.4750 -0.0241
   70MOL   C14818226   2.831   6.492   2.003 -0.6635  0.2688  0.3691
   70MOL   C14918227   2.749   6.535   1.885  0.6672 -0.3357  0.5118
   70MOL   H15018228   2.980   6.289   2.142 -0.0321  1.0824  1.3035
   70MOL   H15118229   3.123   6.285   2.040 -2.4321 -1.1025 -0.4354
   70MOL   H15218230   3.015   6.542   2.166 -0.4120 -0.5006  0.1629
   70MOL   H15318231   2.801   6.556   2.087  0.4845 -0.8059  1.6188
   70MOL   H15418232   2.801   6.390   2.026  2.3254 -0.4006  1.5656
   70MOL   H15518233   2.788   6.481   1.799  0.9492  0.4248  0.1633
   70MOL   H15618234   2.641   6.520   1.886  1.0650 -3.6833 -0.3532
   70MOL   H15718235   2.764   6.642   1.870 -1.8503 -0.2557 -1.8383
   70MOL   C15818236   3.191   6.563   2.055  0.8298  0.5696 -0.4156
   70MOL   C15918237   3.273   6.506   1.933 -0.1720 -0.4885  0.1062
   70MOL   O16018238   3.386   6.444   1.984  0.3462  0.1386 -0.2485
   70MOL   C16118239   3.451   6.346   1.900  0.3095 -0.5667  0.5718
   70MOL   C16218240   3.571   6.287   1.970  0.4666 -0.1592 -0.0672
   70MOL   H16318241   3.258   6.549   2.140  0.7670 -0.1717 -0.4809
   70MOL   H16418242   3.169   6.669   2.040 -1.4616  0.5327  2.3103
   70MOL   H16518243   3.217   6.425   1.885 -0.3778 -0.8016  0.8704
   70MOL   H16618244   3.462   6.386   1.800 -2.9087 -1.5643 -0.2419
   70MOL   H16718245   3.384   6.262   1.887  0.1674 -1.1549  4.5324
   70MOL   H16818246   3.633   6.368   2.008 -0.8381  0.2979  1.1211
   70MOL   H16918247   3.540   6.217   2.047  1.1659 -0.7522 -0.3137
   70MOL   H17018248   3.636   6.236   1.899  0.9866  0.8704 -0.3425
   70MOL   C17118249   3.326   6.615   1.831 -0.2147  0.7131 -0.8198
   70MOL   C17218250   3.218   6.655   1.729  0.1211  0.0253 -0.5182
   70MOL   O17318251   3.223   6.566   1.618  0.4845 -0.2939 -0.3685
   70MOL   C17418252   3.102   6.521   1.560  0.0124  0.0176  0.0403
   70MOL   C17518253   3.134   6.431   1.441  0.0186  0.2466 -0.1121
   70MOL   H17618254   3.419   6.602   1.776 -0.6181  1.0745 -1.6047
   70MOL   H17718255   3.339   6.700   1.897 -0.7145  0.8950 -0.9522
   70MOL   H17818256   3.124   6.648   1.783  0.2551  0.0822 -0.2746
   70MOL   H17918257   3.032   6.604   1.545 -0.2850 -0.2988 -0.3258
   70MOL   H18018258   3.045   6.463   1.632  0.3910  1.0430  1.1809
   70MOL   H18118259   3.164   6.491   1.355  2.8769 -0.5583  0.2797
   70MOL   H18218260   3.210   6.354   1.456  0.8814  1.1082 -0.0831
   70MOL   H18318261   3.046   6.368   1.422  2.3473 -3.0228 -0.5878
   70MOL   C18418262   3.239   6.795   1.681  0.4264 -0.2474  0.3371
   70MOL   C18518263   3.201   6.906   1.779 -0.0632  0.2431 -0.4650
   70MOL   O18618264   3.068   6.873   1.828 -0.0375  0.1436 -0.2945
   70MOL   C18718265   3.027   6.931   1.952 -0.1824 -0.3408 -0.0004
   70MOL   C18818266   2.889   6.863   1.984  0.7554 -0.8546 -0.1695
   70MOL   H18918267   3.179   6.810   1.592 -0.1102  1.0087  0.9023
   70MOL   H19018268   3.336   6.802   1.632 -0.0065  1.1381 -0.3466
   70MOL   H19118269   3.269   6.913   1.864  0.4034  0.1225 -0.8244
   70MOL   H19218270   3.022   7.039   1.940  1.0011 -0.1084  1.4228
   70MOL   H19318271   3.102   6.899   2.024  0.1923 -0.5205 -0.4642
   70MOL   H19418272   2.860   6.898   2.084  0.0938 -1.4110 -0.1605
   70MOL   H19518273   2.809   6.895   1.917  0.8711  1.3567  0.7169
   70MOL   H19618274   2.904   6.756   1.969  0.5422 -0.5615 -2.6017
   70MOL   C19718275   3.203   7.050   1.715  0.2969 -0.0774  0.2671
   70MOL   C19818276   3.312   7.143   1.767  0.6907 -0.1858  0.3950
   70MOL   O19918277   3.430   7.063   1.769  0.7045 -0.1261  0.2102
   70MOL   C20018278   3.533   7.127   1.698  0.3494  0.0777 -0.3589
   70MOL   C20118279   3.664   7.060   1.739  0.0830  0.2222  0.4972
   70MOL   H20218280   3.104   7.097   1.719  1.1302  1.9003 -1.1867
   70MOL   H20318281   3.244   7.055   1.614 -0.1544 -0.2077  0.0767
   70MOL   H20418282   3.329   7.231   1.705 -1.5511 -0.0098  0.0149
   70MOL   H20518283   3.544   7.234   1.718 -1.5022  0.2402 -0.1833
   70MOL   H20618284   3.525   7.108   1.591 -0.7474 -3.8380  0.3356
   70MOL   H20718285   3.744   7.109   1.684 -0.2766  0.3677  0.1026
   70MOL   H20818286   3.684   7.066   1.846  0.7425  0.4371  0.3636
   70MOL   H20918287   3.659   6.953   1.718  2.0166  0.6707 -2.6167
   70MOL   C21018288   3.291   7.196   1.913 -0.1824 -0.0178  0.3576
   70MOL   C21118289   3.378   7.321   1.951 -0.0165 -0.3036  0.1964
   70MOL   O21218290   3.423   7.314   2.088 -0.0561 -0.1768  0.1963
   70MOL   C21318291   3.501   7.210   2.126  0.8529  0.3157  0.0118
   70MOL   C21418292   3.555   7.248   2.257  0.1477 -0.1425 -0.4102
   70MOL   H21518293   3.314   7.116   1.984  1.8911 -0.8777 -1.2393
   70MOL   H21618294   3.189   7.231   1.932  0.5856  3.1003 -0.9045
   70MOL   H21718295   3.473   7.311   1.899 -0.8344 -1.8212 -1.0733
   70MOL   H21818296   3.586   7.195   2.059 -0.5054 -0.7754 -1.4981
   70MOL   H21918297   3.452   7.113   2.132  2.1307 -0.2526  1.6776
   70MOL   H22018298   3.479   7.262   2.334 -1.4211  0.3473 -1.9973
   70MOL   H22118299   3.619   7.171   2.299  1.2830  0.7002 -0.5891
   70MOL   H22218300   3.622   7.332   2.242  1.6836 -1.4669 -1.1180
   70MOL   C22318301   3.303   7.455   1.911 -0.0571 -0.8093  0.2464
   70MOL   C22418302   3.381   7.578   1.945 -0.2914  0.3651 -0.0051
   70MOL   O22518303   3.303   7.695   1.927 -0.1371  0.8577 -0.0137
   70MOL   C22618304   3.250   7.744   2.055  0.2516 -0.5667  0.5037
   70MOL   C22718305   3.157   0.023   2.019  0.4247 -0.3927 -0.4680
   70MOL   H22818306   3.205   7.449   1.958  0.1689 -0.2613  0.7819
   70MOL   H22918307   3.274   7.452   1.806 -1.3119  0.0086  0.5557
   70MOL   H23018308   3.419   7.573   2.047 -0.2591 -3.4728 -0.1339
   70MOL   H23118309   3.330   7.779   2.121 -0.7668  0.3935  1.2263
   70MOL   H23218310   3.189   7.674   2.112  0.3648  0.4894  1.9463
   70MOL   H23318311   3.109   0.071   2.104  0.9786 -0.3725 -0.1636
   70MOL   H23418312   3.230   0.085   1.968  0.4243  0.8373  0.9982
   70MOL   H23518313   3.072   0.000   1.955 -0.1860  1.5677 -0.3882
   70MOL   C23618314   3.511   7.594   1.868 -0.6223 -0.2986 -0.7998
   70MOL   C23718315   3.628   7.645   1.954  0.3183 -0.2637  0.0653
   70MOL   O23818316   3.713   7.722   1.874  0.1345 -0.0302 -0.6114
   70MOL   C23918317   3.708   0.019   1.904 -0.4247  0.3044  0.1106
   70MOL   C24018318   3.771   0.061   2.032 -0.0064 -0.1338 -0.0984
   70MOL   H24118319   3.497   7.667   1.788 -0.6968 -0.1285 -0.6340
   70MOL   H24218320   3.556   7.505   1.826  2.3043  0.0833  1.3537
   70MOL   H24318321   3.583   7.705   2.033 -0.1696  0.5913 -0.8519
   70MOL   H24418322   3.607   0.059   1.900 -0.0821  1.1561 -0.2920
   70MOL   H24518323   3.756   0.070   1.820 -3.4530  1.9285 -0.7093
   70MOL   H24618324   3.765   0.169   2.048 -1.4567 -0.1575 -0.3577
   70MOL   H24718325   3.716   0.011   2.112 -2.5514 -1.2324 -2.4226
   70MOL   H24818326   3.873   0.025   2.041 -0.4406 -1.2152  0.7101
   70MOL   C24918327   3.707   7.521   2.014 -0.1586 -0.2076 -0.1525
   70MOL   C25018328   3.803   7.561   2.124 -0.3048  0.2423  0.4618
   70MOL   O25118329   3.840   7.446   2.198  0.0438  0.3709  0.2360
   70MOL   C25218330   3.951   7.480   2.279 -0.2418  0.1232 -0.3916
   70MOL   C25318331   3.995   7.363   2.360 -0.2898  0.3030 -0.5824
   70MOL   H25418332   3.773   7.482   1.937 -0.5799 -0.8135 -0.2071
   70MOL   H25518333   3.638   7.439   2.030  0.3013 -0.3514  1.1620
   70MOL   H25618334   3.882   7.621   2.079 -1.2996  0.5116 -0.9671
   70MOL   H25718335   3.917   7.566   2.336 -0.2944  0.7614 -1.3760
   70MOL   H25818336   4.032   7.512   2.213  0.0130  1.1443  0.4112
   70MOL   H25918337   3.908   7.317   2.407 -0.0802  0.7659  0.2500
   70MOL   H26018338   4.039   7.285   2.297 -0.6153 -2.2414  2.2393
   70MOL   H26118339   4.067   7.388   2.438  1.7562 -0.2911 -2.2391
   70MOL   H26218340   3.739   7.627   2.183  0.9567  2.3893 -0.5173
   71MOL     C118341   2.164   0.951   5.202 -0.0351  0.9897  0.1621
   71MOL     C218342   2.085   0.840   5.293  0.4747  0.7129 -0.0049
   71MOL     O318343   2.173   0.729   5.318  0.0476 -0.3324 -0.1538
   71MOL     C418344   2.275   0.739   5.418  0.0384  0.0585 -0.2807
   71MOL     C518345   2.383   0.636   5.403 -0.3421  0.0049  0.1179
   71MOL     H618346   2.108   1.042   5.181 -1.4690  0.9574  3.5674
   71MOL     H718347   2.256   0.985   5.248  0.4860  0.8662 -0.7731
   71MOL     H818348   2.064   0.882   5.391 -0.1098  1.1576 -0.3132
   71MOL     H918349   2.225   0.741   5.515  2.3204 -0.4970  0.9403
   71MOL    H1018350   2.319   0.838   5.411  1.0964 -0.4320 -0.6128
   71MOL    H1118351   2.460   0.638   5.480  0.7471 -2.4371 -0.8347
   71MOL    H1218352   2.342   0.538   5.380  0.7179 -0.2045 -0.9446
   71MOL    H1318353   2.434   0.667   5.312 -0.9434 -0.9068 -0.5420
   71MOL    H1418354   2.173   0.910   5.101  0.4594 -0.5919  0.8323
   71MOL    C1518355   1.958   0.781   5.221  0.1196 -0.0995 -0.0265
   71MOL    C1618356   1.880   0.674   5.301 -0.3578 -0.2396 -1.1034
   71MOL    O1718357   1.781   0.621   5.210 -0.3745 -0.2051 -0.0501
   71MOL    C1818358   1.754   0.483   5.200  0.5842 -0.2159 -0.4220
   71MOL    C1918359   1.661   0.420   5.309 -0.3048 -0.3714  0.3110
   71MOL    H2018360   1.984   0.731   5.128  0.2195  0.1473 -0.1291
   71MOL    H2118361   1.886   0.860   5.198 -0.6520 -0.5256  0.8745
   71MOL    H2218362   1.949   0.592   5.322  0.3098  0.5152 -0.3563
   71MOL    H2318363   1.850   0.431   5.192 -0.1812 -1.5381 -1.3321
   71MOL    H2418364   1.708   0.476   5.101 -1.3597  3.3290  0.1613
   71MOL    H2518365   1.634   0.321   5.272  0.0782  0.0982 -1.2424
   71MOL    H2618366   1.571   0.477   5.333 -1.7280 -2.0019 -0.9919
   71MOL    H2718367   1.724   0.398   5.395  0.8248  3.2212  0.4758
   71MOL    C2818368   1.818   0.726   5.435 -0.2858  0.4666 -0.1074
   71MOL    C2918369   1.707   0.828   5.436  0.6604  0.1956  0.0107
   71MOL    O3018370   1.761   0.952   5.388 -0.3397  0.0834 -0.2956
   71MOL    C3118371   1.671   1.024   5.306  0.3849 -0.5533  0.3038
   71MOL    C3218372   1.735   1.159   5.280  0.9054  0.5133  0.0560
   71MOL    H3318373   1.891   0.774   5.501 -0.0382 -0.2645  0.1576
   71MOL    H3418374   1.787   0.640   5.493  1.5648 -0.6145 -0.6935
   71MOL    H3518375   1.629   0.802   5.365 -0.2789 -0.4641  1.2668
   71MOL    H3618376   1.572   1.023   5.351 -0.7531 -0.7541 -2.0913
   71MOL    H3718377   1.651   0.965   5.216  1.9302 -0.4709 -0.1051
   71MOL    H3818378   1.686   1.210   5.197  1.0348  1.3937  0.5169
   71MOL    H3918379   1.731   1.219   5.371  1.1659  2.7414 -1.3547
   71MOL    H4018380   1.841   1.152   5.256  0.6412  2.4690 -1.8539
   71MOL    C4118381   1.628   0.845   5.568 -0.4150  0.1092  1.0237
   71MOL    C4218382   1.520   0.731   5.578 -0.7537 -0.6421 -0.6222
   71MOL    O4318383   1.415   0.778   5.495 -0.9773  0.3972  0.1691
   71MOL    C4418384   1.353   0.674   5.425  0.4070 -0.5640  0.1302
   71MOL    C4518385   1.381   0.680   5.278 -0.0948 -0.0141  0.3376
   71MOL    H4618386   1.584   0.945   5.571 -1.3320 -0.3016  1.4348
   71MOL    H4718387   1.695   0.838   5.654 -1.7739 -0.6407  2.0380
   71MOL    H4818388   1.567   0.634   5.563 -1.7556 -1.3211  0.5783
   71MOL    H4918389   1.246   0.670   5.447 -0.2186 -3.2415 -3.0795
   71MOL    H5018390   1.390   0.577   5.457  1.3806 -0.1213  0.3613
   71MOL    H5118391   1.338   0.596   5.223 -0.6345 -0.0739  0.8537
   71MOL    H5218392   1.330   0.763   5.229  1.4024 -0.1228 -1.4931
   71MOL    H5318393   1.487   0.682   5.251 -0.5827 -0.9106 -1.7533
   71MOL    C5418394   1.458   0.714   5.714  0.3380 -0.0459  0.3884
   71MOL    C5518395   1.546   0.651   5.821  0.1070 -0.2647 -0.0855
   71MOL    O5618396   1.578   0.522   5.771 -0.3241  0.2403 -0.7468
   71MOL    C5718397   1.678   0.449   5.838  0.1457  0.7895 -0.3251
   71MOL    C5818398   1.702   0.321   5.752  0.1125  0.4875 -0.0454
   71MOL    H5918399   1.365   0.659   5.700  0.9817 -0.6558 -1.6026
   71MOL    H6018400   1.436   0.819   5.736  0.7757  0.4296 -1.3395
   71MOL    H6118401   1.636   0.713   5.824 -0.7817  1.2511 -2.4265
   71MOL    H6218402   1.646   0.433   5.941 -0.7534 -1.4304 -0.9380
   71MOL    H6318403   1.777   0.496   5.837  0.1726  0.8227  1.7517
   71MOL    H6418404   1.750   0.340   5.656  0.0294 -1.3619 -0.4690
   71MOL    H6518405   1.780   0.258   5.795  1.9883  2.6232 -0.2384
   71MOL    H6618406   1.606   0.273   5.738  0.6453  0.2934 -3.3536
   71MOL    C6718407   1.482   0.658   5.966 -0.3108 -0.0354 -0.2401
   71MOL    C6818408   1.458   0.802   6.011  0.3243  0.1473 -0.1350
   71MOL    O6918409   1.585   0.867   6.000  0.3709  0.3873  0.3181
   71MOL    C7018410   1.591   0.991   5.932 -0.1535 -0.6642 -0.6209
   71MOL    C7118411   1.724   1.071   5.953 -0.5332 -0.4078  0.3651
   71MOL    H7218412   1.546   0.617   6.044  0.2980 -2.3607 -1.8905
   71MOL    H7318413   1.384   0.612   5.977 -0.4214  0.6793  1.9673
   71MOL    H7418414   1.391   0.860   5.948  0.1958  0.4134  0.2398
   71MOL    H7518415   1.502   1.042   5.971 -0.4281 -0.4164 -1.5491
   71MOL    H7618416   1.558   0.975   5.829 -0.1994  0.5751 -0.8031
   71MOL    H7718417   1.801   1.012   6.003  0.3133  0.7934  0.4870
   71MOL    H7818418   1.752   1.081   5.849 -0.1040  0.7204  0.5891
   71MOL    H7918419   1.712   1.173   5.988 -0.5583  1.0134 -3.5507
   71MOL    C8018420   1.405   0.812   6.165  0.0842  0.5887  0.0519
   71MOL    C8118421   1.248   0.835   6.169  1.4969  0.0681  0.3992
   71MOL    O8218422   1.221   0.975   6.156  0.2772  0.4896  0.4140
   71MOL    C8318423   1.166   1.014   6.036  0.4725  0.0830  0.2393
   71MOL    C8418424   1.124   1.156   6.042  0.1269  0.3401 -0.3407
   71MOL    H8518425   1.462   0.891   6.214  1.4305 -0.7432  0.6708
   71MOL    H8618426   1.440   0.736   6.235 -0.5356  0.0090 -0.2624
   71MOL    H8718427   1.200   0.770   6.096  0.8023  1.5394 -0.4911
   71MOL    H8818428   1.084   0.954   5.997  1.9050 -1.9712  0.3281
   71MOL    H8918429   1.233   1.007   5.950 -0.6575 -0.5938 -0.6055
   71MOL    H9018430   1.036   1.168   6.106 -0.2799 -0.1062 -0.8117
   71MOL    H9118431   1.204   1.223   6.073  1.7261 -1.3379 -0.7604
   71MOL    H9218432   1.093   1.188   5.942 -0.2323 -0.4103 -0.4679
   71MOL    C9318433   1.184   0.780   6.302  0.3301  0.1805  0.8761
   71MOL    C9418434   1.029   0.760   6.298  0.7757 -0.3152 -0.6446
   71MOL    O9518435   0.986   0.704   6.173  0.3864 -0.3454  0.3447
   71MOL    C9618436   0.999   0.564   6.152  0.0998 -0.4564 -0.4431
   71MOL    C9718437   0.911   0.528   6.036 -0.2475  0.1995  0.1478
   71MOL    H9818438   1.206   0.842   6.389  0.9482  0.4092  0.5554
   71MOL    H9918439   1.233   0.684   6.323 -0.7855 -1.1986 -2.5937
   71MOL   H10018440   1.005   0.693   6.380 -0.8185  2.0228  0.8404
   71MOL   H10118441   0.969   0.502   6.237 -0.2271 -1.3638 -1.2203
   71MOL   H10218442   1.105   0.543   6.142 -0.0803 -2.6759  1.8677
   71MOL   H10318443   0.928   0.427   5.998  0.0742  0.8608 -1.4918
   71MOL   H10418444   0.808   0.543   6.070 -0.3212  0.4708 -0.2056
   71MOL   H10518445   0.935   0.601   5.959  1.5020 -1.3045 -0.7889
   71MOL   C10618446   0.956   0.898   6.316  0.3588 -0.0533 -0.3876
   71MOL   C10718447   0.799   0.878   6.332 -0.6035 -0.5803 -0.6791
   71MOL   O10818448   0.736   1.000   6.302  0.2131 -0.0421 -0.4282
   71MOL   C10918449   0.669   1.003   6.181 -0.3203  0.1430  0.1270
   71MOL   C11018450   0.731   0.950   6.055 -0.7539 -0.0754  0.3442
   71MOL   H11118451   0.971   0.968   6.233 -0.2574  1.1112  0.4666
   71MOL   H11218452   1.012   0.936   6.402 -1.9334 -1.5361  1.8139
   71MOL   H11318453   0.763   0.793   6.274 -1.8242 -0.5552  0.0283
   71MOL   H11418454   0.634   1.106   6.169 -2.2400 -0.2001  2.2098
   71MOL   H11518455   0.581   0.941   6.198  0.5531 -1.2070 -0.2674
   71MOL   H11618456   0.718   0.842   6.043 -2.9844  0.5055 -2.8093
   71MOL   H11718457   0.710   1.003   5.963 -1.5323  1.2627  1.2841
   71MOL   H11818458   0.840   0.957   6.065 -0.5411 -0.7923 -1.3215
   71MOL   C11918459   0.777   0.851   6.480  0.6237 -0.5925 -0.5087
   71MOL   C12018460   0.629   0.844   6.531 -0.4313  0.5775  0.0486
   71MOL   O12118461   0.614   0.848   6.669  0.8021 -0.4509  0.2439
   71MOL   C12218462   0.669   0.950   6.742  0.5568  0.4764 -0.0117
   71MOL   C12318463   0.609   0.945   6.876  0.6432 -0.2148 -0.5243
   71MOL   H12418464   0.830   0.928   6.537 -1.5839  0.7469 -0.2017
   71MOL   H12518465   0.825   0.759   6.512 -0.9473 -0.6445  1.8485
   71MOL   H12618466   0.577   0.934   6.498 -2.4021  0.3257  2.3745
   71MOL   H12718467   0.650   1.047   6.696  1.4448  0.8795  0.4398
   71MOL   H12818468   0.778   0.940   6.748  0.4629 -0.5485  0.1443
   71MOL   H12918469   0.501   0.955   6.875  0.6268 -0.3500 -0.2292
   71MOL   H13018470   0.633   0.855   6.933 -1.0863 -1.6164 -1.9340
   71MOL   H13118471   0.639   1.030   6.937  0.7466  0.2183 -1.1681
   71MOL   C13218472   0.555   0.715   6.478 -0.1987 -0.0572  0.6836
   71MOL   C13318473   0.592   0.583   6.554  0.5428  0.1581  0.0460
   71MOL   O13418474   0.720   0.542   6.518 -1.2097 -0.1256  0.2916
   71MOL   C13518475   0.781   0.428   6.582  0.5111  0.3874 -0.2341
   71MOL   C13618476   0.926   0.426   6.534 -0.0844 -0.4749  0.1903
   71MOL   H13718477   0.580   0.713   6.372 -0.0948 -0.3343  0.7133
   71MOL   H13818478   0.451   0.730   6.505 -0.1245  2.5203 -0.2505
   71MOL   H13918479   0.604   0.589   6.663 -2.9411  2.2506  0.3761
   71MOL   H14018480   0.723   0.342   6.550  0.0307  0.1705  1.1771
   71MOL   H14118481   0.774   0.451   6.688 -1.9475  0.1147 -0.3142
   71MOL   H14218482   0.972   0.328   6.551 -1.3261 -1.3496 -1.3982
   71MOL   H14318483   0.942   0.438   6.427  0.2404  0.0559  0.3010
   71MOL   H14418484   0.984   0.501   6.588  1.7833 -1.1977 -0.7676
   71MOL   C14518485   0.486   0.470   6.531  0.2846  0.5094 -0.0020
   71MOL   C14618486   0.485   0.392   6.395  0.8073 -0.3695  0.3678
   71MOL   O14718487   0.445   0.489   6.297  0.1385 -0.3033  0.0823
   71MOL   C14818488   0.529   0.494   6.183 -0.1263 -0.4085 -0.0836
   71MOL   C14918489   0.507   0.610   6.079 -0.0667 -0.0519  0.4237
   71MOL   H15018490   0.388   0.516   6.542  0.1425  0.5331 -1.2825
   71MOL   H15118491   0.498   0.402   6.615 -1.6898 -0.1111 -0.1941
   71MOL   H15218492   0.584   0.349   6.380  0.1015 -1.6147 -0.8874
   71MOL   H15318493   0.521   0.398   6.132  1.4337  0.0242 -1.1535
   71MOL   H15418494   0.632   0.500   6.218 -0.5452  1.5255  0.8380
   71MOL   H15518495   0.566   0.598   5.988  0.7725 -0.0311  0.9608
   71MOL   H15618496   0.405   0.617   6.042 -0.2218 -0.3349  0.7961
   71MOL   H15718497   0.535   0.708   6.119  1.6405  0.1643 -1.2369
   71MOL   C15818498   0.396   0.270   6.395  0.3175  0.3497 -0.1215
   71MOL   C15918499   0.432   0.166   6.496  1.0455  0.5429 -0.2171
   71MOL   O16018500   0.556   0.121   6.452 -0.8473 -0.3184 -0.6177
   71MOL   C16118501   0.633   0.051   6.552 -0.0877  0.3171  0.0414
   71MOL   C16218502   0.775   0.023   6.501  0.3846 -0.2912  0.1889
   71MOL   H16318503   0.394   0.218   6.300  1.6306 -2.1062  1.1364
   71MOL   H16418504   0.290   0.291   6.415  0.2019  0.7882 -1.1536
   71MOL   H16518505   0.441   0.211   6.595 -1.4105 -0.8032  0.6417
   71MOL   H16618506   0.573   7.804   6.561 -0.5458  0.2871 -2.9135
   71MOL   H16718507   0.639   0.107   6.646 -1.3408 -2.3573  1.7570
   71MOL   H16818508   0.842   7.825   6.577  0.5603 -0.9349 -0.3142
   71MOL   H16918509   0.777   7.796   6.418  0.6433 -0.7880  0.6110
   71MOL   H17018510   0.824   0.110   6.458 -1.0488  0.0756 -0.7032
   71MOL   C17118511   0.333   0.048   6.499  0.8540 -0.4726  0.6351
   71MOL   C17218512   0.183   0.078   6.553 -0.5369 -0.5368 -0.6825
   71MOL   O17318513   0.198   0.156   6.669 -0.1740  0.3439  0.5642
   71MOL   C17418514   0.128   0.283   6.672  0.5874  0.1380 -0.4623
   71MOL   C17518515   0.177   0.354   6.793  0.1367  0.1885 -0.3511
   71MOL   H17618516   0.361   7.817   6.572 -1.0741 -1.1970  0.6499
   71MOL   H17718517   0.321   7.831   6.409  0.5883  1.3983 -0.6322
   71MOL   H17818518   0.131   0.114   6.464  0.6241 -0.9675 -1.5606
   71MOL   H17918519   0.021   0.265   6.670  0.3557  1.2961  0.6536
   71MOL   H18018520   0.139   0.343   6.582 -0.2133  0.5440 -0.2895
   71MOL   H18118521   0.108   0.429   6.833 -0.3040 -0.4953  0.1777
   71MOL   H18218522   0.188   0.280   6.872  0.5820  0.4395 -0.1776
   71MOL   H18318523   0.267   0.411   6.771 -0.3089  0.6298 -1.0451
   71MOL   C18418524   0.110   7.792   6.591 -0.3739 -0.2222 -0.0325
   71MOL   C18518525   0.057   7.708   6.472  0.5550 -0.6492 -0.3593
   71MOL   O18618526   7.782   7.753   6.406  0.4934  0.1925  0.0650
   71MOL   C18718527   7.782   7.736   6.266  0.2979  0.9761 -0.8831
   71MOL   C18818528   7.665   7.813   6.200 -0.8026  0.7156 -0.1632
   71MOL   H18918529   0.030   7.812   6.661  0.6397  0.8138  0.8502
   71MOL   H19018530   0.167   7.735   6.664  1.0034  1.3281  0.1191
   71MOL   H19118531   0.138   7.708   6.399  1.8967 -0.7496  1.1025
   71MOL   H19218532   7.757   7.630   6.253 -0.2896  1.0235 -0.1359
   71MOL   H19318533   0.035   7.753   6.217  0.6594 -0.8425 -0.8378
   71MOL   H19418534   7.657   7.779   6.097  1.6088  4.6005 -1.7507
   71MOL   H19518535   7.572   7.789   6.250 -1.5613  0.5750 -1.6176
   71MOL   H19618536   7.684   0.077   6.194 -0.3783  0.5954 -1.0473
   71MOL   C19718537   0.033   7.557   6.498  0.3964 -0.1518  0.5691
   71MOL   C19818538   0.140   7.476   6.585  0.2992 -0.1401  0.0929
   71MOL   O19918539   0.263   7.476   6.518 -0.0824 -0.4051 -0.1355
   71MOL   C20018540   0.387   7.475   6.595 -0.6722  0.2463  0.4006
   71MOL   C20118541   0.499   7.493   6.488  0.7676  0.5642  0.3852
   71MOL   H20218542   0.017   7.502   6.406  0.3868  2.8050 -1.2562
   71MOL   H20318543   7.780   7.560   6.548  0.7993  0.6958  1.3094
   71MOL   H20418544   0.147   7.518   6.685 -1.3844  1.6511 -0.5194
   71MOL   H20518545   0.389   7.377   6.643 -0.9904 -0.4049 -0.8826
   71MOL   H20618546   0.381   7.550   6.674 -0.2530  1.8536 -1.0548
   71MOL   H20718547   0.595   7.477   6.538 -0.3841  0.0795  2.4870
   71MOL   H20818548   0.481   7.422   6.407  0.8576  0.9082  0.0615
   71MOL   H20918549   0.506   7.592   6.445  0.3352  0.6245  0.4513
   71MOL   C21018550   0.094   7.326   6.596  0.0777 -0.2385  0.7556
   71MOL   C21118551   7.810   7.303   6.677  0.2106 -0.9168  0.2163
   71MOL   O21218552   0.007   7.307   6.816  0.0835  0.7514  0.7276
   71MOL   C21318553   7.751   7.353   6.910  0.0257  0.3551  0.5263
   71MOL   C21418554   7.754   7.505   6.915 -0.9707 -0.6932  0.0547
   71MOL   H21518555   0.169   7.260   6.639  0.9525 -0.3057 -0.8344
   71MOL   H21618556   0.080   7.298   6.492  0.7379  0.9219  0.3372
   71MOL   H21718557   7.745   7.389   6.661 -0.0085 -1.1754 -0.2699
   71MOL   H21818558   7.787   7.332   7.011  0.8040  0.1995  0.2149
   71MOL   H21918559   7.654   7.308   6.887  0.8589 -1.1063 -0.1658
   71MOL   H22018560   0.010   7.532   6.949 -0.4232 -1.1631 -1.1537
   71MOL   H22118561   7.714   7.546   6.822  0.7921 -0.5084 -0.6436
   71MOL   H22218562   7.685   7.540   6.992 -2.6292  1.7823 -2.4313
   71MOL   C22318563   7.745   7.159   6.661  0.5316 -0.0546  0.3778
   71MOL   C22418564   7.689   7.145   6.518 -0.3423  0.1489  0.1002
   71MOL   O22518565   7.597   7.259   6.509  0.0225  0.3295  1.0420
   71MOL   C22618566   7.580   7.299   6.375  0.0077  0.1751  0.0041
   71MOL   C22718567   7.470   7.400   6.364  0.6537 -0.0875 -0.2129
   71MOL   H22818568   7.674   7.134   6.741  0.0282 -0.2533 -0.1264
   71MOL   H22918569   7.828   7.090   6.676  1.1279  0.9959  2.0111
   71MOL   H23018570   7.762   7.163   6.440  1.0440 -0.7470  1.1767
   71MOL   H23118571   7.562   7.217   6.306  0.7241 -1.6736  1.9650
   71MOL   H23218572   7.665   7.352   6.331  0.2378  0.6582  1.0340
   71MOL   H23318573   7.378   7.355   6.401  0.3786 -0.0349 -0.8362
   71MOL   H23418574   7.497   7.488   6.422 -0.1824  0.7530 -1.0936
   71MOL   H23518575   7.449   7.428   6.261 -0.2769  0.0558  0.0144
   71MOL   C23618576   7.615   7.017   6.494 -0.1549  0.3518  0.3054
   71MOL   C23718577   7.695   6.892   6.486  0.3626  0.9658 -0.3295
   71MOL   O23818578   7.761   6.879   6.363  0.8596 -0.2265  0.3700
   71MOL   C23918579   0.055   6.885   6.370  0.2884  0.5176 -0.2576
   71MOL   C24018580   0.112   6.850   6.235  0.6434 -0.7015  0.0548
   71MOL   H24118581   7.554   7.017   6.404  0.2556  0.2828  0.0246
   71MOL   H24218582   7.540   7.007   6.573  0.0894 -1.9178  0.2858
   71MOL   H24318583   7.771   6.891   6.565 -0.2625  0.6739  0.2764
   71MOL   H24418584   0.098   6.821   6.447 -2.8179  0.5072  1.5460
   71MOL   H24518585   0.090   6.985   6.393 -0.9519  0.6523  1.1226
   71MOL   H24618586   0.082   6.919   6.156 -1.7489 -0.9167  0.7603
   71MOL   H24718587   0.221   6.858   6.233  0.5935 -0.0673 -0.5419
   71MOL   H24818588   0.091   6.748   6.202 -2.5351  0.1046 -0.5619
   71MOL   C24918589   7.606   6.764   6.518 -0.6202  0.0689 -0.4840
   71MOL   C25018590   7.680   6.632   6.525 -0.5979 -0.6755  0.1936
   71MOL   O25118591   7.577   6.538   6.546  0.0318 -0.0868 -0.1418
   71MOL   C25218592   7.621   6.409   6.547  0.1930  0.1599  0.1188
   71MOL   C25318593   7.505   6.307   6.559  0.2300  0.0978 -0.1873
   71MOL   H25418594   7.523   6.750   6.449  0.0021 -1.3531 -0.9731
   71MOL   H25518595   7.552   6.783   6.610  0.1749  3.0925 -0.6092
   71MOL   H25618596   7.741   6.612   6.437  0.8869 -0.0508  1.0441
   71MOL   H25718597   7.700   6.392   6.621  1.6579  3.2774 -0.6369
   71MOL   H25818598   7.683   6.393   6.459  0.3157  3.6077 -0.4931
   71MOL   H25918599   7.446   6.330   6.648 -0.8828 -1.5058 -0.4727
   71MOL   H26018600   7.429   6.312   6.480 -0.6598  2.1450  0.7607
   71MOL   H26118601   7.534   6.202   6.565 -0.8713 -0.1229  1.6800
   71MOL   H26218602   7.754   6.638   6.606 -1.1012 -0.7983  0.6634
   72MOL     C118603   1.127   5.148   1.200 -0.0792  0.5335 -0.4891
   72MOL     C218604   1.199   5.284   1.211  0.2589 -0.0285  0.4804
   72MOL     O318605   1.325   5.282   1.143  0.0097  0.5359 -0.0967
   72MOL     C418606   1.328   5.351   1.025  0.4852  0.1817  0.5648
   72MOL     C518607   1.462   5.346   0.951  0.3251  0.1616 -0.1850
   72MOL     H618608   1.040   5.165   1.264  0.0652 -1.6164  0.3023
   72MOL     H718609   1.100   5.121   1.098 -3.1389 -0.7511  0.5938
   72MOL     H818610   1.136   5.365   1.174  1.3394  0.5175 -0.1938
   72MOL     H918611   1.293   5.454   1.025  0.9934  0.3672  2.8043
   72MOL    H1018612   1.258   5.303   0.957 -1.8646  2.6193  1.1646
   72MOL    H1118613   1.443   5.387   0.852 -2.7741 -3.9513 -1.4328
   72MOL    H1218614   1.537   5.402   1.007 -0.3106  0.4636  0.3814
   72MOL    H1318615   1.484   5.240   0.959 -1.8254 -0.2388  1.0012
   72MOL    H1418616   1.188   5.072   1.247 -0.3210  1.3661  1.2121
   72MOL    C1518617   1.218   5.319   1.360 -0.1889 -0.1277  0.4093
   72MOL    C1618618   1.255   5.464   1.399 -0.2695 -0.8681 -0.4647
   72MOL    O1718619   1.305   5.452   1.537  0.3765 -0.2149 -0.0842
   72MOL    C1818620   1.423   5.526   1.566 -0.5478  0.1598 -0.2809
   72MOL    C1918621   1.451   5.499   1.719 -0.3372  0.0264 -0.2918
   72MOL    H2018622   1.304   5.257   1.385 -0.7632 -1.0739  0.0773
   72MOL    H2118623   1.134   5.283   1.419 -0.2071 -1.0428 -0.1594
   72MOL    H2218624   1.332   5.505   1.334 -1.4237 -2.0536 -2.6379
   72MOL    H2318625   1.412   5.633   1.549 -4.7769 -0.0211  0.5493
   72MOL    H2418626   1.513   5.499   1.512 -0.3199 -2.3033  1.2641
   72MOL    H2518627   1.355   5.518   1.768 -0.9118  1.0380 -1.7845
   72MOL    H2618628   1.534   5.558   1.760 -1.2638 -0.0283  1.7269
   72MOL    H2718629   1.477   5.394   1.728 -0.7160 -0.0914 -0.5702
   72MOL    C2818630   1.125   5.544   1.392  0.0580 -0.5391 -0.6979
   72MOL    C2918631   1.135   5.693   1.434 -0.1250  0.8177  0.4073
   72MOL    O3018632   0.998   5.743   1.439 -0.8031 -0.3768  0.1678
   72MOL    C3118633   0.973   5.826   1.550 -0.6702 -0.3500  0.2797
   72MOL    C3218634   0.934   5.742   1.670 -0.0350 -0.4596 -0.3462
   72MOL    H3318635   1.063   5.496   1.468  1.3942 -0.2541  0.5904
   72MOL    H3418636   1.066   5.540   1.301  0.1602  0.5724 -0.8143
   72MOL    H3518637   1.168   5.700   1.538 -0.6553 -1.3697  0.7341
   72MOL    H3618638   0.886   5.892   1.539 -1.6572 -1.1423  3.1218
   72MOL    H3718639   1.055   5.889   1.584  0.4676 -2.0558  0.7089
   72MOL    H3818640   0.842   5.685   1.664  0.3907 -1.0357 -1.5173
   72MOL    H3918641   1.016   5.674   1.692  1.2308  1.3955  0.8157
   72MOL    H4018642   0.940   5.810   1.755  1.0519 -1.4822  0.4074
   72MOL    C4118643   1.238   5.779   1.351 -0.6742 -0.2734 -0.6584
   72MOL    C4218644   1.243   5.768   1.194 -0.1483  0.1515  0.0989
   72MOL    O4318645   1.367   5.834   1.148  0.2726  0.1471 -0.1239
   72MOL    C4418646   1.467   5.746   1.110  0.3610  0.1992  0.4617
   72MOL    C4518647   1.602   5.816   1.091  0.2683  0.8053  0.5790
   72MOL    H4618648   1.340   5.765   1.387 -1.1107 -0.6741  0.4534
   72MOL    H4718649   1.214   5.883   1.373  0.5616 -0.2096  0.4381
   72MOL    H4818650   1.228   5.665   1.163  1.6371  0.3062 -1.4188
   72MOL    H4918651   1.437   5.698   1.017  0.2713  0.3217  0.4274
   72MOL    H5018652   1.478   5.661   1.177  0.2836  1.5012  2.1563
   72MOL    H5118653   1.644   5.863   1.180 -0.1255  0.0048  1.1892
   72MOL    H5218654   1.684   5.757   1.048  0.7814  3.1535 -1.7887
   72MOL    H5318655   1.585   5.900   1.023  0.6588  0.6725  0.3141
   72MOL    C5418656   1.141   5.861   1.120 -0.5279 -0.7586  0.3985
   72MOL    C5518657   1.129   5.834   0.970 -0.6295  0.7879 -0.1587
   72MOL    O5618658   1.221   5.924   0.912 -0.1610 -0.3541 -0.6127
   72MOL    C5718659   1.290   5.867   0.800  0.4154  0.5137  0.3074
   72MOL    C5818660   1.391   5.972   0.745  0.7918  0.4931 -0.6183
   72MOL    H5918661   1.155   5.968   1.128 -2.9461 -0.3113 -0.7473
   72MOL    H6018662   1.048   5.841   1.173 -0.3054  2.3211  2.0583
   72MOL    H6118663   1.150   5.728   0.956  1.6695  1.1519  0.2856
   72MOL    H6218664   1.212   5.833   0.732 -1.8920  0.9689  2.6711
   72MOL    H6318665   1.326   5.772   0.837 -3.1571 -0.4750  1.4618
   72MOL    H6418666   1.476   5.926   0.695  1.8027  1.2536  0.3834
   72MOL    H6518667   1.340   6.034   0.671 -1.1488 -1.1041 -0.6791
   72MOL    H6618668   1.430   6.024   0.833  1.8386  0.0514 -0.8176
   72MOL    C6718669   0.994   5.875   0.909 -0.9195  0.1004  0.7773
   72MOL    C6818670   0.888   5.768   0.929 -0.9379 -0.1751 -0.3901
   72MOL    O6918671   0.935   5.649   0.864 -0.4017 -0.2366  0.3089
   72MOL    C7018672   0.866   5.530   0.884 -0.0324 -0.1095  0.2465
   72MOL    C7118673   0.922   5.469   1.016 -0.0591 -0.0264 -0.0630
   72MOL    H7218674   1.012   5.894   0.803  3.9025 -0.3328  1.4287
   72MOL    H7318675   0.959   5.974   0.938  1.7700  1.5097 -0.5883
   72MOL    H7418676   0.877   5.746   1.035  0.1596  0.2180 -0.1829
   72MOL    H7518677   0.885   5.467   0.797  0.0421  0.8226 -0.4289
   72MOL    H7618678   0.759   5.546   0.889  0.0243  0.2678  0.2600
   72MOL    H7718679   0.841   5.413   1.061 -0.7490 -0.1893 -1.4899
   72MOL    H7818680   1.016   5.415   1.002 -0.8903 -1.1573 -1.3022
   72MOL    H7918681   0.940   5.547   1.091 -0.4160  1.3731 -1.4053
   72MOL    C8018682   0.754   5.818   0.875  0.4752 -0.1828  0.0248
   72MOL    C8118683   0.688   5.934   0.962 -0.5545  0.2992  0.2005
   72MOL    O8218684   0.684   5.894   1.097  0.5492  0.2641  0.0162
   72MOL    C8318685   0.698   6.009   1.190  0.0565 -0.4892 -0.1646
   72MOL    C8418686   0.660   5.958   1.330  0.1045  0.3115  0.2114
   72MOL    H8518687   0.681   5.736   0.873  0.6337 -0.3022 -1.2294
   72MOL    H8618688   0.765   5.850   0.772  2.2673 -0.1220  0.2310
   72MOL    H8718689   0.748   6.024   0.951  0.2510 -0.5006 -2.1279
   72MOL    H8818690   0.619   6.078   1.162  0.7312  0.2264 -0.3283
   72MOL    H8918691   0.797   6.054   1.198 -0.6747  0.8029  2.0088
   72MOL    H9018692   0.718   5.870   1.356  1.0521  0.9523  0.2986
   72MOL    H9118693   0.670   6.033   1.409  0.5315 -0.3206  0.7691
   72MOL    H9218694   0.555   5.930   1.334 -0.7193  3.2193 -0.2480
   72MOL    C9318695   0.545   5.962   0.911  0.1138 -0.8143 -0.0371
   72MOL    C9418696   0.533   6.041   0.780  0.0772 -0.1470  0.0135
   72MOL    O9518697   0.588   6.169   0.792 -0.0538 -0.0670  0.3180
   72MOL    C9618698   0.672   6.196   0.681  0.4679 -0.1311  0.2447
   72MOL    C9718699   0.735   6.339   0.681  0.0730  0.3595  0.1246
   72MOL    H9818700   0.492   6.030   0.977 -0.6537 -0.1421 -1.3341
   72MOL    H9918701   0.487   5.870   0.905 -2.7039  0.9750 -1.1368
   72MOL   H10018702   0.570   5.978   0.699 -2.0463  0.3491 -1.3903
   72MOL   H10118703   0.617   6.172   0.589 -0.9308 -1.0700  1.2975
   72MOL   H10218704   0.753   6.124   0.689 -1.0232 -1.9689 -0.7104
   72MOL   H10318705   0.795   6.335   0.772  1.2790  1.9886 -0.5786
   72MOL   H10418706   0.793   6.360   0.592  0.5394  0.8792  0.5541
   72MOL   H10518707   0.649   6.404   0.697 -0.5816 -0.6217  0.6416
   72MOL   C10618708   0.388   6.063   0.736 -0.5931  0.2257  0.3716
   72MOL   C10718709   0.289   6.141   0.837  0.3660  0.4388 -0.3219
   72MOL   O10818710   0.247   6.049   0.937  0.1371  0.2481  0.0595
   72MOL   C10918711   0.208   6.114   1.062  0.0329 -0.2484  0.2111
   72MOL   C11018712   0.322   6.110   1.170  0.4171 -0.1752  0.2750
   72MOL   H11118713   0.339   5.968   0.716  0.6967 -0.2609 -0.6009
   72MOL   H11218714   0.387   6.112   0.638 -0.9739  0.8125  0.6710
   72MOL   H11318715   0.337   6.231   0.875 -0.1211  1.2578 -1.6289
   72MOL   H11418716   0.124   6.058   1.103  0.0173 -0.5948 -0.2953
   72MOL   H11518717   0.164   6.213   1.052 -0.0251 -0.2449  0.4913
   72MOL   H11618718   0.339   6.004   1.190 -2.3325 -1.1834 -2.4119
   72MOL   H11718719   0.412   6.160   1.136 -1.0873  2.7655  0.4113
   72MOL   H11818720   0.289   6.149   1.267 -1.8667 -0.6881 -0.2525
   72MOL   C11918721   0.166   6.190   0.761 -0.2368  0.3123 -0.6978
   72MOL   C12018722   0.200   6.321   0.687  0.3560 -0.1039  0.4629
   72MOL   O12118723   0.132   6.425   0.756  0.1994  0.6118 -0.2509
   72MOL   C12218724   0.215   6.515   0.832 -0.4385 -0.2539  0.2870
   72MOL   C12318725   0.118   6.601   0.919 -0.3373 -0.1505  0.7877
   72MOL   H12418726   0.090   6.196   0.838  1.2313  3.3075  0.6206
   72MOL   H12518727   0.138   6.112   0.690 -1.0009  0.2277 -0.2999
   72MOL   H12618728   0.306   6.345   0.677  0.7745 -1.9698  0.2989
   72MOL   H12718729   0.275   6.577   0.766  0.9808 -0.4484  1.3707
   72MOL   H12818730   0.288   6.473   0.901  0.4858 -2.7554 -2.1381
   72MOL   H12918731   0.177   6.683   0.959  0.3142 -1.1125  1.8433
   72MOL   H13018732   0.027   6.645   0.877 -0.9746 -1.4126  0.8046
   72MOL   H13118733   0.090   6.543   1.008 -0.2891  0.7027  1.3689
   72MOL   C13218734   0.142   6.325   0.535  0.5536  0.1592 -0.0940
   72MOL   C13318735   0.246   6.275   0.432 -0.7552 -0.3962  0.2410
   72MOL   O13418736   0.313   6.392   0.397  0.1106  0.2004 -0.6766
   72MOL   C13518737   0.443   6.404   0.456 -0.2967 -0.0106 -0.3463
   72MOL   C13618738   0.518   6.518   0.381 -0.3776  0.7240 -0.0201
   72MOL   H13718739   0.107   6.427   0.518  0.3048 -0.2289 -2.0223
   72MOL   H13818740   0.051   6.265   0.527  0.3658  0.5181 -0.6540
   72MOL   H13918741   0.298   6.191   0.479  1.2159  0.8686  0.3798
   72MOL   H14018742   0.501   6.312   0.458 -0.2932  0.0011  0.6966
   72MOL   H14118743   0.440   6.448   0.556  0.7524 -0.6849 -0.0073
   72MOL   H14218744   0.608   6.541   0.438 -0.5514 -0.1053  0.5978
   72MOL   H14318745   0.530   6.499   0.274  1.2335  1.6904 -0.0300
   72MOL   H14418746   0.451   6.603   0.385  0.0598  1.1262 -1.0590
   72MOL   C14518747   0.197   6.221   0.296  0.2315  0.3013 -0.1534
   72MOL   C14618748   0.320   6.160   0.214  0.1367  0.5373 -0.0366
   72MOL   O14718749   0.295   6.134   0.076 -0.2834  0.3263  0.1580
   72MOL   C14818750   0.182   6.064   0.036  0.2238  0.3878  0.3579
   72MOL   C14918751   0.182   6.045   7.730  0.4346 -0.8417  0.4769
   72MOL   H15018752   0.148   6.304   0.246 -0.6591  0.8409  1.5469
   72MOL   H15118753   0.113   6.156   0.321 -0.6205  1.8618  1.1442
   72MOL   H15218754   0.394   6.240   0.214  1.3005 -0.5374  0.1649
   72MOL   H15318755   0.094   6.120   0.069 -0.1839  0.2151 -0.4172
   72MOL   H15418756   0.177   5.968   0.089 -0.5759  1.8289  3.0263
   72MOL   H15518757   0.189   6.147   7.692  0.6358 -1.4029 -1.0346
   72MOL   H15618758   0.272   5.998   7.691  1.1822  2.4002 -1.9754
   72MOL   H15718759   0.096   5.986   7.696  0.3403  0.4844 -1.7099
   72MOL   C15818760   0.385   6.028   0.279 -0.4900  0.3499 -0.6341
   72MOL   C15918761   0.522   5.996   0.215  0.4574 -0.0995  0.2097
   72MOL   O16018762   0.542   5.862   0.235  0.0337 -0.1365  0.0583
   72MOL   C16118763   0.524   5.784   0.115 -0.2038 -0.2414 -0.2041
   72MOL   C16218764   0.554   5.638   0.146 -0.0168  0.1044  0.2399
   72MOL   H16318765   0.318   5.942   0.277 -0.4571  0.2974  0.3101
   72MOL   H16418766   0.408   6.037   0.385  1.7804  0.4166 -1.1004
   72MOL   H16518767   0.515   6.025   0.110 -1.5282  0.1911  0.4048
   72MOL   H16618768   0.575   5.830   0.031 -0.1972  2.8747  1.4290
   72MOL   H16718769   0.419   5.790   0.088 -0.2653 -0.3255  0.0130
   72MOL   H16818770   0.645   5.628   0.205 -1.2256  3.6007  2.8468
   72MOL   H16918771   0.474   5.611   0.214  0.7396  0.2744  1.2088
   72MOL   H17018772   0.556   5.576   0.056  1.0137 -3.0064  2.3553
   72MOL   C17118773   0.633   6.080   0.272 -0.4299  0.4041 -0.4381
   72MOL   C17218774   0.775   6.057   0.218  0.6683 -0.3801  0.0257
   72MOL   O17318775   0.875   6.121   0.293  0.2742  0.2300 -0.0785
   72MOL   C17418776   0.904   6.064   0.422 -0.1923  0.6274  0.0555
   72MOL   C17518777   1.037   6.129   0.479 -0.5666 -0.6128  0.2452
   72MOL   H17618778   0.631   6.058   0.379  0.7965  0.6920 -0.3540
   72MOL   H17718779   0.599   6.182   0.250  0.9296  0.2615 -3.3841
   72MOL   H17818780   0.801   5.952   0.224 -0.9869 -0.9718 -2.4594
   72MOL   H17918781   0.906   5.956   0.409 -0.4669  0.9814 -3.4307
   72MOL   H18018782   0.819   6.083   0.488 -1.2103 -1.8544 -0.4718
   72MOL   H18118783   1.058   6.079   0.573 -1.3839 -0.5686  0.4536
   72MOL   H18218784   1.127   6.109   0.420 -0.8726 -1.7867  0.1610
   72MOL   H18318785   1.026   6.236   0.494 -1.1158 -0.4404 -1.2353
   72MOL   C18418786   0.785   6.090   0.066 -0.0006 -0.2408  0.9027
   72MOL   C18518787   0.741   6.224   0.008  0.1402  0.0243 -0.0273
   72MOL   O18618788   0.740   6.200   7.707 -0.0784 -0.2549  0.0213
   72MOL   C18718789   0.619   6.163   7.646 -0.2968 -0.0453 -0.0221
   72MOL   C18818790   0.521   6.280   7.633 -0.0354 -0.5783  0.4915
   72MOL   H18918791   0.728   6.012   0.016  1.9187 -2.6308  2.3412
   72MOL   H19018792   0.890   6.086   0.038  1.6424  1.0720  6.3614
   72MOL   H19118793   0.646   6.249   0.053  0.4751  0.5688  0.3772
   72MOL   H19218794   0.577   6.081   7.704 -1.5653  0.7102  0.1451
   72MOL   H19318795   0.636   6.115   7.550  0.7119  2.2811 -1.0507
   72MOL   H19418796   0.509   6.333   7.727 -1.1538  1.3444 -0.7095
   72MOL   H19518797   0.556   6.357   7.563  0.6597 -0.2548  1.1875
   72MOL   H19618798   0.422   6.251   7.598  1.0224 -1.9727 -1.4718
   72MOL   C19718799   0.858   6.328   0.040 -0.0611 -0.4503 -0.3003
   72MOL   C19818800   0.826   6.466   7.818 -0.1941 -0.9631  0.5774
   72MOL   O19918801   0.933   6.555   7.806 -0.2956  0.3783  0.3205
   72MOL   C20018802   0.998   6.572   7.684  0.0802 -0.5518 -0.2539
   72MOL   C20118803   1.122   6.653   7.717 -0.3865  0.5349 -0.1970
   72MOL   H20218804   0.953   6.298   7.839  1.1574 -2.5775  3.4897
   72MOL   H20318805   0.886   6.337   0.145 -2.5383  0.4982  0.3247
   72MOL   H20418806   0.792   6.448   7.716  0.2296  1.8239 -0.1037
   72MOL   H20518807   0.931   6.633   7.624  0.8541  1.2295  0.6459
   72MOL   H20618808   1.029   6.478   7.638  1.1895 -0.0401 -0.6031
   72MOL   H20718809   1.178   6.591   7.786 -2.8914 -0.2863  1.1620
   72MOL   H20818810   1.187   6.674   7.632 -0.1686  1.3171  0.1602
   72MOL   H20918811   1.087   6.749   7.757  0.0179  0.2124  0.9410
   72MOL   C21018812   0.716   6.557   0.035  0.4200  0.3031  0.0225
   72MOL   C21118813   0.662   6.679   7.794 -0.1621 -0.1853 -0.0845
   72MOL   O21218814   0.556   6.746   0.020  0.3064 -0.1393 -0.2693
   72MOL   C21318815   0.599   6.854   0.100  0.8859  0.0179  0.7456
   72MOL   C21418816   0.468   6.896   0.172 -0.3646  0.2063  0.5741
   72MOL   H21518817   0.755   6.582   0.133 -0.2153  2.0665 -0.1632
   72MOL   H21618818   0.635   6.491   0.065  1.7405 -0.8050  1.1781
   72MOL   H21718819   0.737   6.751   7.765  0.5846  0.3970  3.1138
   72MOL   H21818820   0.616   6.938   0.032 -1.4738 -0.8839 -1.0234
   72MOL   H21918821   0.678   6.844   0.175  1.5966  1.2619  0.1811
   72MOL   H22018822   0.390   6.901   0.097  0.7086  2.8987 -0.4188
   72MOL   H22118823   0.447   6.828   0.255  0.4762 -0.4179  0.2864
   72MOL   H22218824   0.474   6.995   0.218  3.0664 -0.6936  2.2737
   72MOL   C22318825   0.589   6.634   7.665 -0.1271  0.4271 -0.4592
   72MOL   C22418826   0.553   6.753   7.574  0.2288 -0.3106 -0.5519
   72MOL   O22518827   0.416   6.741   7.529  0.6013  0.2699  0.1577
   72MOL   C22618828   0.306   6.789   7.615 -0.0033  0.3435  0.5616
   72MOL   C22718829   0.176   6.734   7.560 -0.7529 -0.4295 -0.3617
   72MOL   H22818830   0.498   6.582   7.695  0.4287 -0.9505 -1.1255
   72MOL   H22918831   0.642   6.555   7.612 -2.7286 -0.3076 -2.0697
   72MOL   H23018832   0.557   6.843   7.635 -0.2805 -0.5052 -0.2238
   72MOL   H23118833   0.300   6.898   7.615 -1.8577  0.2702  1.6177
   72MOL   H23218834   0.326   6.752   7.716  1.8600 -2.0410 -0.6317
   72MOL   H23318835   0.156   6.766   7.458 -0.5844 -1.2267 -0.6475
   72MOL   H23418836   0.182   6.626   7.561 -2.0210 -0.5228  2.1475
   72MOL   H23518837   0.088   6.758   7.620 -0.9630 -1.2298 -0.3527
   72MOL   C23618838   0.645   6.772   7.456 -0.8232 -0.2650  0.1828
   72MOL   C23718839   0.626   6.893   7.367  0.0608 -0.2280  0.0254
   72MOL   O23818840   0.709   6.891   7.253  0.0196  0.0426  0.0283
   72MOL   C23918841   0.648   6.830   7.138  0.5989 -0.1853  0.0464
   72MOL   C24018842   0.748   6.818   7.026  0.2409 -0.3470 -0.3897
   72MOL   H24118843   0.628   6.683   7.395  0.6140 -0.5708  0.2130
   72MOL   H24218844   0.750   6.764   7.484  0.8269  1.7060 -4.8673
   72MOL   H24318845   0.520   6.902   7.343 -0.3568  0.2135  1.9132
   72MOL   H24418846   0.560   6.889   7.112 -0.8429 -1.8572  1.0228
   72MOL   H24518847   0.610   6.733   7.171  2.6918 -1.3626 -0.9402
   72MOL   H24618848   0.823   6.747   7.063  0.2274 -0.3711 -0.4097
   72MOL   H24718849   0.697   6.772   6.942  0.4485  1.5912 -1.6141
   72MOL   H24818850   0.802   6.911   7.008 -0.8019  0.6622  1.5797
   72MOL   C24918851   0.656   7.027   7.435 -0.3587 -0.0544 -0.6519
   72MOL   C25018852   0.617   7.150   7.345 -0.1582 -0.1144  0.0122
   72MOL   O25118853   0.638   7.263   7.430 -0.2389  0.3223  0.0260
   72MOL   C25218854   0.638   7.386   7.366 -0.4804 -0.2043 -0.6297
   72MOL   C25318855   0.627   7.495   7.471  0.6688  0.0685 -0.2605
   72MOL   H25418856   0.765   7.033   7.442 -0.5489  1.8508  0.8828
   72MOL   H25518857   0.613   7.030   7.535  1.9229 -0.9369  0.4033
   72MOL   H25618858   0.681   7.162   7.257 -0.6496 -1.2640 -0.5069
   72MOL   H25718859   0.548   7.383   7.305  0.5005 -0.8611 -2.0919
   72MOL   H25818860   0.720   7.381   7.293 -0.8449  2.3975 -1.2526
   72MOL   H25918861   0.716   7.498   7.534  0.3155  1.6334  0.1955
   72MOL   H26018862   0.627   7.590   7.417  1.2508 -0.4336 -1.1444
   72MOL   H26118863   0.541   7.484   7.537  0.2067  0.1147 -0.8468
   72MOL   H26218864   0.512   7.154   7.315 -0.7330  0.3866  2.0556
   73MOL     C118865   2.367   2.197   4.880  0.1985 -0.1000  0.0860
   73MOL     C218866   2.457   2.226   4.756  0.0033  0.2220  0.0306
   73MOL     O318867   2.496   2.369   4.762 -0.3781  0.7593 -0.1153
   73MOL     C418868   2.614   2.388   4.839 -0.1261  0.3077  0.1184
   73MOL     C518869   2.639   2.531   4.868  0.0346  1.0849 -0.4876
   73MOL     H618870   2.272   2.251   4.888  0.5007  0.3360  0.7316
   73MOL     H718871   2.323   2.097   4.880 -1.2437  0.5225  0.4203
   73MOL     H818872   2.540   2.157   4.748  0.5740  0.8692  0.3182
   73MOL     H918873   2.702   2.349   4.788  0.8866  1.7938  0.6753
   73MOL    H1018874   2.605   2.337   4.935 -0.6445  0.7995  0.3362
   73MOL    H1118875   2.726   2.544   4.932 -1.6559  0.5371  1.9946
   73MOL    H1218876   2.652   2.595   4.781 -0.5848  1.6848 -0.1454
   73MOL    H1318877   2.559   2.576   4.927 -1.6792 -0.8225 -1.3224
   73MOL    H1418878   2.425   2.224   4.968 -2.1809  0.4923  1.5289
   73MOL    C1518879   2.368   2.229   4.629 -0.0879 -0.3768  0.1303
   73MOL    C1618880   2.296   2.093   4.591 -0.5733  0.2275 -0.3041
   73MOL    O1718881   2.395   1.985   4.579 -0.3212 -0.0417  0.1225
   73MOL    C1818882   2.350   1.860   4.624  0.3839 -0.5177 -0.2381
   73MOL    C1918883   2.466   1.763   4.591 -0.2964 -0.3266  0.7782
   73MOL    H2018884   2.433   2.267   4.550  1.5683 -0.0844  1.6195
   73MOL    H2118885   2.292   2.307   4.639 -0.1892 -0.3274 -0.9666
   73MOL    H2218886   2.227   2.060   4.669 -1.3010 -0.7708 -1.3546
   73MOL    H2318887   2.251   1.823   4.597 -0.6784  2.3149 -0.3886
   73MOL    H2418888   2.332   1.846   4.731  0.2195 -0.4105 -0.2507
   73MOL    H2518889   2.474   1.726   4.488 -0.9247 -0.8938  0.9286
   73MOL    H2618890   2.457   1.671   4.649 -0.4464 -0.3207  0.7649
   73MOL    H2718891   2.566   1.796   4.620  0.3410 -0.4336 -1.1708
   73MOL    C2818892   2.215   2.095   4.459 -0.1644 -1.2026  0.4665
   73MOL    C2918893   2.089   2.187   4.458 -0.2217  0.3712  0.4298
   73MOL    O3018894   2.006   2.144   4.563 -0.0945  0.1219  0.8323
   73MOL    C3118895   1.990   2.243   4.664 -0.0865  0.1153  0.1744
   73MOL    C3218896   1.970   2.179   4.794 -0.1862  0.3901  0.4280
   73MOL    H3318897   2.183   1.997   4.425  0.6696 -1.4209  0.3032
   73MOL    H3418898   2.278   2.125   4.375 -0.4757  0.0623  0.6693
   73MOL    H3518899   2.116   2.292   4.450 -1.9088  0.6069 -3.2083
   73MOL    H3618900   1.905   2.306   4.638 -1.3626 -1.1730  1.1464
   73MOL    H3718901   2.074   2.311   4.681  0.1294 -0.0827 -0.1013
   73MOL    H3818902   1.876   2.124   4.792 -0.2663  0.5469 -0.2820
   73MOL    H3918903   2.050   2.110   4.818 -0.8247 -0.6824 -0.4817
   73MOL    H4018904   1.957   2.251   4.875  3.9459  0.2813  1.3127
   73MOL    C4118905   2.013   2.162   4.324  0.1735  0.5422 -0.6372
   73MOL    C4218906   1.940   2.285   4.261  0.2182  0.4734  0.0344
   73MOL    O4318907   1.831   2.248   4.171 -0.3814 -0.6441  0.0062
   73MOL    C4418908   1.714   2.201   4.238  0.0497  0.3157 -0.4760
   73MOL    C4518909   1.593   2.287   4.230  0.3922  0.1427  0.8653
   73MOL    H4618910   1.942   2.079   4.332  0.2400  0.4382 -1.1309
   73MOL    H4718911   2.088   2.131   4.251  2.2975  3.3925  0.2643
   73MOL    H4818912   1.896   2.324   4.352 -1.4676  1.8971 -1.3619
   73MOL    H4918913   1.721   2.183   4.345  0.7365 -0.4563 -0.6494
   73MOL    H5018914   1.691   2.103   4.196 -1.3175  0.0287  0.9115
   73MOL    H5118915   1.555   2.305   4.129 -0.3466 -1.2370  0.8891
   73MOL    H5218916   1.507   2.241   4.278 -0.6040  0.4492 -0.5982
   73MOL    H5318917   1.591   2.386   4.275 -1.0096  1.1061 -1.2639
   73MOL    C5418918   2.038   2.375   4.188 -0.2087  0.5718  0.0318
   73MOL    C5518919   1.961   2.494   4.123  0.3574 -0.3082 -0.4553
   73MOL    O5618920   2.043   2.573   4.041 -0.7172  0.4171  0.2604
   73MOL    C5718921   2.074   2.526   3.907 -0.3400  0.1264  0.4078
   73MOL    C5818922   2.172   2.626   3.844  0.0827 -0.4095 -0.2840
   73MOL    H5918923   2.103   2.328   4.114  0.5657  1.2123  0.3003
   73MOL    H6018924   2.108   2.420   4.258 -0.4477  0.4223  0.3712
   73MOL    H6118925   1.882   2.452   4.061 -0.8952 -0.2745  1.1055
   73MOL    H6218926   1.978   2.515   3.856 -0.3228  0.5616  0.2742
   73MOL    H6318927   2.121   2.428   3.911  2.7640  1.6430  3.0687
   73MOL    H6418928   2.245   2.657   3.919  0.1742  2.7949 -1.5950
   73MOL    H6518929   2.233   2.578   3.767  3.8073  1.4944  1.3351
   73MOL    H6618930   2.113   2.706   3.798  2.0863  0.3411 -1.6530
   73MOL    C6718931   1.897   2.579   4.232 -0.0173  0.2351 -1.1016
   73MOL    C6818932   1.841   2.713   4.184  0.3897 -0.3252  0.8198
   73MOL    O6918933   1.779   2.778   4.292  0.1402  0.2472  0.9512
   73MOL    C7018934   1.863   2.847   4.376 -0.1146 -0.4297 -0.3698
   73MOL    C7118935   1.785   2.913   4.492  0.2736  0.5051 -0.1946
   73MOL    H7218936   1.971   2.596   4.310 -0.4269  1.4423 -0.9557
   73MOL    H7318937   1.809   2.528   4.271  1.7204 -1.8699  0.1987
   73MOL    H7418938   1.922   2.777   4.150 -0.3867  0.8859  1.2074
   73MOL    H7518939   1.913   2.923   4.317  4.3675 -2.1629  1.0227
   73MOL    H7618940   1.933   2.789   4.437  1.0540  1.3732  0.0111
   73MOL    H7718941   1.847   2.941   4.577 -0.1405  0.9253 -0.0319
   73MOL    H7818942   1.733   2.999   4.449 -0.9430  0.3423  0.9330
   73MOL    H7918943   1.698   2.857   4.527 -0.3763  0.9131 -1.1215
   73MOL    C8018944   1.731   2.701   4.078 -0.0757 -0.6237  0.1340
   73MOL    C8118945   1.708   2.829   3.998 -0.7480  0.2103  0.6040
   73MOL    O8218946   1.599   2.791   3.916  0.3276 -0.2139 -0.3870
   73MOL    C8318947   1.536   2.896   3.853  0.2523  0.2865  0.4026
   73MOL    C8418948   1.431   2.964   3.945  0.7426 -0.0848 -0.1435
   73MOL    H8518949   1.637   2.689   4.131 -0.0321 -2.9744 -0.2517
   73MOL    H8618950   1.751   2.618   4.009 -0.3235 -0.6976  0.1515
   73MOL    H8718951   1.687   2.920   4.054 -1.7987  0.1983  0.2338
   73MOL    H8818952   1.478   2.860   3.769 -2.9657  1.2453  2.1085
   73MOL    H8918953   1.608   2.968   3.814  0.4575 -1.8423 -3.2828
   73MOL    H9018954   1.489   3.021   4.017 -0.6354  0.9258  0.1681
   73MOL    H9118955   1.363   3.032   3.894  0.5804 -0.3963 -0.3451
   73MOL    H9218956   1.372   2.889   3.998 -1.5467  2.2509  0.7376
   73MOL    C9318957   1.832   2.861   3.903 -0.3584  0.4902 -0.1212
   73MOL    C9418958   1.901   2.995   3.939 -0.5236 -0.2185  0.7816
   73MOL    O9518959   1.808   3.094   3.905 -0.1700 -0.7078 -0.0618
   73MOL    C9618960   1.778   3.179   4.020 -0.6609 -0.6670 -0.7100
   73MOL    C9718961   1.692   3.291   3.957 -0.0489  0.1478 -1.1178
   73MOL    H9818962   1.802   2.871   3.799 -0.4936 -0.3376 -0.1629
   73MOL    H9918963   1.905   2.780   3.907 -0.9481  0.0555  3.8158
   73MOL   H10018964   1.915   2.997   4.047  2.0519  2.7215  0.4854
   73MOL   H10118965   1.864   3.211   4.079 -1.4539  1.1550 -0.4899
   73MOL   H10218966   1.711   3.136   4.094 -1.9375 -0.5066 -1.7639
   73MOL   H10318967   1.611   3.257   3.892 -2.3050  0.8665  1.2433
   73MOL   H10418968   1.643   3.347   4.036 -1.5130 -0.5994 -1.4769
   73MOL   H10518969   1.752   3.364   3.903  1.6732  0.4381  1.1206
   73MOL   C10618970   2.034   3.019   3.865 -0.5646  0.1336 -0.0932
   73MOL   C10718971   2.113   3.142   3.918 -0.0328 -0.2992  0.4073
   73MOL   O10818972   2.199   3.197   3.819 -0.5261 -0.0047 -0.2696
   73MOL   C10918973   2.149   3.306   3.751  0.2163  0.4827  0.0895
   73MOL   C11018974   2.234   3.329   3.628  0.2271  0.1125 -1.1072
   73MOL   H11118975   2.012   3.020   3.758  2.3531  1.2751 -0.7309
   73MOL   H11218976   2.094   2.928   3.869  1.2275  1.3733  1.6943
   73MOL   H11318977   2.031   3.212   3.933 -0.4880 -1.0396  1.4787
   73MOL   H11418978   2.170   3.384   3.825 -0.3936  2.1347 -1.4524
   73MOL   H11518979   2.043   3.294   3.731  0.6306 -1.1048 -1.1969
   73MOL   H11618980   2.223   3.239   3.569  2.4312 -1.2260  0.4408
   73MOL   H11718981   2.198   3.412   3.567  0.8008  1.3515  0.2066
   73MOL   H11818982   2.338   3.352   3.650 -0.6150  0.5768  2.7486
   73MOL   C11918983   2.192   3.130   4.049 -0.7033 -0.3282 -0.6410
   73MOL   C12018984   2.318   3.030   4.050 -0.7642  0.9513 -0.8222
   73MOL   O12118985   2.313   2.966   4.178 -0.3480 -0.3826 -0.4770
   73MOL   C12218986   2.236   2.846   4.179 -0.6711  0.2892 -0.6722
   73MOL   C12318987   2.230   2.790   4.324  0.1094 -0.0800  0.5399
   73MOL   H12418988   2.117   3.090   4.117  0.7106 -1.2336  0.4241
   73MOL   H12518989   2.211   3.232   4.082  2.0067 -0.4174 -1.8113
   73MOL   H12618990   2.307   2.958   3.969  1.0314 -1.0745  0.6598
   73MOL   H12718991   2.292   2.782   4.111 -0.7253  2.5560 -2.9608
   73MOL   H12818992   2.134   2.858   4.141 -1.0345 -1.2794 -0.2206
   73MOL   H12918993   2.191   2.689   4.319  2.8723 -1.0994 -1.4104
   73MOL   H13018994   2.328   2.774   4.370  0.6742  1.0435 -0.2514
   73MOL   H13118995   2.159   2.838   4.392 -2.5023 -0.2136 -2.0009
   73MOL   C13218996   2.456   3.101   4.052  0.1359 -0.8979 -0.1178
   73MOL   C13318997   2.577   3.012   4.024 -0.4361 -0.2063  0.0385
   73MOL   O13418998   2.553   2.912   3.925  0.5109 -0.3481  0.1278
   73MOL   C13518999   2.552   2.960   3.790  0.4307  0.6174 -0.6369
   73MOL   C13619000   2.455   2.880   3.715  0.2065  0.6452  0.1330
   73MOL   H13719001   2.465   3.166   4.139 -1.7107 -0.5431 -0.1735
   73MOL   H13819002   2.451   3.168   3.966  0.8489 -1.2381 -0.4259
   73MOL   H13919003   2.673   3.058   4.000  0.0385 -0.5774  1.1862
   73MOL   H14019004   2.647   2.961   3.736 -0.6889 -0.3295 -2.6759
   73MOL   H14119005   2.516   3.062   3.791 -0.2199  0.4164 -2.1366
   73MOL   H14219006   2.440   2.936   3.622  0.6584 -1.8804 -1.5326
   73MOL   H14319007   2.482   2.779   3.684 -0.7428  0.4152  0.0513
   73MOL   H14419008   2.357   2.869   3.761 -0.3513 -1.0705 -1.4050
   73MOL   C14519009   2.621   2.915   4.137  0.0802  0.4023 -0.0873
   73MOL   C14619010   2.710   2.977   4.237  0.7636  0.1719  0.0969
   73MOL   O14719011   2.833   3.008   4.170  0.3231  0.1029 -0.6897
   73MOL   C14819012   2.894   3.121   4.215 -0.2506 -0.2758 -1.3024
   73MOL   C14919013   3.036   3.132   4.170  0.2496 -0.6691  0.1976
   73MOL   H15019014   2.656   2.819   4.098  1.8973  0.5768  1.0462
   73MOL   H15119015   2.526   2.894   4.187  0.9026  0.4286  1.5047
   73MOL   H15219016   2.663   3.072   4.265  1.3473  0.9332 -1.4448
   73MOL   H15319017   2.887   3.128   4.324 -1.2516  0.4370 -1.4088
   73MOL   H15419018   2.838   3.201   4.166  1.0466  0.6641 -1.2849
   73MOL   H15519019   3.077   3.232   4.184 -0.2335 -0.6597  1.6168
   73MOL   H15619020   3.109   3.066   4.216 -0.6586 -2.1219 -0.4232
   73MOL   H15719021   3.059   3.116   4.065  3.3072  0.5285  0.6214
   73MOL   C15819022   2.748   2.886   4.357 -0.3973  0.1115  0.3878
   73MOL   C15919023   2.624   2.846   4.442  0.5531  0.6963 -0.5011
   73MOL   O16019024   2.547   2.739   4.391 -0.1897 -0.2204  0.3088
   73MOL   C16119025   2.589   2.604   4.413  0.4106  0.6350 -0.0769
   73MOL   C16219026   2.501   2.506   4.334 -0.1300  0.2638  0.2104
   73MOL   H16319027   2.814   2.948   4.417 -1.1739  2.2724 -0.9416
   73MOL   H16419028   2.809   2.802   4.324  0.9286  1.0024  0.5500
   73MOL   H16519029   2.655   2.799   4.536 -2.7527 -2.1108 -0.7054
   73MOL   H16619030   2.584   2.583   4.520 -0.1524  0.1008 -0.2069
   73MOL   H16719031   2.692   2.593   4.378 -0.1871 -0.3395 -1.5763
   73MOL   H16819032   2.551   2.410   4.329 -0.6783 -0.0512  0.6275
   73MOL   H16919033   2.397   2.503   4.367 -0.0380  2.7481  0.8668
   73MOL   H17019034   2.489   2.541   4.232 -0.0170  0.9172  0.4205
   73MOL   C17119035   2.536   2.968   4.479 -0.1614  0.1377 -0.1832
   73MOL   C17219036   2.605   3.064   4.573 -0.2315  0.1041 -0.7265
   73MOL   O17319037   2.657   3.003   4.692  0.7331  0.3516  0.2422
   73MOL   C17419038   2.774   3.064   4.751 -0.0107  0.0759  0.6419
   73MOL   C17519039   2.852   2.956   4.830  0.3044  0.3616 -0.5415
   73MOL   H17619040   2.442   2.929   4.520  1.0345 -3.0567 -0.3262
   73MOL   H17719041   2.499   3.027   4.394 -0.5968  0.3085  0.1203
   73MOL   H17819042   2.686   3.110   4.516  1.0159  0.1636  1.0427
   73MOL   H17919043   2.734   3.144   4.813 -0.1275  1.2170 -0.9121
   73MOL   H18019044   2.842   3.114   4.682 -0.5026 -0.4553 -0.2337
   73MOL   H18119045   2.931   3.008   4.884  0.3576 -0.1684 -0.0961
   73MOL   H18219046   2.785   2.905   4.899  2.7208 -2.0394  0.1099
   73MOL   H18319047   2.889   2.873   4.769  1.1441  0.2579  0.1017
   73MOL   C18419048   2.519   3.189   4.615 -0.0201  0.1036  0.4144
   73MOL   C18519049   2.486   3.292   4.503 -0.2227  0.8785 -0.1652
   73MOL   O18619050   2.614   3.345   4.462  0.4893 -0.0881 -0.4877
   73MOL   C18719051   2.614   3.401   4.330  0.6404  1.1405  0.4970
   73MOL   C18819052   2.748   3.478   4.333 -0.0528 -0.2513 -0.0811
   73MOL   H18919053   2.571   3.245   4.692  1.4554 -0.7256  0.0421
   73MOL   H19019054   2.423   3.152   4.651 -0.4729 -0.0975 -0.9807
   73MOL   H19119055   2.443   3.234   4.422 -0.3599  1.2505 -0.3576
   73MOL   H19219056   2.535   3.471   4.304 -0.0410 -0.0100 -0.5817
   73MOL   H19319057   2.617   3.327   4.250  1.1956  1.5960  0.0935
   73MOL   H19419058   2.749   3.524   4.432 -1.8353 -1.5520  0.5680
   73MOL   H19519059   2.834   3.412   4.318  0.2572 -0.2619  1.5983
   73MOL   H19619060   2.759   3.567   4.271 -0.1672 -0.0189  0.2254
   73MOL   C19719061   2.395   3.407   4.553 -0.0785 -0.1798 -0.3640
   73MOL   C19819062   2.264   3.373   4.624 -0.2097  0.5399  0.1600
   73MOL   O19919063   2.171   3.324   4.530  0.4426 -0.0499  0.3376
   73MOL   C20019064   2.173   3.184   4.505 -0.4605  0.1158  0.2301
   73MOL   C20119065   2.029   3.139   4.473  0.0826 -0.0723  0.2530
   73MOL   H20219066   2.379   3.468   4.464  0.5096 -0.2915 -0.5514
   73MOL   H20319067   2.455   3.461   4.626 -0.7156 -0.5751  0.4583
   73MOL   H20419068   2.286   3.308   4.710  1.7935  0.1992 -0.5728
   73MOL   H20519069   2.209   3.118   4.584 -0.7117 -1.3666 -0.8539
   73MOL   H20619070   2.235   3.170   4.417  0.4190  2.0236  0.5355
   73MOL   H20719071   2.023   3.030   4.479 -0.9825  0.0034  0.6412
   73MOL   H20819072   1.957   3.180   4.544 -2.4283  1.7439 -3.1570
   73MOL   H20919073   1.996   3.171   4.374  3.3017 -1.3397 -1.3068
   73MOL   C21019074   2.192   3.491   4.681  0.0513 -0.1635 -0.6366
   73MOL   C21119075   2.052   3.457   4.746  0.3491 -0.1526  0.2171
   73MOL   O21219076   1.988   3.595   4.748  0.3813  0.3966 -0.2657
   73MOL   C21319077   1.845   3.597   4.732  0.5401 -0.1675 -0.1986
   73MOL   C21419078   1.811   3.605   4.579  0.1562  0.3680 -0.0362
   73MOL   H21519079   2.189   3.560   4.597  0.8630 -0.0722 -0.5982
   73MOL   H21619080   2.256   3.547   4.751  1.2005 -0.0841 -1.7273
   73MOL   H21719081   1.991   3.393   4.683  0.0202 -0.1373  0.5239
   73MOL   H21819082   1.819   3.687   4.787 -0.1781 -1.1414  1.0823
   73MOL   H21919083   1.800   3.509   4.778  0.3478 -0.5185 -1.0632
   73MOL   H22019084   1.723   3.666   4.560 -0.1255  0.7577  2.3004
   73MOL   H22119085   1.885   3.664   4.525 -2.8181  0.3832 -4.3841
   73MOL   H22219086   1.809   3.504   4.539 -1.1836 -0.6452  2.4584
   73MOL   C22319087   2.067   3.408   4.893  0.2770 -0.3499 -0.2083
   73MOL   C22419088   2.060   3.257   4.910 -0.5556 -0.9247 -0.5577
   73MOL   O22519089   1.926   3.221   4.931  0.1273  0.1938  0.1802
   73MOL   C22619090   1.881   3.131   4.832  1.1661  0.3356  0.6289
   73MOL   C22719091   1.734   3.090   4.870  0.4683 -0.1886 -0.3312
   73MOL   H22819092   1.979   3.455   4.937  1.6622  1.5072  0.6495
   73MOL   H22919093   2.150   3.459   4.941  0.7572 -0.9445 -0.4014
   73MOL   H23019094   2.097   3.206   4.822 -1.8294 -2.2148 -0.3643
   73MOL   H23119095   1.952   3.051   4.812  1.1646  0.8791 -1.6448
   73MOL   H23219096   1.875   3.173   4.732  2.2278  0.3999  0.5801
   73MOL   H23319097   1.729   3.035   4.964 -1.9984  0.0769 -0.2870
   73MOL   H23419098   1.667   3.176   4.871 -2.0441 -2.1029  0.4431
   73MOL   H23519099   1.701   3.022   4.791  0.1544 -1.8456  1.2096
   73MOL   C23619100   2.139   3.211   5.039 -0.0026  0.1434 -0.0245
   73MOL   C23719101   2.172   3.057   5.045 -0.7927  0.0882  0.1219
   73MOL   O23819102   2.221   3.002   5.164 -0.5897  0.1533  0.4493
   73MOL   C23919103   2.142   3.019   5.281  0.1182 -0.6497 -0.3688
   73MOL   C24019104   2.004   2.970   5.260 -0.3789 -0.2895 -0.8883
   73MOL   H24119105   2.080   3.251   5.121  0.8882  0.4618  0.4664
   73MOL   H24219106   2.234   3.264   5.042 -1.0062  2.1657 -2.1515
   73MOL   H24319107   2.082   3.000   5.021 -0.4450 -0.6613  0.5960
   73MOL   H24419108   2.152   3.122   5.317  2.5118 -1.0346  0.1585
   73MOL   H24519109   2.188   2.968   5.365  1.0230  2.9644  1.4181
   73MOL   H24619110   1.941   2.978   5.349  0.1982 -0.9248 -0.4279
   73MOL   H24719111   1.948   3.031   5.188 -0.6294  3.0948  2.0071
   73MOL   H24819112   2.005   2.866   5.228  1.1052  0.0043 -1.8335
   73MOL   C24919113   2.276   3.014   4.933 -0.0237 -0.7229 -0.4388
   73MOL   C25019114   2.287   2.869   4.893 -0.3651 -0.2802 -0.7438
   73MOL   O25119115   2.188   2.826   4.808 -0.4464 -0.1122  0.2579
   73MOL   C25219116   2.182   2.688   4.774 -0.2806  0.5283  0.2947
   73MOL   C25319117   2.288   2.664   4.661  0.7966  0.0358 -0.1275
   73MOL   H25419118   2.375   3.037   4.974 -0.3636  0.1775 -0.1211
   73MOL   H25519119   2.269   3.080   4.846 -2.1806 -2.1389 -1.3619
   73MOL   H25619120   2.383   2.857   4.844 -0.2506  2.7189 -1.3202
   73MOL   H25719121   2.083   2.649   4.746 -0.0362 -0.5110  0.8665
   73MOL   H25819122   2.216   2.624   4.855 -0.0238  1.5506  0.9981
   73MOL   H25919123   2.288   2.559   4.631 -1.1000 -1.2491  4.0068
   73MOL   H26019124   2.279   2.732   4.576 -1.3322 -1.1238 -0.8701
   73MOL   H26119125   2.389   2.668   4.700 -0.0161 -0.5341  2.0973
   73MOL   H26219126   2.295   2.808   4.983 -1.3406 -0.4724 -0.7826
   74MOL     C119127   3.407   6.959   5.019 -0.0778  0.0819  0.1497
   74MOL     C219128   3.475   6.844   5.091 -0.1518  0.1286 -0.5653
   74MOL     O319129   3.473   6.736   5.001  0.3250  0.2171 -0.1108
   74MOL     C419130   3.528   6.615   5.049  0.0818  0.5163  0.2786
   74MOL     C519131   3.408   6.515   5.065  0.8930  0.5125  0.0759
   74MOL     H619132   3.306   6.930   4.991 -0.2507 -1.1996  1.9789
   74MOL     H719133   3.389   7.047   5.081 -2.4270  0.5487 -1.1450
   74MOL     H819134   3.581   6.863   5.112 -0.1219  0.9021 -1.3863
   74MOL     H919135   3.589   6.631   5.138 -2.2192  0.2154  1.9563
   74MOL    H1019136   3.595   6.587   4.968 -0.2985  0.4948 -0.0283
   74MOL    H1119137   3.430   6.408   5.073 -0.7981  0.3202  2.9827
   74MOL    H1219138   3.341   6.528   5.150 -0.5976  0.0910 -1.0077
   74MOL    H1319139   3.340   6.536   4.982 -0.1196 -2.5653  0.0424
   74MOL    H1419140   3.454   6.990   4.926  0.7275  0.4670  0.6845
   74MOL    C1519141   3.406   6.817   5.229 -0.1766  0.8137 -0.1358
   74MOL    C1619142   3.467   6.910   5.336  0.6063 -0.0792  0.1801
   74MOL    O1719143   3.604   6.870   5.357  0.3996  0.8167  0.2871
   74MOL    C1819144   3.698   6.979   5.351  0.4343  0.5925 -0.0940
   74MOL    C1919145   3.836   6.917   5.323  0.1359 -0.2465 -0.2935
   74MOL    H2019146   3.419   6.715   5.267 -2.3323  1.1960  1.7148
   74MOL    H2119147   3.298   6.832   5.230  0.0449  2.4074  0.8903
   74MOL    H2219148   3.446   7.011   5.302 -1.7570 -0.0483  1.5989
   74MOL    H2319149   3.688   7.043   5.439 -1.3002 -0.1926  0.2949
   74MOL    H2419150   3.673   7.044   5.267  1.6013  1.0817 -0.0761
   74MOL    H2519151   3.905   7.001   5.336  0.3763 -0.6262  0.9893
   74MOL    H2619152   3.848   6.885   5.220 -0.5069  2.6466 -1.3177
   74MOL    H2719153   3.873   6.850   5.401  0.8233  0.7029  0.2111
   74MOL    C2819154   3.394   6.907   5.475 -0.0528 -0.3240 -0.0875
   74MOL    C2919155   3.254   6.974   5.473 -0.3764  0.1624  0.4172
   74MOL    O3019156   3.278   7.109   5.528  0.3321 -0.0098  0.0456
   74MOL    C3119157   3.300   7.223   5.436  0.1803  0.4640 -0.2429
   74MOL    C3219158   3.336   7.335   5.532  0.5580  0.2138 -0.7826
   74MOL    H3319159   3.457   6.958   5.548  0.1785 -0.7124 -0.0141
   74MOL    H3419160   3.385   6.803   5.506  1.0999 -0.2804  0.4199
   74MOL    H3519161   3.211   6.972   5.373 -0.6362  1.2416  0.5107
   74MOL    H3619162   3.211   7.258   5.383  0.1570 -1.3799 -1.4566
   74MOL    H3719163   3.381   7.217   5.364 -0.3623  1.8558 -0.9844
   74MOL    H3819164   3.272   7.328   5.620  0.7207 -0.8175 -0.7452
   74MOL    H3919165   3.439   7.319   5.565  0.2866  0.2427  0.1065
   74MOL    H4019166   3.322   7.434   5.489  1.4623  0.8041  0.2249
   74MOL    C4119167   3.154   6.907   5.565 -0.1533 -0.3292 -0.3765
   74MOL    C4219168   3.116   6.763   5.548 -0.4925 -0.0490  0.0977
   74MOL    O4319169   3.021   6.752   5.445  0.0097 -0.2006  0.1033
   74MOL    C4419170   3.054   6.681   5.319  0.1869 -0.0876 -0.5077
   74MOL    C4519171   2.963   6.557   5.325 -0.2421  0.1188 -0.1251
   74MOL    H4619172   3.059   6.959   5.553 -1.0773 -1.9638 -0.3596
   74MOL    H4719173   3.193   6.926   5.665  0.0825  0.7397 -0.6636
   74MOL    H4819174   3.205   6.701   5.536 -0.7796 -0.3517 -0.5110
   74MOL    H4919175   3.159   6.656   5.334  1.3743  5.0500  0.6291
   74MOL    H5019176   3.040   6.749   5.234  1.4314  3.4721  1.9942
   74MOL    H5119177   2.867   6.564   5.273  0.4036 -0.8736 -1.4689
   74MOL    H5219178   3.007   6.476   5.268 -0.7046  0.6342 -1.2446
   74MOL    H5319179   2.961   6.527   5.430  1.6439 -0.7670 -0.3424
   74MOL    C5419180   3.050   6.702   5.678 -0.0678 -0.7401  0.1114
   74MOL    C5519181   3.069   6.551   5.711  0.1177 -0.3480  0.0086
   74MOL    O5619182   2.950   6.515   5.777  0.1233 -0.1448 -0.6948
   74MOL    C5719183   2.925   6.377   5.803 -0.1109 -0.1540  0.0548
   74MOL    C5819184   2.786   6.368   5.860  0.0976 -0.4208  0.2688
   74MOL    H5919185   2.943   6.726   5.686 -0.3387 -2.4944  2.0281
   74MOL    H6019186   3.092   6.750   5.766 -0.2078 -1.0294  0.3359
   74MOL    H6119187   3.082   6.495   5.619 -1.3340  0.6599 -0.8471
   74MOL    H6219188   2.998   6.348   5.879  1.6631 -0.1739 -1.5885
   74MOL    H6319189   2.956   6.319   5.715  0.0905 -1.5378  1.0135
   74MOL    H6419190   2.784   6.401   5.964  1.1263  0.1243  0.1229
   74MOL    H6519191   2.715   6.431   5.806 -0.3217  0.2374  1.5770
   74MOL    H6619192   2.746   6.267   5.850  0.0333 -0.4641  0.9917
   74MOL    C6719193   3.189   6.533   5.815 -0.2244 -0.1380 -0.3367
   74MOL    C6819194   3.325   6.542   5.752 -0.1068  0.4710 -0.0999
   74MOL    O6919195   3.330   6.446   5.645  0.3754  0.3181  0.0975
   74MOL    C7019196   3.443   6.458   5.559  0.6184  0.4209 -0.1461
   74MOL    C7119197   3.431   6.370   5.439 -0.7364  0.2474  0.8236
   74MOL    H7219198   3.176   6.437   5.863 -1.0001  1.4949  2.8249
   74MOL    H7319199   3.176   6.602   5.898 -0.6998 -1.2347  0.5076
   74MOL    H7419200   3.346   6.638   5.705  1.4418  0.2474  0.0898
   74MOL    H7519201   3.536   6.428   5.607  0.7340  1.5813  0.3810
   74MOL    H7619202   3.452   6.563   5.530 -0.3591 -0.5006 -4.0243
   74MOL    H7719203   3.338   6.394   5.387  0.9152  0.7508 -1.9826
   74MOL    H7819204   3.515   6.394   5.374 -1.2521 -0.0294  0.0549
   74MOL    H7919205   3.448   6.266   5.464 -1.5143  0.8283  3.9901
   74MOL    C8019206   3.444   6.527   5.856 -0.0398  0.0487  0.5062
   74MOL    C8119207   3.451   6.633   5.961  0.4418 -0.2966 -0.2064
   74MOL    O8219208   3.460   6.755   5.892  0.3518  0.2149  0.6932
   74MOL    C8319209   3.401   6.859   5.962 -0.4834  0.1771 -0.0997
   74MOL    C8419210   3.448   6.985   5.879 -0.2044 -0.7661 -0.2911
   74MOL    H8519211   3.542   6.527   5.808 -0.8153  0.1827 -1.1118
   74MOL    H8619212   3.430   6.429   5.903  0.8154 -1.3225 -2.0167
   74MOL    H8719213   3.357   6.629   6.015  0.2443  0.0601 -0.5232
   74MOL    H8819214   3.435   6.873   6.065  0.3283  0.8003 -0.4455
   74MOL    H8919215   3.293   6.850   5.969 -0.8000  2.7184 -1.1983
   74MOL    H9019216   3.397   6.969   5.784 -1.8417 -2.6751  0.8717
   74MOL    H9119217   3.420   7.081   5.922  0.5027 -0.8684  0.4147
   74MOL    H9219218   3.552   6.984   5.848  0.1395  1.1320  0.7445
   74MOL    C9319219   3.572   6.617   6.048 -0.1664  0.9854 -0.2628
   74MOL    C9419220   3.581   6.481   6.125 -0.5063  0.3418 -0.6227
   74MOL    O9519221   3.450   6.457   6.172  0.2100 -0.1593 -0.5355
   74MOL    C9619222   3.419   6.323   6.211 -0.3855 -0.4875  0.8239
   74MOL    C9719223   3.346   6.244   6.107  0.4325  0.6658  0.3782
   74MOL    H9819224   3.557   6.693   6.125 -1.7176  1.3801 -0.9277
   74MOL    H9919225   3.661   6.638   5.989 -0.9888  0.6885 -1.6309
   74MOL   H10019226   3.612   6.402   6.056 -1.8474 -3.2654  2.7172
   74MOL   H10119227   3.358   6.339   6.300  0.9976  0.6284  1.6006
   74MOL   H10219228   3.506   6.274   6.255 -0.0386  0.1268  0.8293
   74MOL   H10319229   3.336   6.136   6.122 -1.4702  0.5655 -1.2412
   74MOL   H10419230   3.250   6.295   6.103  1.0896  1.8870  0.1811
   74MOL   H10519231   3.385   6.248   6.005 -2.2934  2.1905 -0.6527
   74MOL   C10619232   3.686   6.482   6.244 -0.5072 -0.0674  0.7226
   74MOL   C10719233   3.837   6.494   6.210  0.6886 -0.5332  0.1119
   74MOL   O10819234   3.862   6.405   6.106  0.4731 -0.2117  0.4430
   74MOL   C10919235   3.939   6.448   5.992 -0.3802 -0.5385  0.2602
   74MOL   C11019236   3.956   6.342   5.877 -0.1849  0.1089 -1.0250
   74MOL   H11119237   3.677   6.392   6.305  0.1351 -0.6518 -0.0259
   74MOL   H11219238   3.665   6.570   6.304 -0.9742 -0.0569  0.5455
   74MOL   H11319239   3.849   6.598   6.180  0.3744 -0.3532  0.5944
   74MOL   H11419240   4.041   6.473   6.024 -1.0077  0.2480  1.7187
   74MOL   H11519241   3.900   6.533   5.936 -1.2027 -2.4356 -2.1392
   74MOL   H11619242   3.995   6.398   5.791 -0.2391 -1.1001 -1.8557
   74MOL   H11719243   4.018   6.256   5.900 -0.1773  0.1211 -1.0061
   74MOL   H11819244   3.859   6.313   5.837 -0.2989 -0.4610 -0.3253
   74MOL   C11919245   3.930   6.468   6.333 -0.5563 -0.3772  0.6142
   74MOL   C12019246   3.929   6.575   6.451 -0.7106  0.4756  0.0306
   74MOL   O12119247   3.816   6.566   6.531  0.3504 -0.4077 -0.0865
   74MOL   C12219248   3.809   6.458   6.616 -0.0247 -0.6223 -0.5799
   74MOL   C12319249   3.667   6.421   6.651  0.0753 -0.2211 -0.0149
   74MOL   H12419250   4.030   6.480   6.292 -1.1719 -0.5956 -0.9895
   74MOL   H12519251   3.908   6.364   6.357 -2.0460 -0.9246 -2.8135
   74MOL   H12619252   4.020   6.558   6.508  0.9012 -0.4769 -2.7746
   74MOL   H12719253   3.874   6.466   6.703  2.1867  1.5959 -2.3523
   74MOL   H12819254   3.861   6.375   6.568 -0.5129 -1.9002  1.0637
   74MOL   H12919255   3.636   6.467   6.745  0.3435 -1.5362  0.7338
   74MOL   H13019256   3.595   6.444   6.572 -1.6325 -2.1683  0.9209
   74MOL   H13119257   3.665   6.313   6.667  2.1275 -0.1661  0.7993
   74MOL   C13219258   3.927   6.722   6.400  0.0978  0.0468 -0.2016
   74MOL   C13319259   3.989   6.820   6.510 -0.6307 -0.4459  0.9728
   74MOL   O13419260   3.898   6.880   6.594 -0.3480 -0.3979 -0.4497
   74MOL   C13519261   3.843   6.799   6.690  0.0251  0.1784 -0.0530
   74MOL   C13619262   3.812   6.868   6.818  0.2400 -0.3568 -0.3218
   74MOL   H13719263   3.826   6.747   6.371  0.7788  0.0267 -2.6693
   74MOL   H13819264   3.991   6.722   6.311  0.8592  1.2073  0.3371
   74MOL   H13919265   4.066   6.773   6.571  1.6741  2.5895  0.5029
   74MOL   H14019266   3.908   6.713   6.708 -0.9819 -0.5397  0.1624
   74MOL   H14119267   3.751   6.757   6.649 -0.2718 -0.8369  1.5742
   74MOL   H14219268   3.899   6.915   6.864  0.1053 -1.7442  1.3751
   74MOL   H14319269   3.741   6.946   6.790  0.1481 -0.3701 -0.1258
   74MOL   H14419270   3.762   6.802   6.889  0.6328  0.2707  0.5471
   74MOL   C14519271   4.056   6.944   6.452  0.1186 -0.2596 -0.9291
   74MOL   C14619272   4.181   6.917   6.374 -0.0414 -0.5453 -0.3521
   74MOL   O14719273   4.276   6.900   6.470 -0.6303 -0.5652 -0.1296
   74MOL   C14819274   4.324   6.766   6.476 -0.5871  0.0622  0.8725
   74MOL   C14919275   4.404   6.737   6.600 -0.1159 -0.6028  0.1632
   74MOL   H15019276   4.082   7.020   6.526 -2.1019 -0.0649 -0.3093
   74MOL   H15119277   3.996   7.000   6.381  2.0249  0.5143 -1.9520
   74MOL   H15219278   4.163   6.825   6.319 -0.9310 -0.5152 -0.1209
   74MOL   H15319279   4.394   6.753   6.393 -1.7424 -0.4611 -0.0388
   74MOL   H15419280   4.248   6.691   6.456 -1.3092  1.6276 -2.6052
   74MOL   H15519281   4.489   6.801   6.623  0.9189 -1.5839 -0.8550
   74MOL   H15619282   4.340   6.753   6.687 -1.5711 -1.3807 -0.7415
   74MOL   H15719283   4.437   6.633   6.603  0.1423 -0.5393 -0.4201
   74MOL   C15819284   4.235   7.037   6.290  0.1877 -0.2000  0.2851
   74MOL   C15919285   4.131   7.079   6.188 -0.3003 -0.1233 -0.2719
   74MOL   O16019286   4.069   6.963   6.135  0.3568 -0.2765  0.0866
   74MOL   C16119287   3.925   6.981   6.108  0.3848 -0.7562  0.2955
   74MOL   C16219288   3.886   6.858   6.029 -0.4216  0.7453 -1.0220
   74MOL   H16319289   4.324   6.994   6.243 -0.1630 -1.3015  0.6111
   74MOL   H16419290   4.268   7.117   6.356  1.8231  0.0050 -0.7341
   74MOL   H16519291   4.057   7.146   6.232  0.7075 -0.0512  1.3950
   74MOL   H16619292   3.902   7.073   6.055 -1.3292 -1.3606 -0.0578
   74MOL   H16719293   3.880   6.980   6.208  1.8851  0.5977  0.9956
   74MOL   H16819294   3.944   6.772   6.064  0.3695  0.8594 -2.0222
   74MOL   H16919295   3.779   6.838   6.027 -0.3596  0.0067  1.4273
   74MOL   H17019296   3.911   6.880   5.925 -0.4335  1.8163 -0.8049
   74MOL   C17119297   4.205   7.158   6.081  0.0595  0.1737 -0.0974
   74MOL   C17219298   4.281   7.290   6.119 -0.0058 -0.5961  0.0784
   74MOL   O17319299   4.187   7.389   6.165 -0.0972  0.4350 -0.3181
   74MOL   C17419300   4.188   7.414   6.308 -0.5243  0.4405 -0.4522
   74MOL   C17519301   4.088   7.518   6.340  0.1398  0.5227  0.4190
   74MOL   H17619302   4.135   7.177   6.000  0.5578 -0.6870 -0.7425
   74MOL   H17719303   4.277   7.086   6.041 -0.1271  0.9882 -1.9462
   74MOL   H17819304   4.362   7.276   6.191  0.4220  1.6252  0.0826
   74MOL   H17919305   4.290   7.445   6.328 -0.6139 -0.0773  0.8622
   74MOL   H18019306   4.164   7.322   6.362  0.5655  0.3559 -0.1040
   74MOL   H18119307   4.078   7.538   6.447  2.0928 -1.8788  1.0793
   74MOL   H18219308   4.116   7.613   6.294 -1.1477  0.8861  0.3597
   74MOL   H18319309   3.990   7.489   6.303 -0.4480  2.3728  0.4755
   74MOL   C18419310   4.351   7.363   5.996 -0.3160  0.1995 -0.4354
   74MOL   C18519311   4.474   7.284   5.927  0.0357  0.5050  0.5167
   74MOL   O18619312   4.590   7.316   5.995 -0.3954  0.7958  0.2778
   74MOL   C18719313   4.645   7.212   6.078  0.0221  0.4121 -0.2796
   74MOL   C18819314   4.776   7.262   6.136  0.4488  0.1375  0.1256
   74MOL   H18919315   4.389   7.459   6.030 -1.0013  0.3229 -0.0071
   74MOL   H19019316   4.271   7.372   5.922  0.0259 -0.8715 -0.9509
   74MOL   H19119317   4.445   7.180   5.919  0.6470  0.4852 -1.6218
   74MOL   H19219318   4.649   7.123   6.014  0.7575  1.2918 -1.4905
   74MOL   H19319319   4.569   7.184   6.151  1.1607 -1.2630  0.2987
   74MOL   H19419320   4.847   7.324   6.081 -0.4602 -0.4074 -1.6854
   74MOL   H19519321   4.750   7.325   6.221  1.8256 -0.8801  1.3347
   74MOL   H19619322   4.836   7.185   6.184  2.0505  1.7291  0.7607
   74MOL   C19719323   4.502   7.339   5.789  0.1017 -0.2139  0.0101
   74MOL   C19819324   4.598   7.259   5.704  0.6734  0.1101 -0.1049
   74MOL   O19919325   4.570   7.120   5.710 -0.2497  0.0872 -0.1894
   74MOL   C20019326   4.466   7.090   5.613  0.3055 -0.2544  0.2603
   74MOL   C20119327   4.434   6.944   5.637  1.0619  0.1141  0.2412
   74MOL   H20219328   4.547   7.438   5.794  2.0046 -0.9405 -1.9324
   74MOL   H20319329   4.415   7.365   5.730  0.6964 -0.0056 -0.7775
   74MOL   H20419330   4.602   7.301   5.604  1.1750 -3.1712 -1.5134
   74MOL   H20519331   4.494   7.102   5.508 -1.3741  0.4714 -0.1219
   74MOL   H20619332   4.381   7.158   5.624 -0.1395 -0.8979  0.7696
   74MOL   H20719333   4.358   6.901   5.572  1.5604  0.7604 -0.7811
   74MOL   H20819334   4.522   6.883   5.622  1.6226  0.5631  1.5991
   74MOL   H20919335   4.413   6.927   5.743 -0.5764 -1.9254 -0.3833
   74MOL   C21019336   4.746   7.265   5.749 -0.4686 -0.3105 -0.4158
   74MOL   C21119337   4.835   7.182   5.660  0.1898 -0.8794 -0.5328
   74MOL   O21219338   4.964   7.178   5.712 -0.0094 -0.0632  0.7602
   74MOL   C21319339   4.986   7.085   5.811 -0.6687 -0.9746  0.5972
   74MOL   C21419340   5.133   7.083   5.835  0.8564 -0.0370  0.8334
   74MOL   H21519341   4.765   7.225   5.849  0.9193  2.0042  0.2874
   74MOL   H21619342   4.783   7.367   5.741  0.6314 -0.6486  0.1376
   74MOL   H21719343   4.805   7.077   5.657  1.4087 -1.2143 -1.1943
   74MOL   H21819344   4.957   6.986   5.776 -2.3470 -0.2951  0.0491
   74MOL   H21919345   4.938   7.102   5.907  0.3035 -1.1132  1.1161
   74MOL   H22019346   5.164   7.000   5.900  0.0026 -0.7324  0.3681
   74MOL   H22119347   5.177   7.057   5.739  1.9366 -1.7041  1.7305
   74MOL   H22219348   5.168   7.181   5.866  0.8349  1.1939 -2.8208
   74MOL   C22319349   4.838   7.242   5.519 -0.5746  0.1881  0.5280
   74MOL   C22419350   4.943   7.175   5.424  0.3573  0.3881  0.4641
   74MOL   O22519351   4.920   7.255   5.298 -0.8714  0.1399  0.0339
   74MOL   C22619352   5.005   7.363   5.289 -1.3489  0.2204  0.1639
   74MOL   C22719353   4.969   7.448   5.165 -0.1141  0.4440 -0.4184
   74MOL   H22819354   4.858   7.349   5.527  0.7318 -0.1238  1.6764
   74MOL   H22919355   4.739   7.233   5.474 -0.5033 -2.0704  0.7561
   74MOL   H23019356   5.037   7.187   5.477 -0.3492  0.8979  1.6223
   74MOL   H23119357   5.107   7.334   5.263 -0.5029  1.9659  1.3488
   74MOL   H23219358   4.999   7.425   5.379 -2.0536  1.9543 -1.0354
   74MOL   H23319359   4.864   7.472   5.146 -0.3780 -2.8234 -3.7723
   74MOL   H23419360   5.022   7.542   5.177 -0.0264  0.4319 -0.6990
   74MOL   H23519361   5.004   7.410   5.069 -1.3385 -2.0380  0.0811
   74MOL   C23619362   4.906   7.027   5.397 -0.0047  0.5939  0.8130
   74MOL   C23719363   5.011   6.964   5.301 -0.1187 -0.2337 -0.0459
   74MOL   O23819364   4.963   6.839   5.248 -0.1007  0.3133  0.2318
   74MOL   C23919365   4.909   6.863   5.122  0.1391  0.4085 -0.3681
   74MOL   C24019366   4.858   6.739   5.070 -0.1047  0.3896  0.1939
   74MOL   H24119367   4.813   7.041   5.341  1.1206  0.2129 -1.2296
   74MOL   H24219368   4.893   6.963   5.484 -1.4628 -0.3207 -0.0638
   74MOL   H24319369   5.034   7.035   5.221  3.2032  0.4475  1.4330
   74MOL   H24419370   4.987   6.908   5.061 -0.3015  4.0478  1.5615
   74MOL   H24519371   4.833   6.940   5.134 -0.7404 -0.4911 -0.1254
   74MOL   H24619372   4.939   6.673   5.040  1.5181  1.8834  1.1379
   74MOL   H24719373   4.792   6.695   5.145  0.3539 -0.1558  0.2794
   74MOL   H24819374   4.796   6.759   4.983 -0.0179 -1.4113 -0.3021
   74MOL   C24919375   5.148   6.941   5.366  0.1924 -0.1246  0.2966
   74MOL   C25019376   5.251   6.872   5.270  0.1899 -0.7924  0.3721
   74MOL   O25119377   5.368   6.864   5.344 -0.3491 -0.2704  0.2168
   74MOL   C25219378   5.375   6.761   5.443 -0.8071 -0.2611  0.0268
   74MOL   C25319379   5.508   6.756   5.520 -0.0146 -0.4175 -0.5959
   74MOL   H25419380   5.122   6.870   5.445 -2.7017 -2.1345 -2.3911
   74MOL   H25519381   5.192   7.031   5.410  0.6866 -0.6090  0.8130
   74MOL   H25619382   5.212   6.779   5.227  0.9319 -0.5428 -0.8372
   74MOL   H25719383   5.365   6.664   5.393  0.2347  0.9071 -2.5285
   74MOL   H25819384   5.298   6.757   5.519 -0.3731 -1.2280  0.4281
   74MOL   H25919385   5.498   6.686   5.602 -1.6200 -0.4034 -0.7573
   74MOL   H26019386   5.600   6.745   5.462 -0.1295  1.4549 -1.1917
   74MOL   H26119387   5.511   6.858   5.559 -1.7300  0.3113 -2.2713
   74MOL   H26219388   5.263   6.942   5.188  0.8996 -1.0886  0.2204
   75MOL     C119389   7.729   6.304   3.780 -0.2785  0.4021 -0.2071
   75MOL     C219390   7.595   6.261   3.843 -1.1470  0.0566 -0.0247
   75MOL     O319391   7.608   6.139   3.914  0.1626  0.1185  0.4176
   75MOL     C419392   7.641   6.163   4.048 -0.1205 -0.0222  0.1361
   75MOL     C519393   7.655   6.024   4.106 -0.7792 -0.6368  0.7410
   75MOL     H619394   7.772   6.232   3.709  0.8236  1.2295 -0.4030
   75MOL     H719395   7.709   6.396   3.725  0.1247  1.0710  0.7602
   75MOL     H819396   7.558   6.346   3.899 -0.7455  1.6771 -2.1872
   75MOL     H919397   7.560   6.204   4.108 -0.1471 -0.3512  0.3270
   75MOL    H1019398   7.733   6.221   4.058 -0.7142  0.8417  0.6971
   75MOL    H1119399   7.559   5.979   4.128 -2.3515  0.5704 -3.1673
   75MOL    H1219400   7.712   5.960   4.038 -0.1177  0.2636  0.4382
   75MOL    H1319401   7.702   6.014   4.204  1.2294 -3.1790 -0.4155
   75MOL    H1419402   7.800   6.331   3.858  0.3465  0.3164 -0.7331
   75MOL    C1519403   7.484   6.249   3.737  1.4521 -0.0702  0.2423
   75MOL    C1619404   7.345   6.217   3.787 -0.2161 -0.8746  0.1634
   75MOL    O1719405   7.253   6.199   3.678  0.8800 -0.0604  0.2185
   75MOL    C1819406   7.276   6.093   3.591 -0.4042  0.5323 -1.4754
   75MOL    C1919407   7.144   6.082   3.519 -0.1927  0.1496  0.0197
   75MOL    H2019408   7.524   6.183   3.660 -0.7486 -0.4047 -0.6443
   75MOL    H2119409   7.479   6.347   3.690 -0.5593  0.8156  2.2103
   75MOL    H2219410   7.345   6.125   3.846  1.1297 -0.9985 -0.0217
   75MOL    H2319411   7.303   6.002   3.644 -0.4407  0.5639 -1.4019
   75MOL    H2419412   7.361   6.114   3.525  0.1773 -0.6492 -1.1231
   75MOL    H2519413   7.138   5.987   3.465  1.3236  0.4889 -0.7948
   75MOL    H2619414   7.129   6.152   3.436 -1.1276  0.8597  0.7722
   75MOL    H2719415   7.059   6.084   3.587  0.4609 -0.6802  0.8703
   75MOL    C2819416   7.272   6.321   3.877 -0.1748  0.5669  0.8692
   75MOL    C2919417   7.141   6.272   3.940  0.6962  0.5552  0.2863
   75MOL    O3019418   7.099   6.393   4.005  0.1096 -0.5146  0.2972
   75MOL    C3119419   6.979   6.467   3.968 -0.5380 -0.3848 -0.0002
   75MOL    C3219420   7.015   6.596   3.898  0.3112  0.0893 -0.0876
   75MOL    H3319421   7.240   6.405   3.817 -0.0501  1.1110  1.5529
   75MOL    H3419422   7.349   6.363   3.943 -1.5622  1.9367  1.6288
   75MOL    H3519423   7.067   6.260   3.861  0.6875  0.1238  0.3590
   75MOL    H3619424   6.924   6.485   4.060  2.2071  1.1431  1.3934
   75MOL    H3719425   6.911   6.408   3.906 -1.0826 -0.7606  0.9376
   75MOL    H3819426   6.933   6.665   3.877 -0.1809  0.2161  2.1415
   75MOL    H3919427   7.081   6.644   3.970  0.3235 -3.0818  2.1082
   75MOL    H4019428   7.065   6.566   3.806  0.6544 -1.2287  0.5127
   75MOL    C4119429   7.166   6.175   4.050 -0.2727  0.0321  0.3782
   75MOL    C4219430   7.044   6.099   4.106  0.2341 -0.4243 -0.3934
   75MOL    O4319431   6.963   6.063   3.991  0.1049 -0.5619 -0.7102
   75MOL    C4419432   7.012   5.954   3.912  0.0893  0.6651 -0.0745
   75MOL    C4519433   6.905   5.941   3.806 -0.4048 -0.3631 -0.1979
   75MOL    H4619434   7.222   6.226   4.129 -0.1241 -1.5258  1.2943
   75MOL    H4719435   7.237   6.099   4.016 -0.2281 -0.2934  1.1858
   75MOL    H4819436   7.080   6.008   4.156  0.5549 -1.0044 -1.6738
   75MOL    H4919437   7.022   5.863   3.971 -2.4152  2.3186  3.0501
   75MOL    H5019438   7.102   5.987   3.861 -1.2570  2.6240 -1.2634
   75MOL    H5119439   6.883   6.038   3.761 -0.6869 -0.5491 -0.4673
   75MOL    H5219440   6.924   5.860   3.735 -0.7034  1.3746 -2.3216
   75MOL    H5319441   6.810   5.926   3.858 -1.3178 -1.2928 -2.0777
   75MOL    C5419442   6.943   6.170   4.198  0.0845 -0.2817 -0.0958
   75MOL    C5519443   7.006   6.224   4.319 -0.0681 -0.2305  0.6435
   75MOL    O5619444   7.065   6.114   4.381 -0.0009 -0.2631  0.0474
   75MOL    C5719445   7.176   6.148   4.454  0.4745  0.0193 -0.1041
   75MOL    C5819446   7.222   6.042   4.553 -0.1412 -0.4631  0.2864
   75MOL    H5919447   6.870   6.097   4.234  0.1716 -0.9872 -1.3177
   75MOL    H6019448   6.894   6.253   4.147  1.5479  0.6489 -0.0039
   75MOL    H6119449   7.080   6.302   4.300  0.0988 -0.6444 -0.4056
   75MOL    H6219450   7.164   6.243   4.508  1.9184  1.6354 -2.5406
   75MOL    H6319451   7.251   6.179   4.381  1.0707  0.9170  0.8683
   75MOL    H6419452   7.144   6.024   4.627 -2.1653 -0.4705 -1.8133
   75MOL    H6519453   7.250   5.945   4.511 -0.7022 -0.6159  0.2653
   75MOL    H6619454   7.312   6.071   4.608 -0.1799 -0.7451  0.4989
   75MOL    C6719455   6.896   6.288   4.416  0.2560 -0.1353  0.1272
   75MOL    C6819456   6.758   6.214   4.449 -0.6619  0.0156 -0.2605
   75MOL    O6919457   6.646   6.302   4.477 -0.4711  0.0342  0.2445
   75MOL    C7019458   6.659   6.386   4.593  0.1245  0.2243  0.2036
   75MOL    C7119459   6.548   6.480   4.588 -0.4699 -0.1093  0.1035
   75MOL    H7219460   6.869   6.380   4.365  0.5283 -0.7085 -1.0618
   75MOL    H7319461   6.948   6.321   4.506  1.4120  0.4405 -0.7455
   75MOL    H7419462   6.733   6.167   4.354  0.9084 -0.8583 -0.2573
   75MOL    H7519463   6.755   6.437   4.601  0.1137  0.3873 -0.7001
   75MOL    H7619464   6.647   6.327   4.684 -0.7506 -1.0657 -0.7421
   75MOL    H7719465   6.568   6.546   4.503  1.7781 -1.5616 -0.5234
   75MOL    H7819466   6.449   6.435   4.571 -0.4221 -0.4621  0.7720
   75MOL    H7919467   6.553   6.542   4.677  4.3983 -0.6252  0.2997
   75MOL    C8019468   6.779   6.110   4.563  0.2253 -0.1285 -0.6728
   75MOL    C8119469   6.652   6.024   4.591 -0.2702 -0.5263  0.6045
   75MOL    O8219470   6.671   5.947   4.708 -0.0815 -0.1787 -0.8036
   75MOL    C8319471   6.555   5.904   4.783 -0.7463  0.0258  0.2925
   75MOL    C8419472   6.604   5.804   4.889 -0.3051 -0.7395 -0.5478
   75MOL    H8519473   6.803   6.168   4.652 -1.8561  0.6921 -0.6100
   75MOL    H8619474   6.873   6.054   4.566  0.6536  0.6226 -0.1412
   75MOL    H8719475   6.577   6.101   4.608  0.3813  0.2360  0.0355
   75MOL    H8819476   6.470   5.874   4.722 -0.2427 -0.0798 -0.3653
   75MOL    H8919477   6.509   5.994   4.825 -2.3636 -1.3383  1.4656
   75MOL    H9019478   6.517   5.768   4.944  0.7444 -2.9794 -0.2750
   75MOL    H9119479   6.659   5.723   4.841  1.0621 -0.0907 -0.0939
   75MOL    H9219480   6.662   5.857   4.965 -0.1319  1.1744 -1.9848
   75MOL    C9319481   6.616   5.939   4.464  0.1101 -0.4879 -0.1514
   75MOL    C9419482   6.715   5.838   4.412 -0.1785 -0.1669 -0.0424
   75MOL    O9519483   6.666   5.788   4.283  0.0152  0.5266 -0.2839
   75MOL    C9619484   6.701   5.876   4.175 -0.1859  0.1575  0.3396
   75MOL    C9719485   6.608   5.837   4.064 -0.0343 -0.0717 -0.2995
   75MOL    H9819486   6.598   6.011   4.385 -0.0309 -0.8182 -0.4247
   75MOL    H9919487   6.522   5.885   4.475  0.3675 -0.7496  0.8071
   75MOL   H10019488   6.813   5.884   4.394  0.5206 -2.0785 -1.3679
   75MOL   H10119489   6.807   5.870   4.151 -0.2050  2.9598 -0.5643
   75MOL   H10219490   6.671   5.979   4.191 -0.3925 -0.0383  1.2484
   75MOL   H10319491   6.624   5.730   4.052 -0.7814 -0.6248  3.1373
   75MOL   H10419492   6.504   5.851   4.093  0.3219 -0.9074  1.4343
   75MOL   H10519493   6.617   5.905   3.980  1.9258 -0.2013 -0.2318
   75MOL   C10619494   6.751   5.716   4.502  0.2882 -0.4827 -0.1087
   75MOL   C10719495   6.873   5.642   4.440 -0.0941 -0.1340 -0.1672
   75MOL   O10819496   6.894   5.521   4.504 -0.3162 -0.7019 -0.4175
   75MOL   C10919497   6.801   5.421   4.476  0.0405  0.1006 -0.4617
   75MOL   C11019498   6.856   5.283   4.514 -0.3053  1.0636 -0.0271
   75MOL   H11119499   6.670   5.643   4.501  0.8178 -1.0854  0.5228
   75MOL   H11219500   6.782   5.734   4.605  0.1782  0.6754 -0.2713
   75MOL   H11319501   6.865   5.628   4.332  0.6577  2.5160 -0.6114
   75MOL   H11419502   6.795   5.423   4.368  3.1489 -0.3984 -0.6830
   75MOL   H11519503   6.707   5.437   4.529 -0.1207  0.8671 -0.9823
   75MOL   H11619504   6.850   5.279   4.623 -1.0944  0.1015 -0.0973
   75MOL   H11719505   6.792   5.205   4.473 -0.9072  1.3353  0.3860
   75MOL   H11819506   6.957   5.270   4.475 -0.4030  2.1377 -0.6421
   75MOL   C11919507   7.006   5.709   4.466 -0.0580  0.2609 -0.1108
   75MOL   C12019508   7.142   5.654   4.392 -0.0794 -0.0881 -0.7223
   75MOL   O12119509   7.260   5.703   4.455 -0.5361 -0.4170 -0.7021
   75MOL   C12219510   7.315   5.626   4.557 -0.6834  0.0539 -0.0890
   75MOL   C12319511   7.451   5.679   4.586 -0.6003 -0.2451 -0.1032
   75MOL   H12419512   7.025   5.685   4.571 -2.5633  0.1549  0.3308
   75MOL   H12519513   7.001   5.818   4.459 -0.2552  0.2131 -0.6955
   75MOL   H12619514   7.136   5.547   4.410 -2.8705  0.5312  2.7796
   75MOL   H12719515   7.326   5.524   4.519 -0.9294  1.2205 -3.5133
   75MOL   H12819516   7.253   5.626   4.646 -0.7039 -0.7878 -0.0967
   75MOL   H12919517   7.450   5.776   4.635 -2.0660 -0.8708  1.1399
   75MOL   H13019518   7.493   5.611   4.660 -0.4720  1.0978  1.0626
   75MOL   H13119519   7.516   5.675   4.499 -0.1273 -1.0577  0.2816
   75MOL   C13219520   7.146   5.681   4.242 -0.9566  0.3968  0.2637
   75MOL   C13319521   7.281   5.622   4.176 -0.1185  0.0331 -0.2696
   75MOL   O13419522   7.302   5.656   4.038  0.3364 -0.5298 -0.5203
   75MOL   C13519523   7.336   5.794   4.011 -0.4028  0.3723  0.3389
   75MOL   C13619524   7.350   5.808   3.857 -0.1754  0.0231  0.3204
   75MOL   H13719525   7.148   5.789   4.230  0.8617  0.3166 -0.3134
   75MOL   H13819526   7.055   5.651   4.190 -0.4054  0.3198 -0.6652
   75MOL   H13919527   7.368   5.661   4.229  1.9049 -0.5997 -3.0500
   75MOL   H14019528   7.437   5.810   4.049  1.3247  0.4510 -4.0862
   75MOL   H14119529   7.275   5.871   4.058 -0.0581  1.3824 -0.8494
   75MOL   H14219530   7.434   5.754   3.814  1.9351  2.7472  0.9155
   75MOL   H14319531   7.257   5.790   3.803  1.1366 -3.6368 -0.8298
   75MOL   H14419532   7.377   5.912   3.838  1.9748 -0.2565  1.6458
   75MOL   C14519533   7.290   5.473   4.177 -0.4465 -0.2712  0.5917
   75MOL   C14619534   7.429   5.416   4.129 -0.3706 -0.1850  0.5553
   75MOL   O14719535   7.411   5.282   4.087 -0.1999  0.0928  0.1229
   75MOL   C14819536   7.388   5.184   4.195 -0.4217 -0.0051 -0.4619
   75MOL   C14919537   7.346   5.039   4.154  0.9323  0.7214 -0.5405
   75MOL   H15019538   7.198   5.431   4.135 -0.1702 -0.2121 -0.0793
   75MOL   H15119539   7.268   5.441   4.279 -0.9770  0.8195  0.8189
   75MOL   H15219540   7.456   5.463   4.034  1.6040 -0.0415  1.1717
   75MOL   H15319541   7.317   5.229   4.265  0.5402  0.6607  0.0919
   75MOL   H15419542   7.481   5.174   4.250 -1.6507  0.6489  1.7790
   75MOL   H15519543   7.429   4.998   4.096 -0.8470 -0.0612 -2.5537
   75MOL   H15619544   7.332   4.982   4.246  0.4832 -1.1965 -1.7748
   75MOL   H15719545   7.255   5.035   4.095 -0.2499 -2.0037  1.3457
   75MOL   C15819546   7.543   5.446   4.231 -0.6203  0.5240  0.4398
   75MOL   C15919547   7.684   5.384   4.186  0.1779  0.4854 -0.2075
   75MOL   O16019548   7.708   5.259   4.248 -0.6036 -0.1690  0.0836
   75MOL   C16119549   7.755   5.160   4.157  0.0451  0.4149 -0.9055
   75MOL   C16219550   7.770   5.025   4.234  0.2379 -0.2933 -0.2073
   75MOL   H16319551   7.519   5.410   4.331 -2.7934  1.5181  0.3067
   75MOL   H16419552   7.549   5.555   4.232 -1.1925  0.5605  2.2750
   75MOL   H16519553   7.678   5.378   4.077  0.4029 -4.3650 -0.0600
   75MOL   H16619554   0.011   5.177   4.116 -0.1830  0.4454 -1.4614
   75MOL   H16719555   7.690   5.144   4.070  0.9936  1.8040 -1.8944
   75MOL   H16819556   7.799   5.039   4.338 -0.0247  2.7768 -0.5113
   75MOL   H16919557   7.670   4.983   4.251  1.1483 -2.1066  0.8584
   75MOL   H17019558   7.823   4.955   4.170  1.5531  0.8813 -0.4080
   75MOL   C17119559   7.804   5.471   4.238 -0.1409  0.0721 -0.2469
   75MOL   C17219560   7.822   5.595   4.151 -0.3986  0.4160  0.4902
   75MOL   O17319561   7.813   5.562   4.010  0.4236 -0.0352 -0.1299
   75MOL   C17419562   7.734   5.653   3.939  0.3882  0.4735  0.5662
   75MOL   C17519563   7.691   5.579   3.808  0.6494  0.1846  0.0276
   75MOL   H17619564   0.050   5.411   4.224 -0.8565 -1.3744  1.1067
   75MOL   H17719565   7.783   5.498   4.342  0.1479 -1.7543  0.3044
   75MOL   H17819566   7.740   5.661   4.180 -3.3706 -1.7631 -2.5017
   75MOL   H17919567   7.804   5.735   3.925  2.6431 -1.4020  0.5982
   75MOL   H18019568   7.656   5.699   4.000 -1.0373 -0.2958 -0.6515
   75MOL   H18119569   7.666   5.647   3.727  0.9936 -0.1044 -0.3179
   75MOL   H18219570   7.770   5.525   3.757  0.7333 -0.2628  0.6299
   75MOL   H18319571   7.611   5.506   3.825  4.0370 -3.5199  0.6052
   75MOL   C18419572   0.117   5.662   4.154 -0.4378 -0.0164  0.4187
   75MOL   C18519573   0.147   5.727   4.285 -0.3140 -0.1661 -0.5496
   75MOL   O18619574   0.230   5.835   4.259  0.2078 -0.1085 -0.0303
   75MOL   C18719575   0.158   5.958   4.247  0.5839 -0.4574 -0.1098
   75MOL   C18819576   0.227   6.071   4.166 -0.4882 -0.0663 -0.1765
   75MOL   H18919577   0.129   5.738   4.076  1.0069 -1.4001 -0.7319
   75MOL   H19019578   0.195   5.590   4.131 -0.8506 -0.3742  0.1351
   75MOL   H19119579   0.060   5.766   4.339 -0.1219  0.5695 -0.7595
   75MOL   H19219580   0.148   5.989   4.351 -1.8103 -0.6125 -0.2550
   75MOL   H19319581   0.062   5.948   4.197  0.3248 -0.9892  0.4846
   75MOL   H19419582   0.303   6.120   4.227 -0.1523 -0.0687 -0.5942
   75MOL   H19519583   0.283   6.012   4.093 -0.4895  0.6032 -0.7123
   75MOL   H19619584   0.160   6.140   4.115  1.0568  1.2476 -0.4733
   75MOL   C19719585   0.224   5.639   4.376  0.0772 -0.1739 -0.2169
   75MOL   C19819586   0.218   5.687   4.525  0.7537  0.3539  0.0509
   75MOL   O19919587   0.333   5.664   4.606 -0.9286 -0.1202 -0.2252
   75MOL   C20019588   0.384   5.532   4.614  0.5979 -0.3934 -0.1328
   75MOL   C20119589   0.488   5.530   4.720 -0.6737  0.3321 -0.6375
   75MOL   H20219590   0.325   5.619   4.340  0.4580 -0.5077  0.9997
   75MOL   H20319591   0.177   5.541   4.384  1.5022 -0.9882 -1.5114
   75MOL   H20419592   0.223   5.796   4.522 -0.2759  0.4814  1.9682
   75MOL   H20519593   0.437   5.506   4.523  1.2595 -0.1604  0.1818
   75MOL   H20619594   0.301   5.466   4.639  0.4901 -0.3613 -0.4073
   75MOL   H20719595   0.564   5.607   4.707  0.2547 -0.5693 -0.6897
   75MOL   H20819596   0.451   5.555   4.819 -0.2074 -0.7977 -0.1643
   75MOL   H20919597   0.529   5.429   4.727  1.4070  1.1361 -0.9430
   75MOL   C21019598   0.086   5.648   4.602 -0.2443 -0.6161  0.1310
   75MOL   C21119599   0.087   5.715   4.748  0.3055  0.9201  0.1809
   75MOL   O21219600   7.804   5.690   4.811 -0.2421  0.2960 -0.2366
   75MOL   C21319601   7.769   5.563   4.847 -0.1775  0.1313  0.2424
   75MOL   C21419602   7.634   5.570   4.916 -0.0320  0.5062  0.3715
   75MOL   H21519603   0.074   5.540   4.612  1.3563 -1.2261 -3.5592
   75MOL   H21619604   0.001   5.689   4.549 -0.3668  2.5394  2.6176
   75MOL   H21719605   0.167   5.666   4.803  2.1782  0.1564 -3.0774
   75MOL   H21819606   7.843   5.521   4.916  0.0394 -0.0462 -0.0977
   75MOL   H21919607   7.763   5.496   4.762 -0.9067 -1.4290  1.4984
   75MOL   H22019608   7.554   5.596   4.847 -0.3203 -0.4780  0.3284
   75MOL   H22119609   7.611   5.470   4.953  1.7943 -0.6112 -1.3996
   75MOL   H22219610   7.635   5.638   5.002 -0.8492 -0.1046  0.8726
   75MOL   C22319611   0.103   5.866   4.752  0.2051 -0.0940 -0.1651
   75MOL   C22419612   0.095   5.930   4.891 -0.3152 -0.2186  0.6023
   75MOL   O22519613   0.087   6.069   4.861 -0.1642  0.0547  0.0977
   75MOL   C22619614   0.043   6.153   4.967 -0.0702 -0.4956  0.2132
   75MOL   C22719615   0.031   6.301   4.918 -0.2087 -0.3290  0.4161
   75MOL   H22819616   0.027   5.905   4.684  0.5103  1.7349  0.5099
   75MOL   H22919617   0.193   5.905   4.705  0.4818 -0.0977  0.3581
   75MOL   H23019618   7.843   5.915   4.942  0.2589  1.7820  2.3577
   75MOL   H23119619   0.101   6.158   5.059 -1.7068 -0.3141  1.2545
   75MOL   H23219620   7.792   6.110   4.998 -0.3459  0.4020  0.6390
   75MOL   H23319621   0.125   6.356   4.924 -0.2105 -0.4556  2.0085
   75MOL   H23419622   7.838   6.307   4.816  1.7061 -1.8391 -0.3896
   75MOL   H23519623   7.805   6.359   4.979 -0.8690 -2.2958  1.5744
   75MOL   C23619624   0.214   5.899   4.983 -0.5641 -0.2455 -0.3046
   75MOL   C23719625   0.159   5.848   5.122 -0.2358  0.6225  0.4281
   75MOL   O23819626   0.119   5.974   5.188 -0.6352  0.6273  0.1851
   75MOL   C23919627   0.016   5.958   5.279  0.1306  0.2298 -1.0510
   75MOL   C24019628   7.810   6.110   5.322 -1.2786  0.0494  0.1285
   75MOL   H24119629   0.271   5.989   5.005 -0.9486 -0.6514  2.5667
   75MOL   H24219630   0.295   5.842   4.939  0.4103  1.7772 -1.1933
   75MOL   H24319631   0.073   5.783   5.106 -0.7615  1.2498  0.6624
   75MOL   H24419632   0.053   5.910   5.370 -0.1974  1.1276 -0.4322
   75MOL   H24519633   7.775   5.905   5.235  0.2473  1.6755 -3.0720
   75MOL   H24619634   7.732   6.112   5.398 -0.4394  0.1852  0.9958
   75MOL   H24719635   0.045   6.170   5.367 -0.9753  0.7961 -1.3814
   75MOL   H24819636   7.766   6.162   5.237 -1.5605  1.4477  1.1094
   75MOL   C24919637   0.257   5.775   5.217 -0.0718  0.0911  0.7023
   75MOL   C25019638   0.306   5.644   5.165  0.0487 -0.3685 -0.0327
   75MOL   O25119639   0.402   5.595   5.258 -0.4109  0.1348 -0.0065
   75MOL   C25219640   0.473   5.478   5.213 -0.1305  0.1453 -0.4153
   75MOL   C25319641   0.563   5.443   5.334  0.0015 -0.7809 -0.5338
   75MOL   H25419642   0.221   5.760   5.318  0.5167 -2.0324  0.6085
   75MOL   H25519643   0.339   5.845   5.233 -2.1119  2.6496  0.3748
   75MOL   H25619644   0.224   5.576   5.145  0.2681 -0.5261 -0.4046
   75MOL   H25719645   0.521   5.472   5.115 -1.7865  1.9216 -1.3713
   75MOL   H25819646   0.400   5.398   5.215 -0.6855  0.6478 -0.5205
   75MOL   H25919647   0.512   5.425   5.428 -1.0919 -0.6135 -1.0940
   75MOL   H26019648   0.608   5.345   5.321  0.0600 -0.9775  1.0637
   75MOL   H26119649   0.640   5.520   5.344  1.3844 -2.0256 -1.4138
   75MOL   H26219650   0.353   5.660   5.068  0.0262  2.6407  0.3861
   76MOL     C119651   0.581   2.628   3.853  0.2855  0.1887 -0.5380
   76MOL     C219652   0.700   2.564   3.924  0.2463 -0.4340 -0.1607
   76MOL     O319653   0.673   2.542   4.062  0.0459  0.0223 -0.1494
   76MOL     C419654   0.639   2.400   4.086 -0.2466 -0.0087 -0.0821
   76MOL     C519655   0.772   2.325   4.120 -0.8182 -0.3371  0.0671
   76MOL     H619656   0.578   2.624   3.744 -1.0873 -0.5049 -0.4921
   76MOL     H719657   0.495   2.566   3.880  0.0538  1.2942  1.3617
   76MOL     H819658   0.718   2.474   3.865  1.3459 -0.1308 -0.2980
   76MOL     H919659   0.586   2.341   4.011 -0.1982 -2.2082  1.5686
   76MOL    H1019660   0.574   2.407   4.173 -0.8652  1.8509 -0.6770
   76MOL    H1119661   0.748   2.222   4.147  0.4002 -1.1547 -1.8442
   76MOL    H1219662   0.842   2.330   4.036  1.2359  1.7470  1.8223
   76MOL    H1319663   0.833   2.370   4.198 -0.5073  0.6658 -0.7561
   76MOL    H1419664   0.563   2.727   3.894  2.3251  0.4455 -0.2399
   76MOL    C1519665   0.826   2.662   3.915  0.0491  0.4230 -0.1899
   76MOL    C1619666   0.886   2.654   3.776 -0.0415 -0.2926 -0.1191
   76MOL    O1719667   0.952   2.528   3.786  0.2004 -0.7031 -0.5635
   76MOL    C1819668   0.993   2.483   3.658  0.2106 -0.1401  0.0218
   76MOL    C1919669   1.053   2.344   3.674 -0.3380  0.2340  0.1082
   76MOL    H2019670   0.902   2.643   3.990  1.6368  0.4493 -1.7685
   76MOL    H2119671   0.786   2.761   3.936 -0.0173 -0.0561  2.0623
   76MOL    H2219672   0.814   2.648   3.694 -0.4975 -0.1941  0.2730
   76MOL    H2319673   1.072   2.541   3.609 -0.4246 -1.0504 -2.1050
   76MOL    H2419674   0.906   2.483   3.592  0.9591 -0.6575 -0.9702
   76MOL    H2519675   1.088   2.309   3.577 -2.3255 -0.9542 -0.2160
   76MOL    H2619676   0.970   2.282   3.708 -0.0568 -1.1157 -1.5583
   76MOL    H2719677   1.144   2.348   3.733  0.6212  0.9449 -1.3735
   76MOL    C2819678   0.980   2.766   3.745 -0.3211  0.4093 -0.0243
   76MOL    C2919679   0.923   2.910   3.721 -0.0990  1.5511  0.2887
   76MOL    O3019680   0.848   2.899   3.603 -0.1124  0.1346  0.4898
   76MOL    C3119681   0.715   2.945   3.615 -0.4507  0.9282  0.4408
   76MOL    C3219682   0.662   2.980   3.474  0.5709  0.4168  0.7700
   76MOL    H3319683   1.046   2.739   3.662  1.3074 -0.1737  1.4169
   76MOL    H3419684   1.052   2.778   3.826  2.4624 -0.2317 -2.3102
   76MOL    H3519685   0.862   2.930   3.809  1.1529  1.3105  1.2136
   76MOL    H3619686   0.708   3.038   3.671 -0.1103  1.7189 -0.8065
   76MOL    H3719687   0.658   2.872   3.672 -0.8680  0.8090 -0.1258
   76MOL    H3819688   0.572   3.039   3.488  0.4680  0.5444 -0.3497
   76MOL    H3919689   0.733   3.043   3.420  0.6603 -0.0492  0.3380
   76MOL    H4019690   0.655   2.893   3.408 -0.1212  0.9328  0.1699
   76MOL    C4119691   1.030   3.024   3.719 -0.6615  0.3783 -0.2174
   76MOL    C4219692   0.985   3.169   3.679 -0.0974 -0.0172 -0.3451
   76MOL    O4319693   1.092   3.244   3.631  0.1960 -0.5937  0.1658
   76MOL    C4419694   1.112   3.243   3.493  0.0612 -0.7856 -0.7382
   76MOL    C4519695   1.016   3.337   3.417 -0.4185 -0.4366  0.5337
   76MOL    H4619696   1.107   2.990   3.649  0.7399 -0.0567  1.5263
   76MOL    H4719697   1.081   3.033   3.815 -0.1740 -0.0364 -0.4331
   76MOL    H4819698   0.915   3.140   3.601  0.3628 -0.8936 -0.4427
   76MOL    H4919699   1.116   3.148   3.439 -3.9229 -0.5323 -1.6346
   76MOL    H5019700   1.212   3.284   3.477  0.7952 -2.5449 -0.7862
   76MOL    H5119701   1.049   3.356   3.314  1.3467  1.8940  1.4805
   76MOL    H5219702   0.921   3.287   3.402 -0.7035  0.6381 -1.3770
   76MOL    H5319703   1.007   3.436   3.462  1.0068 -0.3126  0.5889
   76MOL    C5419704   0.913   3.248   3.794  0.4638  0.5854  0.1892
   76MOL    C5519705   0.837   3.371   3.750 -0.4755  0.1309  0.0650
   76MOL    O5619706   0.782   3.430   3.871  0.3431 -0.0111  0.3780
   76MOL    C5719707   0.870   3.518   3.934 -0.3162  0.2329  0.2609
   76MOL    C5819708   0.800   3.627   4.022  0.7386 -0.9801  0.4833
   76MOL    H5919709   0.977   3.267   3.879 -0.1802  1.2463  0.5335
   76MOL    H6019710   0.843   3.174   3.833 -0.7296  1.0566 -1.0222
   76MOL    H6119711   0.902   3.441   3.698 -1.5365  0.6726 -0.5646
   76MOL    H6219712   0.953   3.556   3.874 -1.0767  0.7350 -0.4798
   76MOL    H6319713   0.927   3.469   4.012 -0.1434  1.3295  0.8394
   76MOL    H6419714   0.767   3.590   4.119  0.3815 -0.0616  0.7185
   76MOL    H6519715   0.861   3.712   4.051 -1.2954  0.9365 -0.6633
   76MOL    H6619716   0.724   3.676   3.961 -1.1747 -3.1870  0.9970
   76MOL    C6719717   0.710   3.334   3.661 -0.2956 -0.3570 -0.3551
   76MOL    C6819718   0.636   3.446   3.580  0.0541  0.0656 -0.3079
   76MOL    O6919719   0.526   3.383   3.519 -0.2649  0.0868 -0.0648
   76MOL    C7019720   0.404   3.377   3.587 -0.1113 -0.2418 -0.1541
   76MOL    C7119721   0.325   3.260   3.549  0.3391 -0.0206 -0.3966
   76MOL    H7219722   0.647   3.271   3.724  1.3852 -0.3294  1.4144
   76MOL    H7319723   0.740   3.266   3.582  1.2710 -0.9150  0.7001
   76MOL    H7419724   0.612   3.530   3.646 -1.0313  0.3623 -1.0678
   76MOL    H7519725   0.346   3.465   3.559  0.6053  0.3633  0.2366
   76MOL    H7619726   0.415   3.389   3.695  0.5527 -2.2359  0.0360
   76MOL    H7719727   0.323   3.250   3.440 -0.4750 -3.2739 -0.1342
   76MOL    H7819728   0.372   3.169   3.587  0.0348  0.5079  1.2860
   76MOL    H7919729   0.224   3.272   3.587  0.1810 -0.8907 -0.5332
   76MOL    C8019730   0.721   3.517   3.475 -0.0660 -0.7203 -0.6875
   76MOL    C8119731   0.668   3.652   3.419  0.4278  0.7177 -0.1636
   76MOL    O8219732   0.742   3.679   3.297 -0.1387  0.2447  0.2531
   76MOL    C8319733   0.672   3.634   3.182 -0.0889 -0.0012  0.0649
   76MOL    C8419734   0.777   3.656   3.075 -0.5560 -0.5057  0.7327
   76MOL    H8519735   0.741   3.449   3.391  0.6411 -1.2101 -0.1280
   76MOL    H8619736   0.817   3.528   3.525 -0.0731  0.3416 -0.9087
   76MOL    H8719737   0.561   3.646   3.401  0.8964  0.3042 -3.0231
   76MOL    H8819738   0.582   3.689   3.156  1.1197  0.9375 -2.3706
   76MOL    H8919739   0.647   3.528   3.182 -1.4250  0.2948 -0.9331
   76MOL    H9019740   0.735   3.631   2.977 -0.2783  3.3123 -0.4139
   76MOL    H9119741   0.814   3.758   3.075 -0.6378 -0.4708  0.1431
   76MOL    H9219742   0.860   3.589   3.098 -0.4710 -1.2500 -1.5661
   76MOL    C9319743   0.696   3.762   3.519  0.2424 -0.0163  0.3173
   76MOL    C9419744   0.658   3.909   3.474 -0.3249  0.5355 -0.7138
   76MOL    O9519745   0.744   4.002   3.530 -0.4049 -0.1214  0.2631
   76MOL    C9619746   0.868   4.004   3.454 -0.4224 -0.2834 -0.5425
   76MOL    C9719747   0.998   4.069   3.512  0.5887  0.5210  0.4028
   76MOL    H9819748   0.799   3.764   3.553  0.4937 -1.5244 -0.3254
   76MOL    H9919749   0.635   3.731   3.605  0.7906  0.9586  1.0702
   76MOL   H10019750   0.663   3.923   3.366  2.5409 -0.8899 -0.7921
   76MOL   H10119751   0.838   4.064   3.368  1.0069 -2.0581 -2.3410
   76MOL   H10219752   0.886   3.904   3.412  0.4641 -0.7188  0.8452
   76MOL   H10319753   1.031   4.021   3.604  2.0535 -0.8061 -0.7998
   76MOL   H10419754   1.075   4.058   3.436  1.3884 -0.0658  1.2918
   76MOL   H10519755   0.974   4.173   3.533 -1.2049  0.4107 -0.9551
   76MOL   C10619756   0.517   3.938   3.519 -0.0749  0.5555 -0.4260
   76MOL   C10719757   0.470   4.084   3.501 -0.2204  0.3448 -1.0870
   76MOL   O10819758   0.335   4.096   3.558  0.5382 -0.0835  0.7679
   76MOL   C10919759   0.333   4.148   3.693 -0.1996  0.3848 -0.6410
   76MOL   C11019760   0.297   4.304   3.701  0.2711  0.1951  0.7533
   76MOL   H11119761   0.521   3.914   3.625  1.0862  1.0616 -0.3555
   76MOL   H11219762   0.448   3.866   3.475 -0.1671 -0.0748  0.7361
   76MOL   H11319763   0.525   4.147   3.572 -1.2688  0.5430 -0.4343
   76MOL   H11419764   0.418   4.122   3.756 -0.4590  2.4879  0.6482
   76MOL   H11519765   0.255   4.095   3.748  0.4602 -0.0577 -0.1294
   76MOL   H11619766   0.379   4.362   3.659  0.3161  1.2999  2.3094
   76MOL   H11719767   0.197   4.324   3.663 -0.4900 -1.4178  1.8343
   76MOL   H11819768   0.286   4.339   3.804 -2.4541 -1.8435  1.2194
   76MOL   C11919769   0.458   4.150   3.361  0.5304  0.2726 -0.4530
   76MOL   C12019770   0.347   4.099   3.263  0.0910  0.2508 -0.0215
   76MOL   O12119771   0.393   3.984   3.198  0.4305 -0.3081 -0.2514
   76MOL   C12219772   0.295   3.892   3.146  0.3853  0.1110 -0.2562
   76MOL   C12319773   0.256   3.930   3.005  0.4295 -0.9190 -0.4594
   76MOL   H12419774   0.554   4.155   3.309 -0.1972  0.0239 -1.8474
   76MOL   H12519775   0.435   4.256   3.371  0.7484  0.3393 -0.6496
   76MOL   H12619776   0.254   4.072   3.312  0.1406  0.0888 -0.0137
   76MOL   H12719777   0.203   3.883   3.203  0.7261 -1.2863  0.0822
   76MOL   H12819778   0.339   3.793   3.153 -3.0769 -1.2386  4.2055
   76MOL   H12919779   0.180   4.007   3.008  0.6890 -0.6894  0.3886
   76MOL   H13019780   0.344   3.938   2.941  0.5902  1.0950 -0.0187
   76MOL   H13119781   0.199   3.842   2.975 -2.1473 -0.0740  1.7553
   76MOL   C13219782   0.314   4.218   3.164  0.6962 -0.2681 -0.1379
   76MOL   C13319783   0.237   4.346   3.211  0.5185  0.1967 -0.1241
   76MOL   O13419784   0.101   4.306   3.247  0.5386 -0.2736 -0.2637
   76MOL   C13519785   0.059   4.308   3.384  0.6825 -0.5697 -0.6967
   76MOL   C13619786   7.749   4.331   3.404 -0.2804 -0.1859 -0.2814
   76MOL   H13719787   0.255   4.186   3.078 -1.2631  1.5183  0.4867
   76MOL   H13819788   0.408   4.254   3.124  0.6338 -0.9703 -0.9187
   76MOL   H13919789   0.302   4.392   3.285  0.5358 -0.7326  0.4420
   76MOL   H14019790   0.093   4.405   3.420  1.1452 -1.1371  0.4268
   76MOL   H14119791   0.090   4.220   3.441  1.1309 -0.0642 -0.1424
   76MOL   H14219792   7.702   4.254   3.342  1.1761 -0.6380 -0.8638
   76MOL   H14319793   7.711   4.330   3.505  0.1832 -1.2729 -0.1027
   76MOL   H14419794   7.723   4.426   3.357 -0.8656  0.0094  0.4300
   76MOL   C14519795   0.237   4.434   3.084  0.8252 -0.1076  0.1620
   76MOL   C14619796   0.191   4.581   3.106  0.6085  0.2605 -0.6357
   76MOL   O14719797   0.164   4.645   2.985  0.7610  0.6528 -0.0943
   76MOL   C14819798   0.027   4.638   2.945  0.2822 -0.0800  0.0476
   76MOL   C14919799   0.024   4.663   2.795  0.1565 -1.0569  0.3805
   76MOL   H15019800   0.177   4.394   3.003 -0.2297 -0.6601  1.2146
   76MOL   H15119801   0.340   4.430   3.047  1.0271 -1.9110  0.8764
   76MOL   H15219802   0.110   4.593   3.179  2.0896  2.4252  0.7362
   76MOL   H15319803   7.810   4.704   3.007 -1.9167 -1.0214 -1.0357
   76MOL   H15419804   7.836   4.536   2.959 -1.4076  0.4582 -0.1408
   76MOL   H15519805   0.092   4.743   2.763 -0.1421 -0.8049  0.3685
   76MOL   H15619806   0.041   4.579   2.728 -0.3293 -0.2581 -0.7579
   76MOL   H15719807   7.770   4.704   2.769  0.7797 -0.0342 -0.3704
   76MOL   C15819808   0.303   4.672   3.157 -0.6257  0.6247  0.0757
   76MOL   C15919809   0.269   4.821   3.200 -0.2179 -0.8654  0.2192
   76MOL   O16019810   0.226   4.896   3.086 -0.1015  0.2935  0.0797
   76MOL   C16119811   0.320   4.931   2.980  0.4738 -0.0451  0.3661
   76MOL   C16219812   0.255   5.020   2.867  0.5952 -0.6962 -0.5749
   76MOL   H16319813   0.388   4.674   3.089 -1.4266 -0.5033 -0.9965
   76MOL   H16419814   0.339   4.628   3.250  0.0805  0.7451 -0.1403
   76MOL   H16519815   0.178   4.828   3.260 -1.6505  0.4527 -2.0402
   76MOL   H16619816   0.358   4.841   2.930 -0.1083  0.3872 -0.8630
   76MOL   H16719817   0.399   4.992   3.025 -1.1100  3.1554 -1.0667
   76MOL   H16819818   0.331   5.054   2.796  1.6047 -0.9765  0.3537
   76MOL   H16919819   0.182   4.960   2.813  3.0259 -3.2895 -1.1027
   76MOL   H17019820   0.212   5.106   2.918  0.4013 -1.8831  1.3131
   76MOL   C17119821   0.374   4.891   3.283  0.5971  1.5073  0.2202
   76MOL   C17219822   0.346   5.035   3.328 -0.0612 -0.6276  0.3707
   76MOL   O17319823   0.461   5.111   3.354  0.2503  0.3710 -0.0868
   76MOL   C17419824   0.511   5.186   3.245 -0.8309 -0.0433  0.1732
   76MOL   C17519825   0.648   5.243   3.286  0.9731  0.5477 -0.4190
   76MOL   H17619826   0.465   4.887   3.222 -1.0409 -0.7457 -2.2079
   76MOL   H17719827   0.398   4.838   3.375  0.3624 -1.0237 -1.1283
   76MOL   H17819828   0.289   5.085   3.250  0.1807  1.1052  1.2746
   76MOL   H17919829   0.450   5.275   3.234  1.6780  1.7739  0.3752
   76MOL   H18019830   0.509   5.140   3.146 -2.3522  1.6323 -0.6006
   76MOL   H18119831   0.718   5.163   3.313  2.1735  1.8393  0.3818
   76MOL   H18219832   0.696   5.305   3.211  0.4115 -0.5178 -1.6698
   76MOL   H18319833   0.646   5.308   3.373 -1.2688  0.4368 -0.3741
   76MOL   C18419834   0.248   5.056   3.447  0.2321  0.2695  0.3717
   76MOL   C18519835   0.192   5.200   3.475 -0.0129  0.1233 -0.6075
   76MOL   O18619836   0.125   5.199   3.604 -0.1069  0.3257 -0.4480
   76MOL   C18719837   0.201   5.231   3.712 -0.4051 -0.4392  0.2550
   76MOL   C18819838   0.103   5.266   3.827 -0.2604  0.4835  0.3538
   76MOL   H18919839   0.308   5.031   3.534  2.6212  1.1197 -0.9864
   76MOL   H19019840   0.169   4.981   3.444  0.7310 -0.2513  0.1761
   76MOL   H19119841   0.272   5.270   3.496  0.8458 -0.3969 -2.1228
   76MOL   H19219842   0.253   5.325   3.695 -1.1114 -0.6679 -3.8417
   76MOL   H19319843   0.278   5.160   3.745  0.7641  0.9753  0.6236
   76MOL   H19419844   0.053   5.179   3.871 -0.6271  0.4439 -0.1385
   76MOL   H19519845   0.169   5.311   3.901  0.8917  1.3654 -1.2046
   76MOL   H19619846   0.022   5.333   3.798 -2.0014 -0.9264  1.8153
   76MOL   C19719847   0.087   5.254   3.381 -0.2141  0.1873 -0.1973
   76MOL   C19819848   0.057   5.402   3.396  0.0327  0.1615 -1.0108
   76MOL   O19919849   7.770   5.434   3.342 -1.1078 -0.1870  0.2657
   76MOL   C20019850   7.658   5.420   3.421  0.6928  0.1349 -0.4156
   76MOL   C20119851   7.543   5.470   3.330 -0.9867 -0.4937 -0.1062
   76MOL   H20219852   7.835   5.201   3.382 -0.4545  0.5900 -1.4381
   76MOL   H20319853   0.132   5.244   3.283 -0.1867  0.7760 -0.2463
   76MOL   H20419854   0.073   5.414   3.504  0.5404 -1.5811 -0.8747
   76MOL   H20519855   7.659   5.478   3.513 -0.0055  0.5390 -0.6575
   76MOL   H20619856   7.633   5.323   3.465  1.8077  0.1376  0.2220
   76MOL   H20719857   7.573   5.569   3.295  1.2643 -0.6755  1.1960
   76MOL   H20819858   7.541   5.415   3.236 -1.6671  0.6923 -0.7935
   76MOL   H20919859   7.441   5.481   3.365 -0.4469  0.1477  1.3032
   76MOL   C21019860   0.165   5.496   3.325 -0.0221  0.2168 -0.1738
   76MOL   C21119861   0.127   5.641   3.353  0.0374 -0.1030  0.7886
   76MOL   O21219862   0.195   5.717   3.258  0.1098 -0.3355 -0.3002
   76MOL   C21319863   0.156   5.852   3.238 -0.4378  0.0891  0.1378
   76MOL   C21419864   0.245   5.912   3.130 -0.2078  0.3935  0.4389
   76MOL   H21519865   0.158   5.486   3.216 -3.6948  3.3304 -0.3473
   76MOL   H21619866   0.269   5.471   3.342 -0.3642  0.4561  2.4702
   76MOL   H21719867   0.019   5.653   3.347 -0.0043 -0.2391  1.2683
   76MOL   H21819868   0.164   5.919   3.324 -1.7972  0.2889  0.1077
   76MOL   H21919869   0.052   5.859   3.208  0.2191  2.2360 -1.7525
   76MOL   H22019870   0.203   6.012   3.118  0.1594  0.4724 -0.2257
   76MOL   H22119871   0.346   5.917   3.171  0.9972  0.0597 -2.4247
   76MOL   H22219872   0.238   5.857   3.037 -0.9602  1.8712 -0.3854
   76MOL   C22319873   0.160   5.696   3.497 -1.1100 -0.2235  0.4333
   76MOL   C22419874   0.308   5.698   3.541 -0.6061 -0.1738 -0.2570
   76MOL   O22519875   0.343   5.566   3.582 -0.7933 -0.0095  0.2567
   76MOL   C22619876   0.476   5.528   3.537 -0.3621  0.5393 -0.0508
   76MOL   C22719877   0.536   5.400   3.615 -0.4281 -0.4365  0.3113
   76MOL   H22819878   0.107   5.649   3.580 -0.1415 -2.4830 -0.1826
   76MOL   H22919879   0.128   5.800   3.493  0.1222  0.1628  0.4169
   76MOL   H23019880   0.366   5.714   3.450  0.8558 -0.5411  0.5959
   76MOL   H23119881   0.542   5.612   3.557  1.4440 -0.7914 -0.2237
   76MOL   H23219882   0.476   5.512   3.429  0.2995  2.0305 -0.2833
   76MOL   H23319883   0.480   5.308   3.601 -0.3529 -0.3986 -0.2331
   76MOL   H23419884   0.636   5.374   3.579 -0.8583 -0.2974 -0.9849
   76MOL   H23519885   0.549   5.419   3.722 -0.2555  0.6981  0.0929
   76MOL   C23619886   0.346   5.807   3.643  0.2463  0.0249 -0.0114
   76MOL   C23719887   0.316   5.953   3.604 -0.0210 -0.5267 -0.6191
   76MOL   O23819888   0.442   6.016   3.566  0.1587  0.1524 -0.2565
   76MOL   C23919889   0.491   5.955   3.450 -0.1408 -0.1389  0.6032
   76MOL   C24019890   0.603   6.053   3.414  0.3584 -0.1627  0.4129
   76MOL   H24119891   0.452   5.799   3.666  0.0384 -1.2035  0.6008
   76MOL   H24219892   0.295   5.786   3.737 -2.1575  1.4131 -0.9497
   76MOL   H24319893   0.240   5.963   3.527 -1.8041  3.0096  1.4897
   76MOL   H24419894   0.417   5.945   3.370 -1.4471 -2.2388  2.0388
   76MOL   H24519895   0.537   5.857   3.462 -0.2049 -0.2583 -0.0857
   76MOL   H24619896   0.691   6.055   3.478  2.7476 -0.1623 -2.6919
   76MOL   H24719897   0.646   6.010   3.323  1.8495 -0.4255  1.2156
   76MOL   H24819898   0.560   6.152   3.400 -1.8817 -1.0938  0.5446
   76MOL   C24919899   0.250   6.027   3.723 -0.2878 -0.2934  0.2370
   76MOL   C25019900   0.104   5.984   3.751 -0.2592 -1.0791 -0.1813
   76MOL   O25119901   0.030   6.015   3.630  0.2325 -0.3252  0.4645
   76MOL   C25219902   7.751   5.940   3.621  0.0679 -0.1015  0.3179
   76MOL   C25319903   7.704   5.940   3.479  0.0293 -0.3966 -0.0778
   76MOL   H25419904   0.252   6.134   3.701 -2.6793 -0.7570 -2.5260
   76MOL   H25519905   0.306   6.020   3.816  2.1151  2.9577 -0.8938
   76MOL   H25619906   0.102   5.881   3.787 -2.3704 -1.7138 -1.9637
   76MOL   H25719907   7.675   5.989   3.682  0.7015  0.0571  0.9930
   76MOL   H25819908   7.762   5.836   3.651 -0.6983 -0.0333  0.8602
   76MOL   H25919909   7.725   6.032   3.424 -1.0611 -0.2567 -0.2745
   76MOL   H26019910   7.760   5.862   3.428 -0.9803 -1.0826 -0.1534
   76MOL   H26119911   7.605   5.895   3.473  0.0778 -0.5054 -0.0593
   76MOL   H26219912   0.086   6.058   3.830  1.9305  0.2152 -0.8656
   77MOL     C119913   3.575   4.917   0.304 -0.5195  0.3809  0.1264
   77MOL     C219914   3.429   4.971   0.323 -0.2328 -0.4761 -0.8067
   77MOL     O319915   3.399   5.026   0.195 -0.8454 -0.3041  0.2398
   77MOL     C419916   3.342   4.934   0.104 -0.8140 -0.0433 -0.2179
   77MOL     C519917   3.280   5.016   7.836 -0.3879  0.0460  0.3254
   77MOL     H619918   3.645   4.998   0.282 -1.3005  1.2328  0.7087
   77MOL     H719919   3.618   4.870   0.393 -0.8471  0.8556  0.5377
   77MOL     H819920   3.361   4.896   0.363  1.1342 -1.7746 -0.8624
   77MOL     H919921   3.264   4.874   0.153 -1.5692  0.7324 -0.4675
   77MOL    H1019922   3.425   4.867   0.083  0.8866  2.0428 -0.2026
   77MOL    H1119923   3.226   4.944   7.774  1.1579 -1.5457  0.8221
   77MOL    H1219924   3.205   5.092   0.017 -0.6219  0.2996 -1.1127
   77MOL    H1319925   3.361   5.064   7.781  1.1345 -0.1784  2.3258
   77MOL    H1419926   3.576   4.836   0.232 -0.4952 -1.4953  2.1931
   77MOL    C1519927   3.432   5.076   0.439  0.5287  0.0176  0.4994
   77MOL    C1619928   3.290   5.141   0.457  0.0980  0.3131 -0.1568
   77MOL    O1719929   3.314   5.280   0.484 -0.1278 -0.2596  0.5068
   77MOL    C1819930   3.333   5.355   0.371 -0.4961 -0.4020 -0.2665
   77MOL    C1919931   3.191   5.393   0.318 -0.9520 -0.4476  0.0243
   77MOL    H2019932   3.514   5.148   0.427 -0.1809  1.6775  4.6397
   77MOL    H2119933   3.461   5.028   0.533 -0.8062  0.7719  1.3185
   77MOL    H2219934   3.225   5.124   0.371 -0.5127 -3.0141  0.9039
   77MOL    H2319935   3.400   5.311   0.298  1.6355 -1.3247  2.1572
   77MOL    H2419936   3.392   5.443   0.396 -0.4269 -0.1770 -1.2063
   77MOL    H2519937   3.211   5.464   0.238  2.6530  0.4771  1.6484
   77MOL    H2619938   3.126   5.446   0.388 -0.1293 -1.4613  1.5917
   77MOL    H2719939   3.134   5.312   0.271 -1.9103 -0.0693  0.5262
   77MOL    C2819940   3.213   5.076   0.576 -0.3851  0.8057 -0.7455
   77MOL    C2919941   3.066   5.127   0.595 -0.3804  0.2171  0.1022
   77MOL    O3019942   3.008   5.061   0.703 -0.2378 -0.6516  0.5776
   77MOL    C3119943   3.035   5.114   0.833 -0.2782  0.0793  0.6170
   77MOL    C3219944   3.021   4.996   0.931  0.8531  0.5387 -0.3100
   77MOL    H3319945   3.270   5.095   0.667  2.3659 -1.9895 -1.7990
   77MOL    H3419946   3.217   4.968   0.562 -0.7506  0.4961  1.2859
   77MOL    H3519947   3.059   5.235   0.606 -0.7039  0.0143  1.9301
   77MOL    H3619948   2.960   5.189   0.859  0.9205  1.2925  0.6509
   77MOL    H3719949   3.125   5.177   0.836 -0.4004  0.3874 -1.5166
   77MOL    H3819950   3.108   4.930   0.923 -0.2975 -1.0657  0.2068
   77MOL    H3919951   3.018   5.033   1.033 -0.4690  1.9029 -0.8191
   77MOL    H4019952   2.934   4.935   0.907  0.8380  0.2794  0.3861
   77MOL    C4119953   2.972   5.094   0.473  0.0229  0.0266  0.4909
   77MOL    C4219954   2.834   5.164   0.491  0.3120 -0.4112  0.2241
   77MOL    O4319955   2.747   5.129   0.375  0.3819  0.0795 -0.4873
   77MOL    C4419956   2.612   5.127   0.401 -0.6074  0.1900 -0.2792
   77MOL    C4519957   2.544   5.077   0.270 -0.4422  0.6969  0.1247
   77MOL    H4619958   2.961   4.989   0.449 -0.6245  0.2804 -0.3237
   77MOL    H4719959   3.006   5.152   0.388 -3.3698  1.8290  0.2523
   77MOL    H4819960   2.800   5.127   0.587 -1.3400  1.7644  0.5083
   77MOL    H4919961   2.579   5.226   0.433  0.8121  1.3640 -2.3386
   77MOL    H5019962   2.581   5.066   0.485  0.0200  1.7189  1.0792
   77MOL    H5119963   2.550   4.969   0.260  0.2658  0.7154  0.3299
   77MOL    H5219964   2.441   5.113   0.280 -0.2186  0.6313  3.3772
   77MOL    H5319965   2.579   5.127   0.180 -0.2864 -0.2156 -0.3175
   77MOL    C5419966   2.833   5.319   0.513 -0.3067 -0.3153  0.0207
   77MOL    C5519967   2.808   5.382   0.655  0.7221 -0.7071 -0.4108
   77MOL    O5619968   2.665   5.364   0.684  0.4088  0.4327 -0.4488
   77MOL    C5719969   2.646   5.268   0.785 -0.0774  0.1928 -0.1692
   77MOL    C5819970   2.493   5.234   0.805 -0.2528  0.6248  0.1975
   77MOL    H5919971   2.755   5.363   0.451  0.0445 -0.0513 -0.2300
   77MOL    H6019972   2.926   5.362   0.477 -0.4642 -0.2835 -0.3542
   77MOL    H6119973   2.878   5.331   0.721  1.8643  2.8067  1.1820
   77MOL    H6219974   2.680   5.296   0.885 -2.8600  1.1393  0.5600
   77MOL    H6319975   2.687   5.170   0.764  1.7922  0.8313  0.3399
   77MOL    H6419976   2.488   5.159   0.884  0.0478 -0.2397 -0.5971
   77MOL    H6519977   2.433   5.320   0.835  0.5344  1.2712 -0.0448
   77MOL    H6619978   2.454   5.213   0.706  0.0206 -0.7650  0.3804
   77MOL    C6719979   2.832   5.530   0.675  0.1400 -0.0949  0.1461
   77MOL    C6819980   2.976   5.572   0.720  0.5429 -0.0554  0.0470
   77MOL    O6919981   3.004   5.529   0.850 -0.0366 -0.2368  0.3101
   77MOL    C7019982   3.128   5.466   0.865  0.4557  0.1332 -0.7029
   77MOL    C7119983   3.145   5.407   1.005 -0.3507  0.3366  0.4435
   77MOL    H7219984   2.767   5.578   0.748  2.2804  2.0006  0.7459
   77MOL    H7319985   2.815   5.576   0.578  1.8254 -0.6630 -0.4374
   77MOL    H7419986   3.038   5.523   0.645  0.2706 -1.9518  1.0326
   77MOL    H7519987   3.203   5.543   0.849  0.2614  0.1126 -1.7267
   77MOL    H7619988   3.145   5.393   0.786  2.8197 -0.5238  0.3853
   77MOL    H7719989   3.073   5.328   1.026 -0.2389  0.0877 -0.0982
   77MOL    H7819990   3.240   5.358   1.029 -1.1916 -0.4849  2.1514
   77MOL    H7919991   3.123   5.484   1.079 -2.3973  1.0111 -0.8409
   77MOL    C8019992   3.011   5.723   0.719 -0.1017 -0.2316 -0.5239
   77MOL    C8119993   2.967   5.786   0.583 -0.1001 -0.3558 -0.5458
   77MOL    O8219994   3.030   5.710   0.476 -0.7696 -0.0982  0.1965
   77MOL    C8319995   3.003   5.733   0.340  0.2854 -0.1187 -0.2626
   77MOL    C8419996   3.140   5.766   0.280  0.4192 -0.3670 -0.0127
   77MOL    H8519997   3.119   5.713   0.729 -0.1542 -1.1991 -0.8789
   77MOL    H8619998   2.961   5.768   0.805 -1.0426 -0.6644 -0.8363
   77MOL    H8719999   2.858   5.780   0.579 -0.0604 -0.2554 -2.4516
   77MOL    H8820000   2.935   5.818   0.336 -3.1816 -2.7634 -0.3711
   77MOL    H8920001   2.941   5.655   0.295  0.2958 -0.2148 -0.1108
   77MOL    H9020002   3.132   5.787   0.174 -1.7619  0.7195  0.3352
   77MOL    H9120003   3.170   5.857   0.332  0.8235 -0.2051 -0.5278
   77MOL    H9220004   3.220   5.695   0.302  2.6781  1.2946 -2.5484
   77MOL    C9320005   3.012   5.932   0.575  0.3648 -0.0174 -0.3623
   77MOL    C9420006   2.948   6.018   0.688  0.0632 -0.3863  0.3510
   77MOL    O9520007   2.799   6.006   0.676  0.6321  0.5624  0.1233
   77MOL    C9620008   2.729   6.013   0.796  0.2348 -0.4166  0.0994
   77MOL    C9720009   2.627   5.894   0.788 -0.2340 -0.2468  0.4148
   77MOL    H9820010   2.994   5.968   0.474 -0.8377 -0.1072 -0.1793
   77MOL    H9920011   3.121   5.927   0.579  0.3647 -0.0086 -0.3404
   77MOL   H10020012   2.986   5.989   0.786  1.2038 -1.0965 -0.2893
   77MOL   H10120013   2.675   6.108   0.792  0.0937 -0.5677 -2.9991
   77MOL   H10220014   2.785   5.998   0.888 -0.6157 -1.4949  0.4492
   77MOL   H10320015   2.568   5.874   0.877 -1.0609 -3.3338 -0.7608
   77MOL   H10420016   2.552   5.945   0.727  0.4680 -0.5973 -0.7689
   77MOL   H10520017   2.660   5.798   0.749 -2.4618 -1.0335  0.3973
   77MOL   C10620018   2.983   6.168   0.658 -0.5885 -0.3961  0.4826
   77MOL   C10720019   3.055   6.245   0.776  0.0779  0.7791  0.6695
   77MOL   O10820020   3.177   6.178   0.809 -0.0743 -0.0149 -0.5832
   77MOL   C10920021   3.286   6.191   0.724 -0.5287 -0.2141  0.3826
   77MOL   C11020022   3.401   6.118   0.805 -0.1602  0.2677  0.3328
   77MOL   H11120023   2.889   6.223   0.649  1.0769  2.6716  1.3259
   77MOL   H11220024   3.042   6.171   0.566  0.6448  0.2777  1.2897
   77MOL   H11320025   3.063   6.351   0.752  0.4870  0.2957 -1.4618
   77MOL   H11420026   3.315   6.296   0.719 -2.7055  0.3665 -0.3079
   77MOL   H11520027   3.274   6.153   0.622 -0.0751  0.1290  0.2000
   77MOL   H11620028   3.468   6.073   0.732 -0.2457  1.1909 -0.3120
   77MOL   H11720029   3.457   6.186   0.868 -1.0600 -0.9018  2.4730
   77MOL   H11820030   3.366   6.041   0.874  1.1673 -1.6541 -1.0873
   77MOL   C11920031   2.972   6.248   0.903 -0.7074  0.5137 -0.0902
   77MOL   C12020032   3.019   6.355   0.998  0.1856  0.3720 -0.6978
   77MOL   O12120033   3.005   6.486   0.940  0.3419  0.3290 -0.0872
   77MOL   C12220034   2.955   6.591   1.022 -0.1998  0.7672  0.1268
   77MOL   C12320035   2.961   6.722   0.936 -0.5103 -0.5544  0.6278
   77MOL   H12420036   2.985   6.149   0.948 -1.0352  0.0481 -0.9954
   77MOL   H12520037   2.868   6.255   0.872 -1.4789 -1.0767  1.9876
   77MOL   H12620038   2.953   6.348   1.085  1.7024 -0.5879  0.4197
   77MOL   H12720039   3.021   6.610   1.106 -0.2348  0.2771  0.2658
   77MOL   H12820040   2.849   6.572   1.041  0.0482 -1.6324 -0.7294
   77MOL   H12920041   2.880   6.790   0.959 -1.0308  0.3309 -3.5571
   77MOL   H13020042   3.056   6.775   0.946 -1.2129  0.7042  0.6468
   77MOL   H13120043   2.950   6.707   0.829 -1.5430 -0.2051  0.6892
   77MOL   C13220044   3.167   6.350   1.050  0.2304 -0.5586  0.4886
   77MOL   C13320045   3.192   6.223   1.133  0.1945  0.9465  0.2622
   77MOL   O13420046   3.090   6.221   1.237  0.1518 -0.7395 -0.0936
   77MOL   C13520047   3.013   6.104   1.250 -0.0029 -0.7771 -0.0543
   77MOL   C13620048   2.920   6.103   1.375  0.0648  0.6265  0.2991
   77MOL   H13720049   3.191   6.442   1.104 -0.9311  0.1098 -0.1220
   77MOL   H13820050   3.234   6.348   0.964 -1.7933  0.4550 -1.1501
   77MOL   H13920051   3.184   6.134   1.070 -2.5577  1.9241 -0.8577
   77MOL   H14020052   3.077   6.016   1.245  3.0923  1.5245 -4.3960
   77MOL   H14120053   2.945   6.095   1.165  0.3349 -0.8292 -0.3197
   77MOL   H14220054   2.971   6.093   1.471  2.3552  0.8554 -0.8434
   77MOL   H14320055   2.862   6.195   1.369  1.3742  1.5951  1.8945
   77MOL   H14420056   2.855   6.016   1.369 -0.6461  1.2565 -1.2760
   77MOL   C14520057   3.331   6.217   1.199 -0.3792 -0.1296 -0.4707
   77MOL   C14620058   3.365   6.093   1.292 -0.4722 -0.5844  0.3500
   77MOL   O14720059   3.493   6.114   1.349 -0.2767 -0.2542  0.0713
   77MOL   C14820060   3.505   6.224   1.447  0.3450 -0.2697 -0.0066
   77MOL   C14920061   3.655   6.225   1.500 -0.4609 -0.3730  0.3286
   77MOL   H15020062   3.344   6.313   1.250  0.6194  1.0282 -2.8359
   77MOL   H15120063   3.401   6.213   1.116  0.3946  0.7885  0.1233
   77MOL   H15220064   3.285   6.083   1.366 -0.0435 -2.3305  0.6110
   77MOL   H15320065   3.436   6.200   1.528 -1.7906  1.5267 -1.2670
   77MOL   H15420066   3.500   6.325   1.406 -0.0737  0.0327  0.7892
   77MOL   H15520067   3.661   6.130   1.554  0.1698  0.0831  1.0891
   77MOL   H15620068   3.734   6.229   1.425 -1.1569 -1.8821 -0.5080
   77MOL   H15720069   3.675   6.306   1.571  4.0191 -0.0437 -1.1530
   77MOL   C15820070   3.363   5.962   1.219 -0.1267  0.9345  0.4725
   77MOL   C15920071   3.397   5.831   1.303 -0.2845  0.4872 -0.0066
   77MOL   O16020072   3.421   5.732   1.206 -0.0900 -0.0737  0.1027
   77MOL   C16120073   3.550   5.720   1.161 -0.2905  0.3196  0.5203
   77MOL   C16220074   3.567   5.574   1.127 -0.8423 -0.1325  0.5445
   77MOL   H16320075   3.445   5.974   1.149  0.5615  3.9867  1.7332
   77MOL   H16420076   3.273   5.950   1.159 -0.4817 -0.8764  1.3199
   77MOL   H16520077   3.482   5.851   1.369  0.4898 -1.0926 -0.4921
   77MOL   H16620078   3.621   5.751   1.238 -1.7283  0.5919  1.7657
   77MOL   H16720079   3.562   5.781   1.072 -2.4333  0.8799  0.6022
   77MOL   H16820080   3.548   5.510   1.213 -2.3408 -2.5699 -1.4964
   77MOL   H16920081   3.504   5.538   1.045 -1.0112 -1.0690  1.0760
   77MOL   H17020082   3.672   5.556   1.108 -1.0108 -1.3652  0.6993
   77MOL   C17120083   3.279   5.789   1.395  0.3503  0.2609 -0.0558
   77MOL   C17220084   3.278   5.648   1.467  0.7056  0.5429 -0.5011
   77MOL   O17320085   3.150   5.610   1.520 -0.1005  0.4013  0.2525
   77MOL   C17420086   3.059   5.701   1.573  0.0409  0.5422 -0.0670
   77MOL   C17520087   2.981   5.634   1.684  0.0384 -0.1645 -0.3976
   77MOL   H17620088   3.192   5.810   1.334  0.0674  1.4614  0.7438
   77MOL   H17720089   3.268   5.867   1.469  0.6137  1.2900 -1.0873
   77MOL   H17820090   3.317   5.574   1.397 -0.4950 -0.9968  0.4427
   77MOL   H17920091   3.003   5.751   1.494 -0.1404  2.0756  1.0216
   77MOL   H18020092   3.118   5.782   1.617  1.6168 -0.3399 -0.5246
   77MOL   H18120093   2.936   5.543   1.644 -1.5967  0.0392  0.9504
   77MOL   H18220094   3.034   5.623   1.778 -1.0830 -1.2812  0.1176
   77MOL   H18320095   2.895   5.700   1.699 -0.6478 -0.9788 -0.7101
   77MOL   C18420096   3.372   5.658   1.595  0.7447  0.5508 -0.3585
   77MOL   C18520097   3.430   5.528   1.641  0.0988 -0.8413 -0.4190
   77MOL   O18620098   3.454   5.544   1.776  0.2853  0.5161 -0.1748
   77MOL   C18720099   3.460   5.428   1.859 -0.0286 -0.0115 -0.0504
   77MOL   C18820100   3.527   5.472   2.000 -0.5241  0.0077 -0.0712
   77MOL   H18920101   3.325   5.699   1.684  0.0282 -0.7826 -0.1054
   77MOL   H19020102   3.459   5.722   1.581  0.8330  0.6318  0.5226
   77MOL   H19120103   3.357   5.447   1.636  1.8125 -2.3570 -1.3043
   77MOL   H19220104   3.498   5.337   1.813  0.3150  0.4734 -0.7345
   77MOL   H19320105   3.359   5.402   1.892 -0.4215  2.3107  0.6978
   77MOL   H19420106   3.483   5.558   2.050 -0.4447  0.9031 -1.4916
   77MOL   H19520107   3.536   5.393   2.074 -1.0897  0.3407  0.3456
   77MOL   H19620108   3.630   5.505   1.981 -0.0815 -2.2998 -1.9937
   77MOL   C19720109   3.553   5.464   1.573  0.7165  0.7295 -0.1119
   77MOL   C19820110   3.681   5.537   1.603 -0.8888 -0.2663  0.0099
   77MOL   O19920111   3.679   5.647   1.511 -0.1407 -0.0573  0.4595
   77MOL   C20020112   3.785   5.747   1.528  0.3610 -0.2942 -0.5510
   77MOL   C20120113   3.760   5.871   1.439 -0.5213 -0.2796 -0.1051
   77MOL   H20220114   3.536   5.452   1.466  0.6478 -1.3381  0.1081
   77MOL   H20320115   3.568   5.366   1.618 -0.7345  0.4738 -0.1601
   77MOL   H20420116   3.702   5.577   1.702  2.7552 -1.8521 -0.0445
   77MOL   H20520117   3.874   5.698   1.486  0.1617  1.1186 -2.6803
   77MOL   H20620118   3.785   5.783   1.631 -0.6608  1.2324 -1.0805
   77MOL   H20720119   3.668   5.923   1.466 -0.7679 -1.4591  1.3641
   77MOL   H20820120   3.834   5.946   1.466  1.2876 -2.3873  0.9784
   77MOL   H20920121   3.766   5.848   1.332 -0.7363  3.5726 -1.0128
   77MOL   C21020122   3.808   5.454   1.565 -0.8014 -0.3968 -0.3448
   77MOL   C21120123   3.835   5.316   1.631  0.2106  0.1145 -0.7221
   77MOL   O21220124   3.844   5.341   1.773  0.1143  0.1496 -0.4705
   77MOL   C21320125   3.800   5.236   1.855  0.0331 -0.4785 -0.4385
   77MOL   C21420126   3.885   5.223   1.982 -0.2875  0.7634 -0.6489
   77MOL   H21520127   3.897   5.507   1.600 -1.6194  0.2875  0.7395
   77MOL   H21620128   3.825   5.465   1.458  0.7402 -0.2748 -0.0989
   77MOL   H21720129   3.750   5.251   1.610  0.2195 -0.6191  1.3747
   77MOL   H21820130   3.792   5.136   1.810  0.2101 -0.7621  0.1536
   77MOL   H21920131   3.700   5.262   1.889  0.9772  1.1269  1.1846
   77MOL   H22020132   3.978   5.169   1.964 -1.4992 -2.0457  1.1410
   77MOL   H22120133   3.910   5.322   2.020 -0.6408  0.0015  1.6538
   77MOL   H22220134   3.835   5.169   2.062  0.8328 -0.1774 -0.5769
   77MOL   C22320135   3.964   5.250   1.577 -0.4739  0.1347  0.7763
   77MOL   C22420136   3.947   5.101   1.542 -0.3219 -0.3053 -0.4936
   77MOL   O22520137   4.081   5.054   1.514 -0.8552 -0.0094 -0.0641
   77MOL   C22620138   4.102   4.924   1.550 -0.0597 -0.4066 -0.3124
   77MOL   C22720139   4.222   4.882   1.471  0.3415  0.1345  0.5587
   77MOL   H22820140   4.051   5.255   1.642  0.6625  3.5959 -0.9318
   77MOL   H22920141   3.997   5.292   1.482  0.8607 -1.6811  0.4088
   77MOL   H23020142   3.914   5.051   1.633 -2.8389  0.1041 -1.1437
   77MOL   H23120143   4.018   4.859   1.527 -0.5235  0.7441 -1.9352
   77MOL   H23220144   4.128   4.907   1.655  1.5725 -1.8459 -0.9226
   77MOL   H23320145   4.221   4.863   1.364  1.0121  1.5963  0.2755
   77MOL   H23420146   4.306   4.949   1.490  1.6182 -0.9946 -0.9652
   77MOL   H23520147   4.260   4.785   1.503 -1.0265 -0.4374  0.4765
   77MOL   C23620148   3.856   5.061   1.420 -0.2890  0.6410  0.8203
   77MOL   C23720149   3.756   4.940   1.437  0.3961  0.3190 -0.3086
   77MOL   O23820150   3.676   4.904   1.316  0.1951  0.3895  0.3580
   77MOL   C23920151   3.747   4.833   1.215 -0.4129  0.2999 -1.3238
   77MOL   C24020152   3.681   4.848   1.075 -0.4195  0.5165  0.5473
   77MOL   H24120153   3.933   5.036   1.347 -0.2043  1.5823  0.5782
   77MOL   H24220154   3.797   5.147   1.389 -0.1807  0.9895  1.5612
   77MOL   H24320155   3.814   4.854   1.470  0.1418  0.4227  0.4159
   77MOL   H24420156   3.758   4.729   1.247  1.5687  0.5547 -1.0987
   77MOL   H24520157   3.845   4.878   1.205 -0.0466 -0.7101 -2.4189
   77MOL   H24620158   3.577   4.816   1.073  0.4426 -2.4348  0.8849
   77MOL   H24720159   3.699   4.948   1.036  1.3609  0.2779  0.7239
   77MOL   H24820160   3.735   4.772   1.019  0.8286  0.0370  2.3711
   77MOL   C24920161   3.649   4.979   1.537  0.0114  0.3878  0.5568
   77MOL   C25020162   3.547   4.873   1.571  0.1199 -0.7472  0.0755
   77MOL   O25120163   3.614   4.767   1.637  0.4457 -0.3642 -0.4315
   77MOL   C25220164   3.534   4.653   1.655 -0.1512 -0.1118  0.1498
   77MOL   C25320165   3.613   4.550   1.746 -0.0305 -0.3732  0.3858
   77MOL   H25420166   3.590   5.064   1.504 -0.8263  0.2393  1.6775
   77MOL   H25520167   3.695   5.000   1.633  0.5291  3.3308 -0.2884
   77MOL   H25620168   3.470   4.914   1.637 -0.9703 -2.1852 -0.2667
   77MOL   H25720169   3.514   4.622   1.553 -0.1560 -1.1792  0.4597
   77MOL   H25820170   3.437   4.672   1.700  0.2558  2.8004 -0.0945
   77MOL   H25920171   3.715   4.547   1.706  1.1735  1.3188  3.1359
   77MOL   H26020172   3.607   4.579   1.851  2.2415 -3.0771  1.3364
   77MOL   H26120173   3.586   4.445   1.738  2.8220 -1.1626  0.2758
   77MOL   H26220174   3.489   4.837   1.486 -3.2979 -1.3149  2.5399
   78MOL     C120175   6.101   2.880   0.048  0.2554 -0.2267  0.1755
   78MOL     C220176   6.203   2.820   0.139  0.2186 -0.4770  0.6897
   78MOL     O320177   6.313   2.782   0.057  0.5922 -0.5116  0.2221
   78MOL     C420178   6.435   2.791   0.128 -0.3787  0.2022  0.2295
   78MOL     C520179   6.547   2.751   0.041 -0.2715  0.1847 -0.4340
   78MOL     H620180   6.008   2.914   0.094 -0.1839  0.3871 -1.1372
   78MOL     H720181   6.141   2.968   7.840 -1.3048 -1.2669 -2.9055
   78MOL     H820182   6.233   2.893   0.214  2.0534 -1.2487  0.7245
   78MOL     H920183   6.442   2.743   0.225 -0.0983  3.6205  1.9967
   78MOL    H1020184   6.454   2.894   0.158 -0.8136  0.1826  0.5772
   78MOL    H1120185   6.543   2.804   7.789  1.2710  1.2632  0.0870
   78MOL    H1220186   6.645   2.741   0.088 -1.4430 -5.2336  1.2887
   78MOL    H1320187   6.523   2.645   0.032 -1.6371  0.5468 -1.2074
   78MOL    H1420188   6.075   2.809   7.814  1.5213 -0.9614  0.4098
   78MOL    C1520189   6.138   2.697   0.202 -0.1517  0.1754  0.5469
   78MOL    C1620190   6.044   2.733   0.326  0.0219 -0.0057  0.4867
   78MOL    O1720191   6.053   2.630   0.425 -0.3362 -0.0032  0.7418
   78MOL    C1820192   6.159   2.653   0.514  0.6025  0.9333 -0.3864
   78MOL    C1920193   6.125   2.588   0.647 -0.0856 -0.4128  0.7480
   78MOL    H2020194   6.224   2.643   0.242 -0.4887 -0.4677  0.4000
   78MOL    H2120195   6.081   2.637   0.132  1.1338  2.1493 -2.3094
   78MOL    H2220196   6.071   2.833   0.360  2.4946  0.3351 -2.2516
   78MOL    H2320197   6.173   2.758   0.542  1.6450  0.4385  0.9573
   78MOL    H2420198   6.255   2.620   0.473  1.0237  0.6639  0.8179
   78MOL    H2520199   6.190   2.609   0.732  1.1755 -0.2662 -0.2395
   78MOL    H2620200   6.129   2.479   0.639 -0.6248 -0.3830  0.0608
   78MOL    H2720201   6.024   2.608   0.684 -0.1579 -0.6780  0.6976
   78MOL    C2820202   5.889   2.729   0.289 -0.4982  0.9160 -0.0967
   78MOL    C2920203   5.797   2.732   0.404 -1.5915 -0.4416 -0.0056
   78MOL    O3020204   5.670   2.734   0.353 -0.1991  0.6614 -0.4424
   78MOL    C3120205   5.606   2.610   0.347  0.7619  1.1326 -0.2478
   78MOL    C3220206   5.506   2.624   0.229  0.8446  0.9261 -0.0669
   78MOL    H3320207   5.867   2.633   0.243  1.4766 -1.3001  3.3840
   78MOL    H3420208   5.866   2.811   0.221 -2.2800  1.2782  0.9128
   78MOL    H3520209   5.808   2.644   0.467  0.6462  0.5851  1.0910
   78MOL    H3620210   5.550   2.597   0.439  0.6674  0.2581 -0.4204
   78MOL    H3720211   5.669   2.524   0.321 -0.9423 -0.0738 -0.4849
   78MOL    H3820212   5.560   2.646   0.137  0.2161 -0.8248 -0.8775
   78MOL    H3920213   5.445   2.535   0.213  0.8509  0.5125  2.1644
   78MOL    H4020214   5.443   2.712   0.239  0.9784  1.0874 -0.6154
   78MOL    C4120215   5.804   2.861   0.487  0.4031  0.1131 -0.2331
   78MOL    C4220216   5.709   2.874   0.610  0.2507  0.7863 -0.8125
   78MOL    O4320217   5.742   2.994   0.674  0.2608  0.1940 -0.2684
   78MOL    C4420218   5.686   3.115   0.624  0.1292 -0.5393 -0.7642
   78MOL    C4520219   5.706   3.232   0.730  0.6275  1.0016 -0.5361
   78MOL    H4620220   5.778   2.941   0.417 -2.6495  0.0307  0.7247
   78MOL    H4720221   5.909   2.879   0.511  0.4767 -0.5385 -0.0708
   78MOL    H4820222   5.607   2.867   0.572 -0.2196 -5.1896  0.8985
   78MOL    H4920223   5.578   3.103   0.610  0.5079 -3.3230 -1.5391
   78MOL    H5020224   5.746   3.150   0.540  0.2539  0.8715 -0.0999
   78MOL    H5120225   5.666   3.201   0.827  1.4214  0.2638 -0.4458
   78MOL    H5220226   5.815   3.240   0.732  0.6949  0.6412 -2.6574
   78MOL    H5320227   5.676   3.336   0.717  0.6001  1.0598 -0.0407
   78MOL    C5420228   5.736   2.762   0.713  0.2493  0.2820 -0.2065
   78MOL    C5520229   5.638   2.755   0.841  0.9930  0.4487  0.2928
   78MOL    O5620230   5.690   2.659   0.927 -0.2120  0.0573 -0.3900
   78MOL    C5720231   5.816   2.684   0.990  0.2954  0.0100 -0.2148
   78MOL    C5820232   5.858   2.552   1.046 -0.3636  0.2706  0.1592
   78MOL    H5920233   5.840   2.782   0.740 -0.1420  0.5445  1.1963
   78MOL    H6020234   5.738   2.662   0.671 -0.1865 -0.9467  2.5591
   78MOL    H6120235   5.649   2.855   0.884  0.9108 -0.0407  1.4778
   78MOL    H6220236   5.793   2.746   1.077  3.1059  0.3459  0.3567
   78MOL    H6320237   5.901   2.719   0.932  0.3110 -2.4756 -1.7738
   78MOL    H6420238   5.778   2.515   1.109 -0.0240 -0.0988  0.3689
   78MOL    H6520239   5.864   2.474   0.971  0.2802 -0.9070  1.4258
   78MOL    H6620240   5.945   2.568   1.109 -0.6067  1.0679  0.2985
   78MOL    C6720241   5.493   2.725   0.806 -0.2024 -0.1853 -0.6226
   78MOL    C6820242   5.404   2.757   0.922 -0.1944  0.4272 -1.1454
   78MOL    O6920243   5.279   2.688   0.917  0.2257 -0.5034  0.0226
   78MOL    C7020244   5.285   2.547   0.919  0.0400  0.1337 -0.5928
   78MOL    C7120245   5.156   2.509   0.992  0.3296 -0.7026 -0.3246
   78MOL    H7220246   5.489   2.621   0.772 -0.3571 -0.5766  0.5524
   78MOL    H7320247   5.449   2.786   0.728 -0.5359 -1.5428 -1.5252
   78MOL    H7420248   5.456   2.738   1.016  0.6029  0.3331 -1.6010
   78MOL    H7520249   5.377   2.516   0.969  0.0331 -2.0191 -1.8389
   78MOL    H7620250   5.282   2.513   0.815  0.7312  1.2097 -0.9719
   78MOL    H7720251   5.181   2.506   1.098 -0.9241  0.2065  0.0104
   78MOL    H7820252   5.073   2.577   0.973  0.3866 -0.3732  0.5800
   78MOL    H7920253   5.112   2.415   0.958 -0.4260 -0.4755  0.0279
   78MOL    C8020254   5.382   2.911   0.936  0.3500  0.1815  0.6662
   78MOL    C8120255   5.278   2.949   1.048  0.0720 -0.7911  0.0765
   78MOL    O8220256   5.254   3.087   1.028 -0.3751  0.0120  0.2584
   78MOL    C8320257   5.147   3.122   0.934 -0.2994  0.3244  0.0279
   78MOL    C8420258   5.003   3.089   0.992  0.9682  0.1102  0.1178
   78MOL    H8520259   5.336   2.945   0.843 -0.4867 -0.8725  0.6719
   78MOL    H8620260   5.471   2.970   0.954  0.1833  0.6636 -0.0739
   78MOL    H8720261   5.185   2.894   1.037 -1.1383  1.0208  0.9815
   78MOL    H8820262   5.170   3.074   0.839  0.4724 -0.9821  0.8597
   78MOL    H8920263   5.159   3.229   0.917 -2.2385  0.2276 -2.1325
   78MOL    H9020264   4.979   2.984   1.010 -2.9933  1.1921  1.7455
   78MOL    H9120265   4.980   3.137   1.087  1.4012  0.3528  0.1026
   78MOL    H9220266   4.924   3.121   0.925 -0.2772  0.9113  1.9275
   78MOL    C9320267   5.334   2.934   1.193 -0.4756  0.0359  0.6933
   78MOL    C9420268   5.236   2.935   1.302 -0.3309 -0.0125 -1.0353
   78MOL    O9520269   5.326   2.956   1.417 -0.0042 -0.4757  0.9754
   78MOL    C9620270   5.284   3.073   1.483  0.4527  0.3537  0.2422
   78MOL    C9720271   5.367   3.079   1.608  0.2137  0.0928 -0.7521
   78MOL    H9820272   5.412   3.009   1.202 -1.0671  0.8418 -0.7752
   78MOL    H9920273   5.386   2.839   1.202  3.0067  1.7811 -0.1955
   78MOL   H10020274   5.166   3.018   1.292 -0.0562  0.8144  2.9401
   78MOL   H10120275   5.176   3.074   1.498  0.0498 -0.1630 -2.3241
   78MOL   H10220276   5.306   3.160   1.421 -2.5499 -0.0576 -1.5020
   78MOL   H10320277   5.323   3.150   1.678 -1.5686 -2.3988  0.7402
   78MOL   H10420278   5.356   2.977   1.647  0.3212  0.5047  0.3789
   78MOL   H10520279   5.471   3.101   1.585  0.1868  0.1445 -0.8223
   78MOL   C10620280   5.181   2.792   1.334  0.5392  0.1887 -0.1810
   78MOL   C10720281   5.085   2.782   1.463  0.1425  0.2099 -0.0676
   78MOL   O10820282   5.033   2.651   1.481  0.2978  0.4840 -0.1524
   78MOL   C10920283   5.124   2.569   1.562 -0.2619  0.4567  0.6271
   78MOL   C11020284   5.027   2.451   1.591  0.2786 -0.4502 -0.1773
   78MOL   H11120285   5.258   2.719   1.359  2.2010  2.4491  1.5005
   78MOL   H11220286   5.137   2.754   1.242  0.5102 -1.9519  0.6798
   78MOL   H11320287   5.151   2.818   1.542 -0.7540  1.2708  0.1956
   78MOL   H11420288   5.171   2.611   1.650  3.2134 -2.6395  0.4118
   78MOL   H11520289   5.210   2.538   1.502 -0.3179 -0.0947  0.8284
   78MOL   H11620290   5.072   2.374   1.654 -0.8841 -0.9473  0.0804
   78MOL   H11720291   4.940   2.483   1.649 -0.1085  2.2497 -2.1666
   78MOL   H11820292   4.993   2.416   1.494  0.5696  1.3961 -0.9612
   78MOL   C11920293   4.956   2.870   1.458 -0.5586  0.0177 -0.2884
   78MOL   C12020294   4.887   2.898   1.600 -0.6537 -0.3930  0.0977
   78MOL   O12120295   4.748   2.897   1.571 -0.5172  0.2655 -0.2044
   78MOL   C12220296   4.686   2.773   1.568  0.8434 -0.7987  0.4901
   78MOL   C12320297   4.539   2.804   1.537  0.3315 -0.0044  0.9466
   78MOL   H12420298   4.894   2.814   1.388 -2.1312 -0.9844  1.8259
   78MOL   H12520299   4.980   2.966   1.412 -0.7900  0.3689  0.3133
   78MOL   H12620300   4.914   2.816   1.666  3.2649  1.4828  0.9537
   78MOL   H12720301   4.704   2.706   1.652 -0.7069 -1.0415  0.6406
   78MOL   H12820302   4.716   2.700   1.492 -1.1446 -0.9686 -0.1704
   78MOL   H12920303   4.528   2.806   1.428 -1.0360  0.7440  1.0946
   78MOL   H13020304   4.473   2.732   1.587  0.9678 -0.3501  1.2994
   78MOL   H13120305   4.513   2.897   1.587 -0.6461  0.6456 -0.7271
   78MOL   C13220306   4.937   3.029   1.672  0.1656  0.0599  0.2423
   78MOL   C13320307   4.871   3.061   1.810  0.0031  0.5901  0.2885
   78MOL   O13420308   4.776   3.166   1.807  0.5043 -0.0728  0.6877
   78MOL   C13520309   4.652   3.141   1.743  0.4174  0.4918 -0.2889
   78MOL   C13620310   4.544   3.229   1.802  0.6175  0.1697 -0.3146
   78MOL   H13720311   4.941   3.116   1.607  1.1222 -1.2577 -1.4985
   78MOL   H13820312   5.041   3.006   1.694  0.1638 -2.7197 -2.3734
   78MOL   H13920313   4.825   2.970   1.849  2.2536 -1.3461 -1.3592
   78MOL   H14020314   4.618   3.038   1.754  0.1936  0.7623  1.6556
   78MOL   H14120315   4.662   3.166   1.637  0.8114  1.5661 -0.0082
   78MOL   H14220316   4.576   3.331   1.780 -0.9441  0.7866  0.2344
   78MOL   H14320317   4.445   3.202   1.766  1.0335 -0.5029 -0.9709
   78MOL   H14420318   4.550   3.199   1.907 -1.0823  0.9850  0.0316
   78MOL   C14520319   4.981   3.110   1.910  0.6393  0.2691  0.9803
   78MOL   C14620320   5.080   3.006   1.963  0.6418  0.0530  0.1858
   78MOL   O14720321   5.023   2.875   1.960  0.6559  0.1035  0.8233
   78MOL   C14820322   5.107   2.768   1.917  0.5709  0.4810  0.3126
   78MOL   C14920323   5.018   2.636   1.906  0.3686 -0.2244 -0.0565
   78MOL   H15020324   4.924   3.135   1.999 -0.2298  3.4593 -0.3941
   78MOL   H15120325   5.023   3.202   1.869 -0.2140 -0.8385 -2.5631
   78MOL   H15220326   5.160   3.009   1.889  0.0480  1.2026 -0.4163
   78MOL   H15320327   5.188   2.752   1.988  1.7049  0.7506 -0.9176
   78MOL   H15420328   5.159   2.784   1.823 -0.1411 -1.0284 -0.3485
   78MOL   H15520329   5.074   2.552   1.865 -0.9536 -0.4943 -1.3437
   78MOL   H15620330   4.975   2.606   2.002 -0.8733 -1.3143 -0.9439
   78MOL   H15720331   4.930   2.657   1.845 -0.1352  0.9276  1.0282
   78MOL   C15820332   5.158   3.039   2.092  0.2061  0.2261 -0.2985
   78MOL   C15920333   5.294   3.102   2.076 -0.2146  0.6039 -0.0632
   78MOL   O16020334   5.289   3.210   1.985  0.0946  0.3487  0.0494
   78MOL   C16120335   5.228   3.329   2.036  0.6500 -0.1270  0.0280
   78MOL   C16220336   5.267   3.441   1.944  0.1543 -0.1050 -0.0132
   78MOL   H16320337   5.172   2.955   2.160 -0.3847  0.3459 -0.0333
   78MOL   H16420338   5.088   3.093   2.156 -1.6708 -1.8743 -0.5085
   78MOL   H16520339   5.333   3.133   2.173 -1.4570 -0.8309  0.9196
   78MOL   H16620340   5.265   3.348   2.136  1.8205  0.4812 -0.5087
   78MOL   H16720341   5.119   3.321   2.040  0.7163 -1.2864 -0.0933
   78MOL   H16820342   5.374   3.463   1.941 -0.4516  3.4686  2.0895
   78MOL   H16920343   5.236   3.426   1.840  2.6844 -0.3645 -0.7606
   78MOL   H17020344   5.224   3.533   1.984  0.5913 -0.0850  0.4118
   78MOL   C17120345   5.411   3.008   2.034 -0.5675 -0.0183 -0.5434
   78MOL   C17220346   5.548   3.082   2.006 -0.8563  0.1537  0.2567
   78MOL   O17320347   5.598   3.136   2.130 -0.2858 -0.4445 -0.0758
   78MOL   C17420348   5.662   3.050   2.217  0.8883 -0.2608  0.1537
   78MOL   C17520349   5.700   3.113   2.347 -0.2470  0.1823 -0.8437
   78MOL   H17620350   5.379   2.942   1.954  0.5078 -1.3135  0.0755
   78MOL   H17720351   5.427   2.931   2.109 -0.8548 -0.1195 -0.5846
   78MOL   H17820352   5.613   2.999   1.978  0.8426  0.4172  3.2141
   78MOL   H17920353   5.754   3.007   2.176  1.9184 -1.1765  3.2406
   78MOL   H18020354   5.599   2.969   2.254 -1.2572  1.4611  0.3157
   78MOL   H18120355   5.786   3.174   2.321  0.6352  0.4318  2.4323
   78MOL   H18220356   5.624   3.172   2.398  1.7758  1.5894  0.6107
   78MOL   H18320357   5.739   3.042   2.420  0.6910  0.8784 -0.6639
   78MOL   C18420358   5.563   3.183   1.895  0.1775 -0.4270  0.3368
   78MOL   C18520359   5.711   3.210   1.850  0.2866  0.3635  0.5153
   78MOL   O18620360   5.727   3.328   1.772  0.2650  0.0414  0.5706
   78MOL   C18720361   5.739   3.445   1.852 -0.0447 -0.7710 -0.1071
   78MOL   C18820362   5.775   3.557   1.756 -0.1665  0.0206 -0.7265
   78MOL   H18920363   5.506   3.274   1.912 -0.8296 -1.1384  0.8429
   78MOL   H19020364   5.515   3.137   1.808 -0.2754  0.7307 -0.0384
   78MOL   H19120365   5.764   3.224   1.945  0.7238 -0.3834  0.3875
   78MOL   H19220366   5.823   3.417   1.916  3.2021  3.8909 -2.0659
   78MOL   H19320367   5.649   3.465   1.911  1.2488  0.4993  1.4878
   78MOL   H19420368   5.875   3.539   1.718  0.3471 -0.0867  0.6432
   78MOL   H19520369   5.708   3.557   1.670  1.3817  1.2480 -1.9564
   78MOL   H19620370   5.756   3.651   1.809 -0.4368 -0.7599  0.5784
   78MOL   C19720371   5.773   3.088   1.773 -0.7736  0.4094 -0.2868
   78MOL   C19820372   5.922   3.087   1.735  0.6813 -0.1758 -0.2844
   78MOL   O19920373   5.942   3.120   1.597  0.1084  0.7090 -0.0930
   78MOL   C20020374   5.981   3.254   1.571 -0.1853  0.0795 -0.1370
   78MOL   C20120375   6.125   3.254   1.543 -0.0817 -0.1265 -0.3295
   78MOL   H20220376   5.713   3.071   1.684  0.0521 -0.1969 -0.7356
   78MOL   H20320377   5.764   2.993   1.825 -1.1605  0.3857 -0.4009
   78MOL   H20420378   5.978   3.154   1.800  2.1451 -2.3925  0.7932
   78MOL   H20520379   5.949   3.313   1.657  0.1420 -1.3176  0.9473
   78MOL   H20620380   5.931   3.294   1.482  0.5103 -1.2496 -1.1427
   78MOL   H20720381   6.158   3.176   1.475 -2.8734  0.1723 -2.1343
   78MOL   H20820382   6.150   3.343   1.485  0.7302 -0.1994 -0.0997
   78MOL   H20920383   6.184   3.255   1.635  0.8003 -3.8684 -0.8009
   78MOL   C21020384   5.999   2.946   1.752  0.3625 -0.0553  0.2837
   78MOL   C21120385   6.149   2.959   1.792 -0.0736 -0.2152  0.1490
   78MOL   O21220386   6.228   2.869   1.713  0.2032 -0.2928 -0.0190
   78MOL   C21320387   6.251   2.903   1.579  0.6319  0.0793  0.8711
   78MOL   C21420388   6.268   2.766   1.508  0.2796  0.4645  0.8690
   78MOL   H21520389   5.971   2.902   1.656 -1.8054 -0.6162  1.1477
   78MOL   H21620390   5.940   2.890   1.825 -1.0233 -1.1823 -1.6493
   78MOL   H21720391   6.193   3.055   1.767  0.1279 -0.6884 -1.3884
   78MOL   H21820392   6.340   2.966   1.578  0.3998  0.4224  1.7423
   78MOL   H21920393   6.167   2.958   1.537  0.0186 -3.6161 -3.1417
   78MOL   H22020394   6.293   2.767   1.402  1.8877 -1.5263  1.2064
   78MOL   H22120395   6.358   2.722   1.551  0.5825 -0.0457 -0.2766
   78MOL   H22220396   6.181   2.706   1.535 -0.1908 -0.2388 -2.0184
   78MOL   C22320397   6.162   2.940   1.941 -0.1258 -0.2064 -0.5993
   78MOL   C22420398   6.090   3.042   2.035 -0.5791  0.4065  0.2197
   78MOL   O22520399   6.137   3.170   1.998 -0.1469 -0.1498  0.6239
   78MOL   C22620400   6.068   3.287   2.048  0.4210  0.5417 -0.1593
   78MOL   C22720401   6.105   3.396   1.946 -0.2205  0.4767  0.1003
   78MOL   H22820402   6.268   2.942   1.965 -0.2205 -1.0285 -0.0866
   78MOL   H22920403   6.144   2.834   1.960  0.3879 -0.0968  0.5310
   78MOL   H23020404   5.983   3.049   2.014 -0.1902 -0.4195 -2.2643
   78MOL   H23120405   6.100   3.313   2.149  0.3569  0.2445 -0.0630
   78MOL   H23220406   5.960   3.275   2.050  0.4236  0.7054  1.3332
   78MOL   H23320407   6.094   3.360   1.844  1.0998  1.0530 -0.2619
   78MOL   H23420408   6.031   3.475   1.959 -1.2176 -0.6003  1.0952
   78MOL   H23520409   6.209   3.431   1.943  0.0085 -0.0059  1.6754
   78MOL   C23620410   6.111   3.011   2.185 -0.3937 -1.0820 -0.3567
   78MOL   C23720411   6.066   2.876   2.225  0.6263  0.0372  1.2352
   78MOL   O23820412   5.933   2.848   2.181  0.0680  0.1515  0.0186
   78MOL   C23920413   5.897   2.711   2.158  0.0174  0.9315 -0.2465
   78MOL   C24020414   5.744   2.704   2.144 -0.7304 -0.2997  0.5529
   78MOL   H24120415   6.059   3.086   2.246  2.6750 -0.9441  2.2178
   78MOL   H24220416   6.218   3.022   2.201 -0.3491 -0.2229 -1.1912
   78MOL   H24320417   6.126   2.804   2.169 -0.1609  0.3356 -0.0353
   78MOL   H24420418   5.923   2.643   2.239  1.0273  0.8829 -0.6056
   78MOL   H24520419   5.942   2.686   2.061  0.6119 -0.2195  0.3180
   78MOL   H24620420   5.708   2.760   2.058  0.6448 -0.3818 -0.0969
   78MOL   H24720421   5.726   2.598   2.126 -0.1713 -0.4206  0.6742
   78MOL   H24820422   5.690   2.736   2.233 -3.2517 -0.2259 -0.9803
   78MOL   C24920423   6.081   2.842   2.368 -0.4892  0.5617  0.1135
   78MOL   C25020424   6.224   2.795   2.399  0.1619 -0.2412 -0.0056
   78MOL   O25120425   6.222   2.750   2.536  0.0001  0.2851  0.6465
   78MOL   C25220426   6.344   2.678   2.566  0.2286  0.5382 -0.3205
   78MOL   C25320427   6.344   2.530   2.523 -0.5695 -0.2984  0.6508
   78MOL   H25420428   6.001   2.777   2.404  0.4385 -0.0257  1.1179
   78MOL   H25520429   6.067   2.933   2.426  0.8055  0.3287  0.8006
   78MOL   H25620430   6.251   2.708   2.339  0.8680 -0.4500  0.6224
   78MOL   H25720431   6.361   2.684   2.674 -0.1629 -0.7674 -0.1765
   78MOL   H25820432   6.418   2.732   2.508  1.0640 -2.1886 -1.8704
   78MOL   H25920433   6.428   2.470   2.560 -1.4604 -1.4669  0.8118
   78MOL   H26020434   6.250   2.492   2.562 -0.8943  1.1044  1.2552
   78MOL   H26120435   6.337   2.509   2.417  0.2963  0.9106  0.3516
   78MOL   H26220436   6.286   2.884   2.389 -1.8388  1.1206 -0.8173
   79MOL     C120437   5.079   5.389   6.359 -0.8076 -0.0899  0.6357
   79MOL     C220438   5.144   5.505   6.440 -0.2370  0.1123  0.3201
   79MOL     O320439   5.088   5.529   6.569 -0.0339  0.6883  0.1714
   79MOL     C420440   5.099   5.426   6.666 -0.9110  0.2598  0.1571
   79MOL     C520441   5.247   5.409   6.708  0.4047  0.4347  0.5014
   79MOL     H620442   5.078   5.298   6.420  0.4321 -0.0541  0.7316
   79MOL     H720443   4.978   5.419   6.333 -0.3628  0.1852 -0.8060
   79MOL     H820444   5.252   5.497   6.448 -0.3248  1.1975  3.2842
   79MOL     H920445   5.045   5.334   6.642 -0.7406  0.2824 -0.3227
   79MOL    H1020446   5.050   5.476   6.750 -1.1662  1.0579 -0.4624
   79MOL    H1120447   5.299   5.353   6.630 -0.4863 -0.2928  0.4172
   79MOL    H1220448   5.296   5.506   6.705 -0.9414  1.2335  3.1810
   79MOL    H1320449   5.264   5.358   6.802  0.7292 -1.5457 -0.5940
   79MOL    H1420450   5.140   5.376   6.270  0.5974  1.9697  1.2816
   79MOL    C1520451   5.113   5.634   6.351 -0.2325 -0.8584 -0.0372
   79MOL    C1620452   5.179   5.763   6.406  0.0459  0.7981  0.5571
   79MOL    O1720453   5.130   5.857   6.308 -0.4943  0.5166  0.4928
   79MOL    C1820454   5.051   5.958   6.363  0.4713 -0.0284  0.4016
   79MOL    C1920455   4.997   6.044   6.250  0.5164 -0.2508 -0.0363
   79MOL    H2020456   5.005   5.650   6.344  0.3062  2.3506 -1.8534
   79MOL    H2120457   5.138   5.617   6.247  2.2910  0.3543  0.3433
   79MOL    H2220458   5.141   5.787   6.506  1.9436  2.6043  0.8603
   79MOL    H2320459   5.106   6.027   6.427 -1.5864 -0.0395  2.2571
   79MOL    H2420460   4.965   5.918   6.418  2.5447  1.0154  4.6581
   79MOL    H2520461   4.949   5.990   6.168  0.1812  2.1083 -1.4172
   79MOL    H2620462   5.073   6.105   6.203  0.8793 -1.3749 -0.9262
   79MOL    H2720463   4.928   6.124   6.278 -1.7264 -1.9310 -0.6120
   79MOL    C2820464   5.337   5.780   6.399  0.4160 -0.3885  0.3575
   79MOL    C2920465   5.394   5.908   6.463 -0.7414  0.5255 -0.3682
   79MOL    O3020466   5.533   5.898   6.457 -0.7717  0.2688 -0.9786
   79MOL    C3120467   5.613   6.014   6.453 -0.1647 -0.4547 -0.3351
   79MOL    C3220468   5.762   5.968   6.436  0.7096 -0.2581 -0.1662
   79MOL    H3320469   5.378   5.781   6.298  1.3086 -0.0003  0.7185
   79MOL    H3420470   5.379   5.692   6.448  0.7955  0.0405  0.8071
   79MOL    H3520471   5.359   5.989   6.400 -0.3589 -0.2942 -1.6480
   79MOL    H3620472   5.598   6.061   6.550  3.2269  0.0245  0.0221
   79MOL    H3720473   5.576   6.082   6.377  1.8145  0.2033 -0.7350
   79MOL    H3820474   5.771   5.909   6.345 -0.4178 -0.7411  0.0171
   79MOL    H3920475   5.842   6.042   6.441  0.4949 -0.1076  1.3958
   79MOL    H4020476   5.778   5.905   6.524  2.6003 -1.5605 -1.4127
   79MOL    C4120477   5.339   5.938   6.610 -0.1620 -0.3211  0.3920
   79MOL    C4220478   5.371   5.836   6.717 -0.7942  0.8980  0.2541
   79MOL    O4320479   5.281   5.853   6.827  0.0177 -0.2850  0.3570
   79MOL    C4420480   5.155   5.795   6.812 -1.0952  0.2371  0.5299
   79MOL    C4520481   5.099   5.793   6.956  0.3125 -0.6615  1.0371
   79MOL    H4620482   5.232   5.959   6.604  0.1326  0.8588 -1.0463
   79MOL    H4720483   5.378   6.034   6.643 -1.5437  0.6548 -0.7397
   79MOL    H4820484   5.359   5.736   6.675  0.3509  0.8647  0.0008
   79MOL    H4920485   5.159   5.695   6.769  1.4573  0.8418 -0.7864
   79MOL    H5020486   5.091   5.855   6.748 -2.2941 -0.1041  1.4033
   79MOL    H5120487   5.003   5.741   6.952  0.2815 -0.5901  0.8783
   79MOL    H5220488   5.162   5.744   7.030  0.9958 -0.4739  0.5888
   79MOL    H5320489   5.067   5.889   6.999 -1.7288  0.3619 -2.6071
   79MOL    C5420490   5.514   5.847   6.776  0.2068 -0.1292 -0.2419
   79MOL    C5520491   5.536   5.776   6.915 -0.7026 -0.1732 -0.1648
   79MOL    O5620492   5.665   5.792   6.975  0.1379  0.0626 -0.1668
   79MOL    C5720493   5.738   5.914   6.959  0.3882 -0.0285 -0.3101
   79MOL    C5820494   5.867   5.914   7.045 -0.9125  0.0094 -0.1643
   79MOL    H5920495   5.537   5.952   6.792  2.4196 -0.8054  1.4103
   79MOL    H6020496   5.580   5.824   6.693  0.9570  4.0416 -0.8925
   79MOL    H6120497   5.471   5.835   6.980  0.8546  3.6081 -1.8956
   79MOL    H6220498   5.677   5.998   6.993 -2.5118 -1.0388 -2.8258
   79MOL    H6320499   5.760   5.931   6.854 -0.7613 -1.6533 -0.8355
   79MOL    H6420500   5.917   6.010   7.037 -0.2015 -0.2248  1.2532
   79MOL    H6520501   5.838   5.916   7.150 -0.6245  1.0743 -0.1043
   79MOL    H6620502   5.944   5.841   7.017  1.0652  1.4402  1.4030
   79MOL    C6720503   5.488   5.630   6.932 -0.1594  0.6855 -0.5010
   79MOL    C6820504   5.585   5.529   6.868 -0.2246  0.2575 -0.6195
   79MOL    O6920505   5.581   5.538   6.726 -0.0014 -0.0144  0.2027
   79MOL    C7020506   5.702   5.521   6.653 -0.2997  0.2512 -0.9541
   79MOL    C7120507   5.672   5.518   6.503 -0.1614  0.3974 -0.1375
   79MOL    H7220508   5.386   5.613   6.896  0.7355 -3.0233 -1.4873
   79MOL    H7320509   5.487   5.611   7.039  1.4733  0.7220 -0.4703
   79MOL    H7420510   5.690   5.547   6.891 -0.5296 -0.5173  1.5049
   79MOL    H7520511   5.741   5.430   6.699 -1.7285  0.1555  0.1003
   79MOL    H7620512   5.780   5.592   6.682 -0.4150 -0.1718  0.3995
   79MOL    H7720513   5.564   5.524   6.488 -0.2014  1.0885  0.4100
   79MOL    H7820514   5.717   5.593   6.439  1.7918 -0.7416 -0.1293
   79MOL    H7920515   5.694   5.423   6.454  3.0139  0.1687  1.6153
   79MOL    C8020516   5.555   5.385   6.906  0.6653  0.0661  0.5149
   79MOL    C8120517   5.661   5.329   7.008 -0.2318 -0.9764  0.0471
   79MOL    O8220518   5.638   5.185   6.996 -0.5262 -0.2351 -0.6890
   79MOL    C8320519   5.750   5.110   6.998  0.1531 -0.1722  0.4095
   79MOL    C8420520   5.723   4.966   7.028 -0.1449  0.0971 -0.5432
   79MOL    H8520521   5.566   5.317   6.821 -1.3411 -1.1135  1.1602
   79MOL    H8620522   5.449   5.363   6.922  0.3020  1.2792 -0.1333
   79MOL    H8720523   5.762   5.355   6.976 -0.4944 -1.2821 -1.0611
   79MOL    H8820524   5.829   5.153   7.060 -0.3033 -0.8949  1.4997
   79MOL    H8920525   5.778   5.125   6.894 -1.6822  0.6765  0.0250
   79MOL    H9020526   5.637   4.929   6.973 -0.5785  2.9967 -1.8895
   79MOL    H9120527   5.810   4.903   7.009 -1.3508 -1.3140 -1.5357
   79MOL    H9220528   5.694   4.955   7.133  0.1411  0.3798 -0.4336
   79MOL    C9320529   5.652   5.372   7.150  0.0017 -0.1243 -0.3409
   79MOL    C9420530   5.725   5.496   7.193  0.3656  0.9261  0.3065
   79MOL    O9520531   5.857   5.474   7.158  0.1644 -0.2512  0.4838
   79MOL    C9620532   5.917   5.568   7.073  0.3536 -0.7915  0.0162
   79MOL    C9720533   6.060   5.531   7.049 -0.1714  0.5427  0.0190
   79MOL    H9820534   5.692   5.285   7.202  0.9170 -0.8469 -2.2024
   79MOL    H9920535   5.544   5.375   7.165 -0.2285 -1.6461 -1.5562
   79MOL   H10020536   5.674   5.578   7.144 -0.8419  0.6336  1.0446
   79MOL   H10120537   5.913   5.661   7.130 -2.2600 -0.4849 -0.5786
   79MOL   H10220538   5.862   5.580   6.980 -1.1360 -0.8317  0.8604
   79MOL   H10320539   6.106   5.521   7.147  0.7944 -2.0811 -0.6447
   79MOL   H10420540   6.054   5.440   6.989 -0.8455  0.0396  0.8415
   79MOL   H10520541   6.115   5.608   6.995  1.7354 -1.6949 -1.3440
   79MOL   C10620542   5.717   5.514   7.346  0.3452 -0.1822  0.2104
   79MOL   C10720543   5.772   5.650   7.398 -0.5756 -0.0517  0.9736
   79MOL   O10820544   5.777   5.633   7.542  0.7389  0.3250 -0.3556
   79MOL   C10920545   5.830   5.745   7.619  0.2231 -0.3371  0.9552
   79MOL   C11020546   5.865   5.694   7.754  0.3971  0.0274  0.6665
   79MOL   H11120547   5.776   5.438   7.397  2.2712  0.6444 -0.6986
   79MOL   H11220548   5.617   5.502   7.387  0.2321  0.2131  0.0516
   79MOL   H11320549   5.874   5.657   7.359 -1.0233  1.8365  0.0651
   79MOL   H11420550   5.754   5.822   7.633  0.3800 -0.1144  0.5869
   79MOL   H11520551   5.911   5.802   7.572 -1.6344  1.5332 -0.0978
   79MOL   H11620552   5.781   5.655   7.812  1.4039  0.5820  2.5278
   79MOL   H11720553   5.952   5.629   7.754  1.1757  1.0709 -0.4216
   79MOL   H11820554   5.904   5.779   7.809 -1.8202  1.2570  0.3843
   79MOL   C11920555   5.680   5.771   7.352  0.2106 -0.0997  0.4163
   79MOL   C12020556   5.530   5.770   7.401 -0.2984 -0.0359 -0.0067
   79MOL   O12120557   5.458   5.683   7.315 -0.0524  0.7615  0.4788
   79MOL   C12220558   5.365   5.596   7.380  0.0520  0.2144  0.0457
   79MOL   C12320559   5.281   5.542   7.267 -0.8895  0.2467  0.6593
   79MOL   H12420560   5.665   5.758   7.244 -0.9363  0.0226  0.5577
   79MOL   H12520561   5.729   5.866   7.373 -0.3044  0.6399 -1.5270
   79MOL   H12620562   5.525   5.731   7.502  0.1667  0.0117  0.0344
   79MOL   H12720563   5.291   5.646   7.442  0.9851  3.4902 -1.3402
   79MOL   H12820564   5.405   5.513   7.437 -0.6465 -0.6960 -0.7770
   79MOL   H12920565   5.202   5.484   7.315 -0.6358  0.0170  0.7903
   79MOL   H13020566   5.228   5.625   7.218 -0.5481  0.7061  1.0592
   79MOL   H13120567   5.333   5.471   7.204  0.6038 -0.4533  2.6398
   79MOL   C13220568   5.467   5.912   7.384 -0.2370  0.0742  0.2247
   79MOL   C13320569   5.503   6.022   7.486 -0.7138 -0.0758  0.3910
   79MOL   O13420570   5.467   5.980   7.618  0.6366  0.0582 -0.0094
   79MOL   C13520571   5.334   5.931   7.638 -0.5755  0.4987  0.1722
   79MOL   C13620572   5.317   5.904   7.790  0.3956  0.4141 -0.0366
   79MOL   H13720573   5.358   5.922   7.387 -0.2323  0.7335 -1.4015
   79MOL   H13820574   5.489   5.949   7.284 -1.0745 -0.5253 -0.1876
   79MOL   H13920575   5.610   6.041   7.482 -1.2535  2.9284 -2.1611
   79MOL   H14020576   5.303   5.846   7.577 -0.6904 -0.8832  2.1189
   79MOL   H14120577   5.257   6.004   7.617  0.6471  1.6938 -0.2614
   79MOL   H14220578   5.379   5.819   7.820  1.2930  0.4188 -1.8442
   79MOL   H14320579   5.346   5.997   7.840 -0.2847  1.3076 -1.2920
   79MOL   H14420580   5.212   5.881   7.807  0.1291  1.2932 -0.5000
   79MOL   C14520581   5.453   6.162   7.458 -0.1599  0.1199 -0.4058
   79MOL   C14620582   5.516   6.266   7.548  0.3808 -0.1151  0.4964
   79MOL   O14720583   5.445   6.386   7.537 -0.6206  0.2307 -0.8712
   79MOL   C14820584   5.335   6.389   7.624  0.4428 -0.2996  0.6497
   79MOL   C14920585   5.243   6.513   7.609  0.7703  0.3281 -0.2769
   79MOL   H15020586   5.345   6.161   7.475  0.0063 -2.6449  0.6617
   79MOL   H15120587   5.468   6.192   7.354  2.1643  2.1237  0.4638
   79MOL   H15220588   5.505   6.231   7.650  0.9862 -0.5289  0.4272
   79MOL   H15320589   5.370   6.399   7.726  2.2873  0.0139  0.0023
   79MOL   H15420590   5.272   6.301   7.616  0.8391 -0.5222 -0.0517
   79MOL   H15520591   5.216   6.534   7.506  1.0276  0.4362 -0.3224
   79MOL   H15620592   5.147   6.511   7.662  0.2126 -1.5393 -1.3229
   79MOL   H15720593   5.293   6.599   7.653 -1.1858  0.3430  2.0440
   79MOL   C15820594   5.667   6.296   7.523 -0.3163  1.0581 -0.4011
   79MOL   C15920595   5.707   6.305   7.370 -0.8122  0.3485  0.5290
   79MOL   O16020596   5.847   6.330   7.371  0.1308  0.3741 -0.3269
   79MOL   C16120597   5.921   6.207   7.355 -0.5267 -0.5767 -0.7948
   79MOL   C16220598   6.072   6.248   7.363 -0.1321 -0.1874 -0.1753
   79MOL   H16320599   5.726   6.220   7.575  0.1711  1.5759 -0.1861
   79MOL   H16420600   5.689   6.388   7.578 -0.4847 -1.1344  3.5529
   79MOL   H16520601   5.685   6.212   7.317 -0.3811  1.0569 -0.9253
   79MOL   H16620602   5.898   6.185   7.251 -0.5922  1.9158 -1.3544
   79MOL   H16720603   5.901   6.120   7.417  1.4404 -0.7096 -0.3289
   79MOL   H16820604   6.105   6.318   7.286 -2.2721  0.3625 -0.6248
   79MOL   H16920605   6.102   6.290   7.459 -0.1877  1.5927 -0.9154
   79MOL   H17020606   6.135   6.160   7.351 -0.9020 -0.7127 -0.3744
   79MOL   C17120607   5.640   6.427   7.290  0.0559 -0.2786  0.3359
   79MOL   C17220608   5.630   6.424   7.130  0.5947  0.5424 -0.0248
   79MOL   O17320609   5.554   6.303   7.110  0.3870  0.3431 -0.1980
   79MOL   C17420610   5.426   6.321   7.044 -0.2324  0.3512 -0.2865
   79MOL   C17520611   5.375   6.181   7.033 -0.3238  0.0109  0.0273
   79MOL   H17620612   5.675   6.523   7.325 -2.5792  1.1061 -0.6452
   79MOL   H17720613   5.534   6.424   7.317 -0.3651  1.3389 -1.0373
   79MOL   H17820614   5.573   6.513   7.103 -1.9497 -0.8852  0.4665
   79MOL   H17920615   5.437   6.376   6.951 -0.6361 -0.2814 -0.7086
   79MOL   H18020616   5.355   6.379   7.103  1.1983  0.7248  1.1205
   79MOL   H18120617   5.270   6.177   7.004 -1.0592  0.0805  2.6326
   79MOL   H18220618   5.421   6.110   6.964 -0.8025 -0.1984 -0.0822
   79MOL   H18320619   5.383   6.131   7.129 -1.0216  0.0090  0.0826
   79MOL   C18420620   5.763   6.414   7.056  0.1491  0.0311 -0.6464
   79MOL   C18520621   5.749   6.424   6.898 -0.5111  0.3067 -0.0809
   79MOL   O18620622   5.872   6.399   6.838  0.3071 -0.3639 -0.4259
   79MOL   C18720623   5.909   6.261   6.813 -0.2207 -0.2223 -0.5064
   79MOL   C18820624   6.008   6.248   6.699 -0.8355  0.1558  0.2450
   79MOL   H18920625   5.805   6.316   7.077  0.3390  0.1585 -0.4381
   79MOL   H19020626   5.825   6.499   7.084 -1.1880  1.1284 -0.9591
   79MOL   H19120627   5.676   6.351   6.863 -1.1903  1.4666 -1.0940
   79MOL   H19220628   5.821   6.201   6.788  1.3063 -3.0727  0.7551
   79MOL   H19320629   5.956   6.219   6.903 -1.2147 -0.4199 -0.0715
   79MOL   H19420630   6.075   6.333   6.695 -0.4562 -0.1359  0.3664
   79MOL   H19520631   6.058   6.151   6.708  0.5279  0.9167  1.0463
   79MOL   H19620632   5.943   6.252   6.612 -2.1884 -0.7393  1.1865
   79MOL   C19720633   5.704   6.560   6.852 -0.1844 -0.3270 -0.6333
   79MOL   C19820634   5.673   6.571   6.706  0.5209 -0.6881  0.0504
   79MOL   O19920635   5.584   6.684   6.698  0.0617  0.0730  0.4844
   79MOL   C20020636   5.650   6.809   6.695  0.5726  0.6906  0.4465
   79MOL   C20120637   5.549   6.908   6.634 -0.6367 -0.7308  0.6826
   79MOL   H20220638   5.774   6.633   6.892 -1.2240  0.2884  0.0625
   79MOL   H20320639   5.612   6.583   6.905 -0.1304 -1.1937 -0.1489
   79MOL   H20420640   5.770   6.576   6.657  0.6779 -1.4263  0.2767
   79MOL   H20520641   5.727   6.827   6.620 -0.0659 -1.8732 -0.8668
   79MOL   H20620642   5.697   6.836   6.789 -0.1396  0.8062  0.7783
   79MOL   H20720643   5.598   7.003   6.611  0.2532 -1.1286  0.9294
   79MOL   H20820644   5.513   6.865   6.541  2.0109 -2.6710  0.4973
   79MOL   H20920645   5.463   6.927   6.697 -1.5364  0.6076 -0.8952
   79MOL   C21020646   5.592   6.465   6.630 -0.9793  0.1601 -0.3450
   79MOL   C21120647   5.575   6.485   6.482  0.1051 -0.1683 -0.9347
   79MOL   O21220648   5.485   6.387   6.440 -0.5291 -0.0647 -0.2512
   79MOL   C21320649   5.425   6.401   6.308 -0.2991 -0.6447 -0.1643
   79MOL   C21420650   5.376   6.269   6.249 -0.8778 -0.1550 -0.6285
   79MOL   H21520651   5.494   6.447   6.675 -1.2477  0.7803 -0.6772
   79MOL   H21620652   5.625   6.361   6.642 -1.0222  0.3140  1.1729
   79MOL   H21720653   5.530   6.584   6.479 -0.9549 -0.4395  2.6733
   79MOL   H21820654   5.489   6.455   6.238 -1.8450 -1.4980 -2.2658
   79MOL   H21920655   5.343   6.471   6.323  0.1520  0.5078 -2.7091
   79MOL   H22020656   5.455   6.194   6.241 -1.3678 -0.6936 -0.5007
   79MOL   H22120657   5.305   6.215   6.312  0.1389  2.1731  2.6693
   79MOL   H22220658   5.340   6.291   6.149  0.9283  0.4052 -1.1714
   79MOL   C22320659   5.702   6.473   6.397 -0.7132  0.5953  0.0324
   79MOL   C22420660   5.763   6.608   6.362  0.6070  0.0829  1.1583
   79MOL   O22520661   5.678   6.659   6.263 -0.5122 -0.3624  0.0839
   79MOL   C22620662   5.612   6.779   6.303 -0.0687  0.0149 -0.0267
   79MOL   C22720663   5.552   6.834   6.174  0.1349 -0.0576 -0.1954
   79MOL   H22820664   5.696   6.417   6.304  0.5071 -0.9186  0.8522
   79MOL   H22920665   5.768   6.405   6.450 -1.1345 -0.1675 -0.4157
   79MOL   H23020666   5.774   6.678   6.445 -0.3121  1.1229  0.4066
   79MOL   H23120667   5.682   6.848   6.351 -1.3504  1.1120  0.2784
   79MOL   H23220668   5.526   6.751   6.363  0.1427 -2.4022 -0.8030
   79MOL   H23320669   5.470   6.901   6.199  0.0907 -0.0756 -0.2963
   79MOL   H23420670   5.620   6.898   6.118 -1.5484  1.0309 -1.0372
   79MOL   H23520671   5.508   6.754   6.114 -1.1427  1.4561 -1.2913
   79MOL   C23620672   5.907   6.596   6.304  0.2513 -0.2207  0.4246
   79MOL   C23720673   6.027   6.570   6.398  0.2212  0.1278 -0.0522
   79MOL   O23820674   6.034   6.685   6.484  0.9110 -0.5946  0.0043
   79MOL   C23920675   6.060   6.645   6.615 -0.4726 -0.4650 -0.3802
   79MOL   C24020676   6.062   6.766   6.709  1.0937  0.7050 -0.5056
   79MOL   H24120677   5.926   6.689   6.251  1.6504 -1.7105 -1.7400
   79MOL   H24220678   5.905   6.520   6.226  0.7236  2.9929 -2.8205
   79MOL   H24320679   6.008   6.482   6.460 -0.6010 -0.6135 -1.3272
   79MOL   H24420680   6.158   6.599   6.627 -0.3834 -0.1683  0.0674
   79MOL   H24520681   5.995   6.571   6.662 -0.7706 -0.1635 -0.3191
   79MOL   H24620682   6.094   6.746   6.812  2.1644  0.6695 -0.8469
   79MOL   H24720683   6.116   6.850   6.666 -0.6601  1.1785 -1.8646
   79MOL   H24820684   5.957   6.795   6.713  0.9651  0.2509 -0.5381
   79MOL   C24920685   6.154   6.544   6.326  0.3580 -0.1949 -0.5293
   79MOL   C25020686   6.162   6.412   6.253  0.2628 -0.3378 -0.3095
   79MOL   O25120687   6.178   6.320   6.365  0.0743 -0.2157 -0.4980
   79MOL   C25220688   6.307   6.263   6.359 -0.1612  0.1593 -0.2515
   79MOL   C25320689   6.335   6.185   6.484  0.3781  0.7739 -0.0938
   79MOL   H25420690   6.242   6.544   6.389 -0.0246 -0.0155  0.0020
   79MOL   H25520691   6.163   6.621   6.250 -2.1871  1.0204  0.3635
   79MOL   H25620692   6.077   6.381   6.192 -0.3214 -0.5145  0.5967
   79MOL   H25720693   6.380   6.343   6.374  0.3772 -0.7613  2.2278
   79MOL   H25820694   6.328   6.201   6.272 -0.2961 -0.8229  0.4038
   79MOL   H25920695   6.439   6.154   6.492  0.3839  1.2976  1.9732
   79MOL   H26020696   6.309   6.228   6.580 -1.0131 -0.7072  0.2313
   79MOL   H26120697   6.268   6.098   6.487 -0.1538  1.2328  3.9849
   79MOL   H26220698   6.243   6.401   6.180 -0.7748 -0.2974 -1.4869
   80MOL     C120699   1.135   3.197   4.967  0.4003  0.9108 -0.2797
   80MOL     C220700   1.265   3.206   4.880  0.9350  0.2617 -0.2322
   80MOL     O320701   1.240   3.312   4.784 -0.0123  0.9437 -0.3641
   80MOL     C420702   1.354   3.350   4.712 -0.0042  0.4224  0.2935
   80MOL     C520703   1.320   3.478   4.635 -0.6504 -0.4263 -0.7447
   80MOL     H620704   1.158   3.141   5.058  0.2853 -0.2801 -0.9670
   80MOL     H720705   1.091   3.294   4.991  0.7531  0.4592  2.3602
   80MOL     H820706   1.341   3.253   4.943  0.7066  5.1556 -3.3454
   80MOL     H920707   1.397   3.272   4.649  0.2757  0.8801 -0.0793
   80MOL    H1020708   1.435   3.382   4.777 -1.3461  2.4257  1.0236
   80MOL    H1120709   1.405   3.513   4.575 -2.0103  1.2245 -1.7544
   80MOL    H1220710   1.250   3.459   4.555 -0.8549  1.5037 -1.0554
   80MOL    H1320711   1.282   3.556   4.702  1.4434  0.8627 -0.9790
   80MOL    H1420712   1.062   3.139   4.911 -1.5153  1.1801  1.8707
   80MOL    C1520713   1.315   3.069   4.822  0.6318  0.0724 -0.2967
   80MOL    C1620714   1.316   2.950   4.918  0.3202 -0.0821  0.3233
   80MOL    O1720715   1.427   2.969   5.011 -0.0474  0.0384 -0.1147
   80MOL    C1820716   1.412   2.900   5.135  0.6078  0.1440 -0.4928
   80MOL    C1920717   1.545   2.899   5.211 -0.5966  0.4358  1.0906
   80MOL    H2020718   1.420   3.078   4.793  0.1184  1.0947 -1.9564
   80MOL    H2120719   1.248   3.053   4.737  1.3274 -0.2136 -0.7964
   80MOL    H2220720   1.223   2.926   4.969  0.4782  0.4235  0.8524
   80MOL    H2320721   1.384   2.796   5.124 -0.8503  0.3208  1.2333
   80MOL    H2420722   1.326   2.932   5.194  0.7053 -0.5682  0.0339
   80MOL    H2520723   1.545   2.847   5.306  0.4400 -1.9921 -0.1972
   80MOL    H2620724   1.589   2.997   5.234  0.1143  0.3026  0.3367
   80MOL    H2720725   1.624   2.853   5.151 -0.3313  1.7478  0.4056
   80MOL    C2820726   1.363   2.830   4.835 -0.0605 -1.0713 -0.1407
   80MOL    C2920727   1.248   2.784   4.735 -0.2888 -0.7427  0.2255
   80MOL    O3020728   1.127   2.738   4.815  0.1609 -0.7660 -0.3663
   80MOL    C3120729   1.003   2.773   4.749 -0.7391 -0.6871  0.4682
   80MOL    C3220730   0.899   2.712   4.838  0.0576 -0.2455 -0.0350
   80MOL    H3320731   1.368   2.738   4.893  0.7109 -1.8583 -1.4218
   80MOL    H3420732   1.459   2.851   4.788  0.4962 -0.7345  1.1370
   80MOL    H3520733   1.224   2.862   4.664  0.6974 -0.6503 -0.0186
   80MOL    H3620734   0.996   2.734   4.648  1.8556 -2.8495  1.0674
   80MOL    H3720735   0.983   2.880   4.749  1.5303 -0.1896  2.9472
   80MOL    H3820736   0.937   2.618   4.878  1.3366  0.2158 -0.1510
   80MOL    H3920737   0.876   2.774   4.924  3.1188  0.4907  0.3177
   80MOL    H4020738   0.805   2.697   4.784  0.7525  2.1215 -2.0336
   80MOL    C4120739   1.279   2.661   4.655 -0.6263 -0.1750  1.1727
   80MOL    C4220740   1.403   2.683   4.563  1.1991  0.0066  0.1668
   80MOL    O4320741   1.516   2.664   4.639 -0.6500 -0.3095 -0.0017
   80MOL    C4420742   1.621   2.597   4.590 -0.4593 -0.3814  0.0007
   80MOL    C4520743   1.727   2.602   4.695 -0.1020 -0.0074  0.1545
   80MOL    H4620744   1.195   2.637   4.589 -0.4267  1.4475  0.3009
   80MOL    H4720745   1.297   2.573   4.715  3.1733 -0.0215  0.3780
   80MOL    H4820746   1.398   2.602   4.490  1.1997  1.0384 -0.9851
   80MOL    H4920747   1.648   2.631   4.490  0.9170  1.1873  0.8641
   80MOL    H5020748   1.592   2.493   4.574  1.2621 -0.6005 -1.9953
   80MOL    H5120749   1.684   2.576   4.791 -1.6862 -0.7925 -0.7487
   80MOL    H5220750   1.806   2.531   4.669 -0.1777  0.1921 -0.6300
   80MOL    H5320751   1.766   2.704   4.695 -0.6737  0.2315  2.0797
   80MOL    C5420752   1.407   2.813   4.484 -0.2837 -0.2671  0.0448
   80MOL    C5520753   1.284   2.831   4.384 -0.4657 -0.4221  0.3859
   80MOL    O5620754   1.282   2.729   4.279 -0.1500 -0.2396  0.1842
   80MOL    C5720755   1.159   2.672   4.240  0.1777 -0.1817  0.2355
   80MOL    C5820756   1.183   2.527   4.207 -0.5846  0.0838  0.0324
   80MOL    H5920757   1.494   2.821   4.419  0.3912  2.0244  1.1878
   80MOL    H6020758   1.424   2.897   4.551  0.2404 -0.0080 -0.4078
   80MOL    H6120759   1.195   2.822   4.446 -0.5432 -0.7622  0.2260
   80MOL    H6220760   1.127   2.712   4.144  1.2981 -0.1442 -0.1301
   80MOL    H6320761   1.074   2.678   4.307  0.4620  1.7416  0.4459
   80MOL    H6420762   1.115   2.490   4.130 -1.0504 -1.0559  0.9604
   80MOL    H6520763   1.283   2.531   4.165 -0.0310  0.8020  1.3696
   80MOL    H6620764   1.177   2.470   4.300  2.5507  0.5909  0.5688
   80MOL    C6720765   1.271   2.969   4.318 -0.8370 -0.1073 -0.0889
   80MOL    C6820766   1.222   3.094   4.404  0.5933  0.6763  0.8142
   80MOL    O6920767   1.088   3.067   4.438  0.2984 -0.1936 -0.1865
   80MOL    C7020768   1.037   3.131   4.558 -0.2012  0.1853 -0.3398
   80MOL    C7120769   0.893   3.171   4.547  0.0151 -0.0164  0.3138
   80MOL    H7220770   1.198   2.964   4.237 -2.5481  1.7993  1.2721
   80MOL    H7320771   1.362   3.003   4.268 -1.4228 -1.2164 -1.9861
   80MOL    H7420772   1.278   3.094   4.497  1.3008  0.5296  0.3945
   80MOL    H7520773   1.096   3.219   4.585 -1.2471  1.1211 -1.0493
   80MOL    H7620774   1.044   3.069   4.648 -1.5487 -1.4550 -1.3350
   80MOL    H7720775   0.873   3.206   4.446 -1.9755 -2.8977 -0.3411
   80MOL    H7820776   0.833   3.083   4.570  1.3150 -0.6690  1.2774
   80MOL    H7920777   0.863   3.233   4.631  1.2470  0.3872  0.4768
   80MOL    C8020778   1.223   3.216   4.306 -1.1401  0.0574 -0.1243
   80MOL    C8120779   1.356   3.275   4.265 -0.5314  0.0886 -0.4759
   80MOL    O8220780   1.438   3.262   4.382 -0.6806  0.5059  0.3009
   80MOL    C8320781   1.578   3.260   4.371 -0.0813  0.0596 -0.0589
   80MOL    C8420782   1.637   3.234   4.507 -0.3262  0.0356 -0.4434
   80MOL    H8520783   1.171   3.298   4.355  1.7234  0.5315  2.2795
   80MOL    H8620784   1.159   3.197   4.220 -0.5376  2.5923 -1.1973
   80MOL    H8720785   1.404   3.222   4.182 -0.7848 -0.5337 -0.2301
   80MOL    H8820786   1.608   3.357   4.332  1.9368 -1.2354 -1.8402
   80MOL    H8920787   1.619   3.184   4.305  0.2488 -0.3983  0.6588
   80MOL    H9020788   1.606   3.143   4.558 -3.1787  0.5913 -1.1460
   80MOL    H9120789   1.745   3.220   4.507  0.1084  2.3082  3.4426
   80MOL    H9220790   1.613   3.323   4.566 -0.4667  1.1047 -2.0810
   80MOL    C9320791   1.349   3.419   4.220  0.1249 -0.2659  0.4460
   80MOL    C9420792   1.261   3.447   4.092 -0.0874  0.3259  0.1162
   80MOL    O9520793   1.342   3.398   3.974 -0.0350  0.2024 -0.4663
   80MOL    C9620794   1.281   3.395   3.850  0.3666  0.1800  0.1583
   80MOL    C9720795   1.364   3.331   3.741  0.0053  0.2098  0.3373
   80MOL    H9820796   1.448   3.464   4.209 -0.3712  0.4077 -1.4954
   80MOL    H9920797   1.298   3.464   4.305 -1.4282 -1.9550  0.4323
   80MOL   H10020798   1.172   3.385   4.091 -0.4788  0.8833  0.0472
   80MOL   H10120799   1.272   3.496   3.808  2.8435  0.2473 -0.2635
   80MOL   H10220800   1.177   3.361   3.852  0.4701 -0.0972  0.6474
   80MOL   H10320801   1.358   3.223   3.750  1.9897  0.1379  1.1828
   80MOL   H10420802   1.329   3.356   3.641 -0.1445  0.9254  0.5681
   80MOL   H10520803   1.469   3.359   3.751 -0.0261 -0.3165  2.6136
   80MOL   C10620804   1.228   3.603   4.064  0.6302 -0.0107  0.2481
   80MOL   C10720805   1.172   3.677   4.183 -0.4045 -0.4285 -0.9825
   80MOL   O10820806   1.071   3.594   4.240 -0.1858 -0.0210  0.3149
   80MOL   C10920807   1.021   3.618   4.367 -0.2525 -0.0871 -0.1719
   80MOL   C11020808   0.942   3.493   4.400 -0.4065  0.9132 -0.0851
   80MOL   H11120809   1.161   3.621   3.980  0.6916 -0.2312  0.1521
   80MOL   H11220810   1.325   3.642   4.032 -0.1560  0.2667 -1.8665
   80MOL   H11320811   1.254   3.692   4.253 -1.4935 -1.4354  0.5406
   80MOL   H11420812   0.975   3.717   4.360  0.7110  0.2760 -1.5002
   80MOL   H11520813   1.094   3.626   4.448 -1.0146  0.5080  0.4699
   80MOL   H11620814   1.002   3.403   4.418 -0.5423  0.8051 -0.1660
   80MOL   H11720815   0.886   3.502   4.493 -0.9274  0.3386 -0.3367
   80MOL   H11820816   0.865   3.469   4.327  0.1003  1.0803 -0.6786
   80MOL   C11920817   1.132   3.821   4.147 -0.2741  0.7733 -0.2089
   80MOL   C12020818   1.242   3.924   4.128  0.6222 -0.2118  0.2884
   80MOL   O12120819   1.326   3.941   4.249  0.3977  0.3086 -0.1390
   80MOL   C12220820   1.457   3.998   4.225  0.3145  0.4281 -0.3534
   80MOL   C12320821   1.532   3.998   4.360 -0.1129  0.0577  0.3349
   80MOL   H12420822   1.053   3.866   4.208  1.2382  1.9988  0.8788
   80MOL   H12520823   1.079   3.815   4.052 -1.3996  0.4158  0.4311
   80MOL   H12620824   1.302   3.871   4.054 -0.6905  1.2377 -1.8711
   80MOL   H12720825   1.447   4.099   4.186 -0.2068  0.7146  0.5011
   80MOL   H12820826   1.513   3.944   4.149 -2.0128 -0.3144 -1.6076
   80MOL   H12920827   1.493   4.056   4.444  0.2950  1.4468 -0.4125
   80MOL   H13020828   1.523   3.895   4.395 -1.3529 -0.0817 -0.3771
   80MOL   H13120829   1.638   4.020   4.345  0.1047 -2.4881 -2.2772
   80MOL   C13220830   1.193   4.057   4.067 -0.3125 -0.5728  0.4305
   80MOL   C13320831   1.181   4.059   3.907 -0.9924  0.1853 -0.1224
   80MOL   O13420832   1.311   4.020   3.861  0.0327 -0.1615  0.1890
   80MOL   C13520833   1.312   3.939   3.739 -0.0247  0.1640 -0.1636
   80MOL   C13620834   1.456   3.937   3.692  0.0658 -0.1620 -0.1833
   80MOL   H13720835   1.254   4.138   4.107 -2.0320  0.6261  0.6940
   80MOL   H13820836   1.092   4.074   4.103 -0.3174  0.0189  0.1574
   80MOL   H13920837   1.107   3.988   3.871 -0.9799  1.2199 -2.2736
   80MOL   H14020838   1.247   3.980   3.663 -2.4047 -1.2159  1.0841
   80MOL   H14120839   1.281   3.836   3.758  0.3232  0.0906  0.0199
   80MOL   H14220840   1.491   4.029   3.647 -1.0857 -0.3309 -1.4613
   80MOL   H14320841   1.522   3.932   3.778  0.2100  0.1272 -0.2790
   80MOL   H14420842   1.469   3.852   3.625 -1.9343 -1.0541  0.5000
   80MOL   C14520843   1.164   4.204   3.850 -0.3968 -0.2496 -0.0584
   80MOL   C14620844   1.031   4.269   3.890 -0.1395 -0.2673  0.1822
   80MOL   O14720845   0.935   4.180   3.840 -0.2686 -0.1885  0.5344
   80MOL   C14820846   0.807   4.187   3.911 -0.9864 -0.5607  0.0780
   80MOL   C14920847   0.732   4.055   3.886  0.3219  0.1695 -0.5727
   80MOL   H15020848   1.174   4.202   3.741 -0.7646  0.3472 -0.1076
   80MOL   H15120849   1.249   4.261   3.885  0.3018 -1.3428  0.0613
   80MOL   H15220850   1.032   4.281   3.998  0.9342 -1.6427  0.3403
   80MOL   H15320851   0.744   4.272   3.884 -2.9779 -2.0316 -0.0553
   80MOL   H15420852   0.822   4.191   4.019  0.6294 -0.9226 -0.1211
   80MOL   H15520853   0.746   4.032   3.780  0.2040 -0.7274 -0.3984
   80MOL   H15620854   0.764   3.965   3.939  1.2557  0.1391 -1.1869
   80MOL   H15720855   0.625   4.060   3.904  0.8350 -0.5567  3.0214
   80MOL   C15820856   1.010   4.408   3.817 -0.1071  0.1329 -0.0531
   80MOL   C15920857   1.122   4.515   3.844  0.5812  0.0863  0.3247
   80MOL   O16020858   1.243   4.492   3.774  0.1809 -0.5402  0.3382
   80MOL   C16120859   1.250   4.507   3.634  0.4930 -0.1432 -0.3526
   80MOL   C16220860   1.395   4.502   3.590  0.2721  0.1080  0.3342
   80MOL   H16320861   0.913   4.446   3.849  0.6639  1.2044  1.0456
   80MOL   H16420862   0.997   4.392   3.710  2.2252 -1.2236 -0.1861
   80MOL   H16520863   1.082   4.614   3.821 -1.4181 -0.0076  3.1230
   80MOL   H16620864   1.200   4.596   3.596  1.2181  0.3273 -0.2186
   80MOL   H16720865   1.198   4.424   3.588  0.1096 -0.2072  0.1900
   80MOL   H16820866   1.457   4.588   3.619  0.2957  0.1015  0.3032
   80MOL   H16920867   1.442   4.413   3.631 -1.4036 -0.1734  1.6864
   80MOL   H17020868   1.401   4.507   3.481 -1.8450 -1.0650  0.1407
   80MOL   C17120869   1.162   4.532   3.995  0.1364 -0.4627 -0.3048
   80MOL   C17220870   1.056   4.576   4.103  0.0071  0.0558 -0.1294
   80MOL   O17320871   0.999   4.697   4.054  0.4802  0.0551  0.5243
   80MOL   C17420872   0.863   4.725   4.097 -1.4088 -0.2106 -0.8915
   80MOL   C17520873   0.844   4.874   4.059  0.5457  0.2513  0.2443
   80MOL   H17620874   1.254   4.587   4.010  0.8104 -2.0028  1.3005
   80MOL   H17720875   1.190   4.431   4.024 -0.7091 -0.3545  0.9309
   80MOL   H17820876   0.971   4.507   4.112 -0.3666  0.1080 -2.7711
   80MOL   H17920877   0.859   4.714   4.205  1.7087 -1.2109 -0.8269
   80MOL   H18020878   0.793   4.657   4.047 -0.8438  0.1429 -2.1921
   80MOL   H18120879   0.940   4.919   4.084 -0.7216  1.7821  2.4908
   80MOL   H18220880   0.825   4.889   3.953  1.2561  2.4996  0.4108
   80MOL   H18320881   0.761   4.912   4.117  1.9179  1.6513  1.3446
   80MOL   C18420882   1.109   4.606   4.245 -0.3122  0.0548  0.0550
   80MOL   C18520883   1.161   4.487   4.320  0.3809  0.0115 -0.0750
   80MOL   O18620884   1.047   4.412   4.362 -0.1176 -0.1108 -0.2191
   80MOL   C18720885   1.057   4.268   4.385  0.2420  0.1054  0.1566
   80MOL   C18820886   0.931   4.231   4.465  0.3697  0.0137  0.7129
   80MOL   H18920887   1.039   4.657   4.311 -0.0583 -0.1964  0.5180
   80MOL   H19020888   1.187   4.681   4.234 -2.0084  2.3793  3.0183
   80MOL   H19120889   1.219   4.427   4.250 -0.7221 -0.0971 -0.9128
   80MOL   H19220890   1.151   4.245   4.435  0.9149 -1.6086 -1.8109
   80MOL   H19320891   1.058   4.222   4.286 -1.0519  1.1723 -0.3644
   80MOL   H19420892   0.922   4.304   4.546 -0.8011 -0.0981  0.6843
   80MOL   H19520893   0.843   4.235   4.401  0.9729 -0.1207 -0.1206
   80MOL   H19620894   0.935   4.133   4.512 -3.6231  0.0710  1.3049
   80MOL   C19720895   1.224   4.538   4.451  0.3570  0.5711 -0.1181
   80MOL   C19820896   1.368   4.587   4.448 -0.6182  0.4486 -0.0003
   80MOL   O19920897   1.442   4.471   4.406  0.0136 -0.0339 -0.1592
   80MOL   C20020898   1.576   4.498   4.368  0.8094 -0.2571  0.2417
   80MOL   C20120899   1.617   4.383   4.277 -0.2478  0.5801  0.5760
   80MOL   H20220900   1.217   4.460   4.527 -2.0158 -0.0421 -0.9297
   80MOL   H20320901   1.164   4.617   4.497  2.0268  1.3356  0.7887
   80MOL   H20420902   1.382   4.668   4.376 -0.2993  1.0301  0.7015
   80MOL   H20520903   1.637   4.493   4.458  0.8992 -3.5278  0.0695
   80MOL   H20620904   1.594   4.596   4.324  0.0949 -0.5897 -0.8193
   80MOL   H20720905   1.573   4.382   4.177  1.0449 -0.6128  0.0066
   80MOL   H20820906   1.724   4.386   4.261 -0.2473  0.2602  0.5150
   80MOL   H20920907   1.597   4.290   4.330 -0.0472  0.2610  0.0953
   80MOL   C21020908   1.427   4.631   4.586 -0.0855 -0.2919  0.0057
   80MOL   C21120909   1.346   4.744   4.654  0.0454 -0.3585  0.2438
   80MOL   O21220910   1.336   4.852   4.564 -0.4125 -0.7891 -0.1370
   80MOL   C21320911   1.220   4.935   4.575 -0.0879 -0.6722  0.0228
   80MOL   C21420912   1.199   4.993   4.429  0.0105 -0.1921 -0.2466
   80MOL   H21520913   1.525   4.674   4.565 -0.4816  1.6520  2.0317
   80MOL   H21620914   1.438   4.543   4.650  0.2993 -1.9450 -2.2835
   80MOL   H21720915   1.245   4.708   4.676  0.1467 -1.0925 -0.4601
   80MOL   H21820916   1.228   5.000   4.662  1.1051 -0.5899 -0.1402
   80MOL   H21920917   1.132   4.878   4.605  0.4764 -0.0532  2.9641
   80MOL   H22020918   1.100   5.035   4.410  0.7349  1.7448  0.1212
   80MOL   H22120919   1.282   5.062   4.414 -0.8436  0.7231 -0.8337
   80MOL   H22220920   1.202   4.914   4.354 -2.0243 -1.8690  1.3582
   80MOL   C22320921   1.410   4.791   4.786 -0.2607 -0.0146 -0.8289
   80MOL   C22420922   1.423   4.681   4.903 -0.4831 -0.7391  0.1848
   80MOL   O22520923   1.292   4.649   4.939  0.0747 -0.3886 -0.3885
   80MOL   C22620924   1.259   4.519   4.979 -0.2522  0.2573  0.4682
   80MOL   C22720925   1.198   4.445   4.864  0.2623 -0.0220  0.1787
   80MOL   H22820926   1.355   4.872   4.833  1.7351  0.3358  1.0044
   80MOL   H22920927   1.506   4.835   4.757  0.0651 -2.0357 -2.9956
   80MOL   H23020928   1.474   4.596   4.858 -2.9510 -0.8488 -2.5872
   80MOL   H23120929   1.184   4.532   5.057  0.4839 -1.0944  1.4175
   80MOL   H23220930   1.345   4.461   5.014  0.0206  0.6134  0.3848
   80MOL   H23320931   1.241   4.474   4.768  0.6323  2.8306  1.1713
   80MOL   H23420932   1.201   4.337   4.883 -1.8364 -0.3248 -1.0516
   80MOL   H23520933   1.095   4.478   4.852  0.3170  0.3436  0.6943
   80MOL   C23620934   1.497   4.741   5.029  0.3599 -0.3954 -0.3954
   80MOL   C23720935   1.651   4.736   5.030 -0.5037 -0.2594 -0.3242
   80MOL   O23820936   1.698   4.789   4.902  0.1094 -0.0806 -0.1503
   80MOL   C23920937   1.770   4.906   4.902  0.1925  0.0510  0.4179
   80MOL   C24020938   1.809   4.959   4.755 -0.0612  0.0906 -1.1021
   80MOL   H24120939   1.467   4.692   5.121  0.5412  1.4920  0.7109
   80MOL   H24220940   1.457   4.842   5.041 -3.0099 -1.6559 -0.3030
   80MOL   H24320941   1.680   4.804   5.111 -0.1344  0.0377 -0.7007
   80MOL   H24420942   1.856   4.893   4.968 -1.6030 -2.5638  2.3613
   80MOL   H24520943   1.711   4.983   4.952 -0.5834 -1.2806  1.6105
   80MOL   H24620944   1.719   4.999   4.707  1.0098  1.3780 -2.0663
   80MOL   H24720945   1.892   5.029   4.766  1.4369 -1.4552 -2.3916
   80MOL   H24820946   1.858   4.882   4.697 -1.4433 -2.9862  1.6254
   80MOL   C24920947   1.709   4.596   5.030 -0.0320  0.3188 -0.7846
   80MOL   C25020948   1.863   4.593   5.031 -0.2974 -0.2067 -0.0357
   80MOL   O25120949   1.914   4.458   5.033  0.5356 -0.2503 -0.1204
   80MOL   C25220950   2.049   4.436   4.987  0.3187 -0.0432 -0.6405
   80MOL   C25320951   2.096   4.299   5.042 -0.9091  0.6691  0.1098
   80MOL   H25420952   1.662   4.551   4.942  0.6502 -0.8190 -0.5773
   80MOL   H25520953   1.669   4.538   5.114  0.2695 -0.3528 -1.0974
   80MOL   H25620954   1.887   4.640   4.935 -2.8882 -0.1106 -0.6672
   80MOL   H25720955   2.110   4.523   5.010  0.7064  0.1113 -2.2139
   80MOL   H25820956   2.050   4.428   4.879 -1.3102 -1.4113 -0.5855
   80MOL   H25920957   2.174   4.254   4.980  0.7809  0.2119  2.4674
   80MOL   H26020958   2.121   4.307   5.148 -0.4029  1.1752 -0.0466
   80MOL   H26120959   2.005   4.241   5.029  1.3005 -2.6926 -0.8030
   80MOL   H26220960   1.891   4.654   5.117 -2.1496  1.3520 -0.5165
   81MOL     C120961   3.124   0.828   5.680 -0.0786 -0.5598  0.1327
   81MOL     C220962   3.161   0.719   5.781 -0.5053 -0.2472  0.1546
   81MOL     O320963   3.148   0.588   5.726 -0.0101  0.6751  0.1511
   81MOL     C420964   3.229   0.567   5.612  0.4191 -0.2880  0.7005
   81MOL     C520965   3.225   0.421   5.568 -0.5416 -0.8912  0.4594
   81MOL     H620966   3.120   0.927   5.726 -0.1297  0.2318 -1.5579
   81MOL     H720967   3.178   0.843   5.587 -1.2777  1.8225 -0.2218
   81MOL     H820968   3.267   0.735   5.802  0.4120 -1.5426 -3.1934
   81MOL     H920969   3.333   0.598   5.621  0.8668 -1.1531 -1.2507
   81MOL    H1020970   3.180   0.625   5.534 -0.3622  0.8876  2.0398
   81MOL    H1120971   3.117   0.405   5.573 -0.5228 -1.4281 -0.7124
   81MOL    H1220972   3.266   0.405   5.469 -0.9156  2.4642 -0.2889
   81MOL    H1320973   3.284   0.354   5.631  1.4450  0.1660 -0.2468
   81MOL    H1420974   3.020   0.811   5.653  0.8662 -3.1374 -2.0879
   81MOL    C1520975   3.071   0.719   5.905  0.0139 -0.6318 -0.1976
   81MOL    C1620976   3.044   0.598   5.988  0.5156  0.7306 -0.7453
   81MOL    O1720977   2.950   0.611   6.099  0.3572  0.3112 -0.2699
   81MOL    C1820978   2.821   0.671   6.086 -0.5296  0.2277 -0.9750
   81MOL    C1920979   2.736   0.665   6.208  0.5975 -0.1326  0.1887
   81MOL    H2020980   2.972   0.753   5.876 -0.3914 -2.4329 -0.9744
   81MOL    H2120981   3.108   0.797   5.972 -0.2476  0.8994 -1.8131
   81MOL    H2220982   2.989   0.530   5.923 -0.7457  0.1180  0.9279
   81MOL    H2320983   2.779   0.629   5.995 -0.1800 -0.6221 -0.7481
   81MOL    H2420984   2.833   0.772   6.047 -2.6148  0.7792 -0.2787
   81MOL    H2520985   2.767   0.733   6.288  0.9777 -1.2952  1.0420
   81MOL    H2620986   2.740   0.566   6.253  0.6550  0.3822  1.3339
   81MOL    H2720987   2.638   0.699   6.173 -0.1926 -1.4563  1.0997
   81MOL    C2820988   3.162   0.525   6.055  0.6040  0.1379 -0.0193
   81MOL    C2920989   3.144   0.379   6.110 -0.1594 -0.4861  0.1239
   81MOL    O3020990   3.257   0.345   6.193 -0.3601  0.9197 -0.1026
   81MOL    C3120991   3.261   0.400   6.319 -0.1998 -0.5814  0.1692
   81MOL    C3220992   3.365   0.343   6.410  0.1145 -0.0355  0.7268
   81MOL    H3320993   3.208   0.590   6.129  0.7362 -0.9068  0.8394
   81MOL    H3420994   3.236   0.517   5.975 -0.1962  5.0587 -1.3878
   81MOL    H3520995   3.050   0.380   6.165  0.5083  4.5003  1.4014
   81MOL    H3620996   3.167   0.379   6.369 -0.0367 -2.4293 -0.2531
   81MOL    H3720997   3.269   0.508   6.319  0.9862 -0.6499  1.0189
   81MOL    H3820998   3.465   0.372   6.379 -0.6634  1.5001 -0.3864
   81MOL    H3920999   3.358   0.389   6.508  1.2331 -1.6077  1.5720
   81MOL    H4021000   3.344   0.236   6.418  1.5303 -0.1101  4.4071
   81MOL    C4121001   3.133   0.277   5.993 -0.3104  0.0391  0.5590
   81MOL    C4221002   3.120   0.133   6.055  0.3868 -0.2586  0.6171
   81MOL    O4321003   3.097   0.046   5.956  0.3522  0.5607 -0.0329
   81MOL    C4421004   3.207   0.019   5.863 -0.2249  0.2356 -0.3106
   81MOL    C4521005   3.171   7.759   5.759  0.4458  0.1316  0.3430
   81MOL    H4621006   3.212   0.295   5.920 -1.8760  0.3677 -1.0779
   81MOL    H4721007   3.048   0.297   5.928  0.8203  1.6277 -0.4377
   81MOL    H4821008   3.214   0.098   6.099  0.7128 -0.6095 -0.3382
   81MOL    H4921009   3.290   7.815   5.915 -1.7436 -0.7947  1.2113
   81MOL    H5021010   3.236   0.114   5.816 -0.3055 -0.2111 -1.2784
   81MOL    H5121011   3.185   7.657   5.794 -1.9817 -0.8019 -1.2539
   81MOL    H5221012   3.064   7.770   5.743  0.2337 -0.8323  1.0565
   81MOL    H5321013   3.229   7.783   5.670  1.7418  1.8838  1.6227
   81MOL    C5421014   3.006   0.111   6.154  0.3160  0.2888 -0.3332
   81MOL    C5521015   3.027   7.809   6.215  0.1410 -0.1717 -0.1664
   81MOL    O5621016   2.898   7.749   6.250 -0.2866 -0.2690  0.2791
   81MOL    C5721017   2.816   7.717   6.141  0.8511 -0.1391  0.4315
   81MOL    C5821018   2.685   7.657   6.196  0.2461 -0.4552 -0.3333
   81MOL    H5921019   2.910   0.120   6.104 -0.6152  0.9938  1.5219
   81MOL    H6021020   3.003   0.185   6.234  2.1161  0.6005 -0.5454
   81MOL    H6121021   3.078   7.738   6.151 -0.4976 -0.8561  0.0677
   81MOL    H6221022   2.851   7.639   6.072  0.3896 -0.0221  0.0680
   81MOL    H6321023   2.774   7.796   6.080 -1.0983 -0.4351  1.3606
   81MOL    H6421024   2.710   7.560   6.240  2.3862  0.3968  0.3448
   81MOL    H6521025   2.632   7.708   6.277  1.1682  0.9661 -0.6141
   81MOL    H6621026   2.612   7.646   6.115 -1.7352  0.3314  1.2870
   81MOL    C6721027   3.110   7.802   6.348  0.5244  1.0127 -0.6560
   81MOL    C6821028   3.151   7.655   6.394 -0.0559  0.3036  0.0084
   81MOL    O6921029   3.046   7.573   6.439  0.1916  0.3271  0.3335
   81MOL    C7021030   3.012   7.474   6.345  0.4536  0.3800 -1.1052
   81MOL    C7121031   2.910   7.383   6.401 -0.3041 -0.4187 -0.0559
   81MOL    H7221032   3.059   0.005   6.432  0.0491 -0.3850 -0.1518
   81MOL    H7321033   3.201   0.015   6.328  1.8719 -0.7123  0.3751
   81MOL    H7421034   3.200   7.607   6.309  0.6608 -0.2868  0.7465
   81MOL    H7521035   3.101   7.415   6.326 -0.1706 -0.4639 -1.4265
   81MOL    H7621036   2.972   7.511   6.251  1.0808  0.6989 -1.2489
   81MOL    H7721037   2.878   7.315   6.322  3.7768 -1.1971 -1.1601
   81MOL    H7821038   2.936   7.322   6.487 -1.0198  1.9834  1.8945
   81MOL    H7921039   2.832   7.455   6.422  0.1046  0.4373 -1.4064
   81MOL    C8021040   3.254   7.662   6.512  0.4115  0.1248  0.4957
   81MOL    C8121041   3.312   7.520   6.558 -0.3526  0.0647 -0.1381
   81MOL    O8221042   3.360   7.558   6.685  0.0037  0.4673  0.3492
   81MOL    C8321043   3.294   7.496   6.794 -0.2614  0.5355 -0.2030
   81MOL    C8421044   3.376   7.522   6.917  0.4785  0.2311 -0.0363
   81MOL    H8521045   3.203   7.710   6.596  1.4658 -2.1430  2.5067
   81MOL    H8621046   3.344   7.718   6.488  1.1215 -0.5600  1.5055
   81MOL    H8721047   3.239   7.439   6.563  1.1362 -1.2991 -0.0408
   81MOL    H8821048   3.292   7.388   6.777 -0.6646  0.2753  1.4207
   81MOL    H8921049   3.190   7.526   6.810 -0.0038  1.2895  0.0575
   81MOL    H9021050   3.341   7.478   7.010 -0.7061  0.4606 -0.3630
   81MOL    H9121051   3.479   7.500   6.887 -0.4378 -1.0965 -2.2868
   81MOL    H9221052   3.376   7.631   6.926 -0.1906  0.1364  1.2272
   81MOL    C9321053   3.431   7.493   6.463 -0.0441 -0.0800  0.2426
   81MOL    C9421054   3.502   7.370   6.505  0.0054  0.0759  0.2511
   81MOL    O9521055   3.633   7.355   6.439 -0.1561  0.0644 -0.1719
   81MOL    C9621056   3.731   7.278   6.503 -1.1753  0.6446  0.1187
   81MOL    C9721057   3.841   7.224   6.413 -0.3241 -0.5947 -0.3040
   81MOL    H9821058   3.507   7.570   6.474  1.5944 -1.7625  0.9092
   81MOL    H9921059   3.404   7.496   6.357 -0.3189  0.7595  0.3288
   81MOL   H10021060   3.527   7.394   6.609 -0.8675  0.9571  0.2764
   81MOL   H10121061   3.684   7.184   6.533  1.9340 -2.6104 -4.4919
   81MOL   H10221062   3.765   7.332   6.591 -0.1206  0.5476 -0.2310
   81MOL   H10321063   3.899   7.298   6.359 -0.5779  1.0890  1.6933
   81MOL   H10421064   3.911   7.172   6.479 -0.4803 -4.5249 -3.0163
   81MOL   H10521065   3.802   7.142   6.351  1.0540  0.9895 -3.3572
   81MOL   C10621066   3.405   7.243   6.487  0.5288 -0.4236  0.8538
   81MOL   C10721067   3.353   7.223   6.339  0.1772 -0.0272 -0.1038
   81MOL   O10821068   3.279   7.104   6.346 -0.0622 -0.8256 -0.7951
   81MOL   C10921069   3.140   7.104   6.316 -0.2466 -0.0943 -0.6665
   81MOL   C11021070   3.085   6.966   6.322  0.9060  0.6961 -0.5149
   81MOL   H11121071   3.312   7.246   6.544 -0.9070  2.4287 -1.4823
   81MOL   H11221072   3.458   7.152   6.515 -1.3752 -2.0100 -0.5279
   81MOL   H11321073   3.294   7.306   6.300  0.3122  0.1354  0.0363
   81MOL   H11421074   3.108   7.172   6.237  0.6370  1.7678  0.5548
   81MOL   H11521075   3.087   7.147   6.401 -0.0006  2.5680 -1.8212
   81MOL   H11621076   2.981   6.969   6.289 -0.5934 -1.2885  3.6707
   81MOL   H11721077   3.142   6.908   6.249  1.0763  1.6800 -1.1650
   81MOL   H11821078   3.083   6.916   6.419  2.5192  1.1072 -0.2547
   81MOL   C11921079   3.473   7.194   6.245 -0.0838  0.3740 -0.3910
   81MOL   C12021080   3.504   7.299   6.140 -0.6582 -0.1498 -0.2281
   81MOL   O12121081   3.400   7.305   6.042 -0.3728 -0.0337 -0.1933
   81MOL   C12221082   3.318   7.420   6.052 -0.1906  0.2428 -0.4571
   81MOL   C12321083   3.204   7.405   5.956  0.6541  0.5416  0.1547
   81MOL   H12421084   3.463   7.096   6.199  0.1814  0.1615  0.0027
   81MOL   H12521085   3.561   7.187   6.309  0.6097  2.6607 -1.0433
   81MOL   H12621086   3.520   7.392   6.194 -1.8750 -0.0943  0.0469
   81MOL   H12721087   3.382   7.505   6.028  0.5258 -0.0848  0.2846
   81MOL   H12821088   3.270   7.443   6.148  1.0383  1.2112 -0.0592
   81MOL   H12921089   3.255   7.403   5.859  0.5593 -3.1457  0.0904
   81MOL   H13021090   3.172   7.301   5.964  0.7249  0.4331 -0.9444
   81MOL   H13121091   3.123   7.477   5.957  1.0388  0.9693  0.6817
   81MOL   C13221092   3.637   7.277   6.059  0.1638  0.8182 -1.0085
   81MOL   C13321093   3.680   7.400   5.976 -0.5990 -0.1477  0.0780
   81MOL   O13421094   3.782   7.370   5.883  0.7808  0.5843  0.2157
   81MOL   C13521095   3.738   7.342   5.751  0.2861  0.6448  0.5118
   81MOL   C13621096   3.850   7.281   5.678 -0.1401 -0.4330 -0.4162
   81MOL   H13721097   3.627   7.193   5.991 -0.0569  1.4021 -1.6991
   81MOL   H13821098   3.715   7.245   6.129  0.1161  0.5849 -1.0615
   81MOL   H13921099   3.594   7.447   5.930  0.0887  2.7693  1.6140
   81MOL   H14021100   3.707   7.433   5.700 -0.2074  0.5748  0.6854
   81MOL   H14121101   3.657   7.270   5.759  0.4855  0.2590 -0.7245
   81MOL   H14221102   3.825   7.216   5.594  2.3047 -2.5810  0.4399
   81MOL   H14321103   3.916   7.363   5.651  0.8595 -0.3594  2.1303
   81MOL   H14421104   3.910   7.220   5.745 -0.1446 -0.5443 -0.5134
   81MOL   C14521105   3.744   7.507   6.063 -0.5178  0.8505 -0.8845
   81MOL   C14621106   3.708   7.651   6.022 -0.2818  0.4466 -0.4101
   81MOL   O14721107   3.567   7.662   6.043 -0.2370 -0.4980 -0.1030
   81MOL   C14821108   3.535   7.700   6.176 -0.4611 -0.2443  0.3126
   81MOL   C14921109   3.549   0.007   6.194  0.7907  0.0143 -0.4736
   81MOL   H15021110   3.853   7.500   6.063 -0.5682 -0.2330  0.6098
   81MOL   H15121111   3.729   7.488   6.170  3.5155 -2.5367 -0.7524
   81MOL   H15221112   3.767   7.718   6.085 -0.5676  0.3919 -0.0834
   81MOL   H15321113   3.593   7.645   6.250  0.2771  0.8159  0.5139
   81MOL   H15421114   3.435   7.667   6.207 -0.7067 -1.1482 -1.3779
   81MOL   H15521115   3.475   0.045   6.124  0.6972 -1.7331 -1.3384
   81MOL   H15621116   3.513   0.044   6.290  0.3073 -2.3037  0.2717
   81MOL   H15721117   3.645   0.052   6.167  1.8651 -2.1395 -0.3509
   81MOL   C15821118   3.735   7.695   5.874 -0.6908  0.5888  0.1710
   81MOL   C15921119   3.888   7.697   5.836  0.0675  0.5556  1.0622
   81MOL   O16021120   3.952   7.796   5.924 -0.0477 -0.0221 -0.3676
   81MOL   C16121121   4.068   7.749   5.987  0.2530 -0.2046 -0.8119
   81MOL   C16221122   4.122   7.843   6.093 -0.1399 -0.3984  0.0764
   81MOL   H16321123   3.709   7.798   5.848 -1.5049  1.0111  2.4911
   81MOL   H16421124   3.698   7.625   5.799 -2.1271  3.0856 -1.5295
   81MOL   H16521125   3.914   7.595   5.863  0.8551  0.7763  1.1544
   81MOL   H16621126   4.142   7.720   5.913  1.6253  0.0147  0.4619
   81MOL   H16721127   4.053   7.655   6.040  0.5831 -0.3252 -0.9319
   81MOL   H16821128   4.057   0.046   6.168 -0.3862  1.1797 -1.0975
   81MOL   H16921129   4.203   7.804   6.154  1.2638 -0.2539 -1.6595
   81MOL   H17021130   4.151   0.083   6.030 -0.4101 -0.1507  0.2774
   81MOL   C17121131   3.919   7.725   5.686 -0.4916  0.1676 -0.0610
   81MOL   C17221132   3.860   0.014   5.631 -0.1738 -0.1476 -0.1812
   81MOL   O17321133   3.723   7.842   5.605  0.3616 -0.6281  0.1646
   81MOL   C17421134   3.650   0.125   5.611 -0.3044  0.6684 -0.5199
   81MOL   C17521135   3.502   0.102   5.583  0.2140 -0.2043 -0.5757
   81MOL   H17621136   3.890   7.634   5.633 -0.7115 -0.3344  0.9167
   81MOL   H17721137   4.026   7.718   5.670 -0.6691 -0.0768 -1.1772
   81MOL   H17821138   3.868   0.094   5.704  0.2536 -0.1983 -0.1717
   81MOL   H17921139   3.680   0.204   5.542 -2.7373  1.1455 -1.0607
   81MOL   H18021140   3.657   0.167   5.711 -0.5006 -0.7476  0.1051
   81MOL   H18121141   3.500   0.062   5.482  0.7690  0.1268 -0.7210
   81MOL   H18221142   3.446   0.045   5.657  1.8367 -0.7533  0.2612
   81MOL   H18321143   3.448   0.196   5.579  2.6870  1.4138  2.0311
   81MOL   C18421144   3.936   0.062   5.493  1.2152  0.2626 -0.1879
   81MOL   C18521145   4.088   0.107   5.514  0.0496 -0.0651 -0.0001
   81MOL   O18621146   4.085   0.232   5.577  0.9496  0.7767  0.3486
   81MOL   C18721147   4.190   0.251   5.676 -0.0358  0.4081  0.7183
   81MOL   C18821148   4.170   0.396   5.712 -0.4372 -0.6688 -0.9585
   81MOL   H18921149   3.878   0.145   5.453  0.2368 -0.3177  0.0180
   81MOL   H19021150   3.922   7.825   5.421  3.2034  0.8655 -1.2828
   81MOL   H19121151   4.150   0.030   5.561 -1.4182 -0.6336  1.0494
   81MOL   H19221152   4.285   0.224   5.628 -1.1370 -2.4327  0.0306
   81MOL   H19321153   4.163   0.183   5.757  0.9051 -0.5774  0.2239
   81MOL   H19421154   4.240   0.428   5.790 -1.9295  3.0875 -1.0319
   81MOL   H19521155   4.178   0.456   5.621 -1.1882  1.3470  0.2548
   81MOL   H19621156   4.069   0.405   5.751 -1.6198  0.9201 -4.2567
   81MOL   C19721157   4.158   0.128   5.379 -0.0760 -0.6811  0.8028
   81MOL   C19821158   4.208   7.837   5.311  0.1802 -0.2068 -0.1529
   81MOL   O19921159   4.323   7.796   5.393  0.2145  0.0027 -0.4464
   81MOL   C20021160   4.342   7.656   5.401  0.1450 -1.0141 -0.0147
   81MOL   C20121161   4.479   7.620   5.463 -0.3416  0.5484 -0.3840
   81MOL   H20221162   4.244   0.192   5.395  0.1599 -0.2469 -1.9587
   81MOL   H20321163   4.092   0.171   5.303  0.3515 -0.8419  0.3376
   81MOL   H20421164   4.122   7.770   5.302 -0.8251  0.9958  0.1875
   81MOL   H20521165   4.323   7.616   5.301  1.2905 -0.3373 -0.5115
   81MOL   H20621166   4.259   7.612   5.456 -0.5749  0.9850  0.5350
   81MOL   H20721167   4.498   7.519   5.428  3.3796  0.6870  1.0028
   81MOL   H20821168   4.561   7.686   5.434  0.4126 -0.2152  0.0151
   81MOL   H20921169   4.469   7.614   5.572  0.6018 -0.8346 -0.3654
   81MOL   C21021170   4.261   0.017   5.170 -0.0933 -0.5895  0.1685
   81MOL   C21121171   4.153   0.030   5.058 -0.3767  0.4659 -0.4614
   81MOL   O21221172   4.051   7.771   5.075 -0.0624 -0.0420 -0.0609
   81MOL   C21321173   3.919   7.824   5.076 -0.2731 -0.1336 -0.6477
   81MOL   C21421174   3.834   7.722   5.140 -0.1004  0.0345  0.1288
   81MOL   H21521175   4.322   7.776   5.139  0.7685  0.0781  0.0179
   81MOL   H21621176   4.331   0.101   5.175 -0.0560 -0.5539 -0.9035
   81MOL   H21721177   4.113   0.131   5.061 -0.0762  0.6598 -2.3338
   81MOL   H21821178   3.888   0.023   4.981  0.7533  0.2874 -0.7939
   81MOL   H21921179   3.916   0.065   5.145 -0.9332 -1.3724  0.8963
   81MOL   H22021180   3.856   7.627   5.093 -0.6794  0.0308 -0.1414
   81MOL   H22121181   3.855   7.708   5.246  1.8557 -0.2076 -0.2714
   81MOL   H22221182   3.729   7.752   5.146 -0.3616 -0.8967  0.3458
   81MOL   C22321183   4.214   0.005   4.914  0.1970 -0.0421  0.4308
   81MOL   C22421184   4.313   0.113   4.862 -0.4085  0.1245 -0.0847
   81MOL   O22521185   4.246   0.228   4.842  0.3601 -0.6297 -0.3365
   81MOL   C22621186   4.317   0.348   4.884 -0.4402  0.1297 -0.2106
   81MOL   C22721187   4.212   0.456   4.856  0.7170  0.3753  0.0976
   81MOL   H22821188   4.132   7.843   4.843  0.6298  1.9463 -0.2377
   81MOL   H22921189   4.249   7.745   4.909 -0.0927 -0.0910 -0.6619
   81MOL   H23021190   4.386   0.119   4.943 -0.1414 -2.7950 -0.0590
   81MOL   H23121191   4.404   0.371   4.822 -0.7993  0.0455 -0.7484
   81MOL   H23221192   4.347   0.350   4.989 -0.2621 -1.0830 -0.2255
   81MOL   H23321193   4.175   0.465   4.753  1.0529  0.4625 -0.0144
   81MOL   H23421194   4.126   0.449   4.922  0.3511 -0.9681 -0.4980
   81MOL   H23521195   4.260   0.550   4.883 -0.2123  0.5354  1.2308
   81MOL   C23621196   4.393   0.085   4.731 -0.3709 -0.2775 -0.4776
   81MOL   C23721197   4.479   7.798   4.724  0.2937 -0.6898 -0.0153
   81MOL   O23821198   4.561   7.800   4.842  0.0413  0.2847  0.3904
   81MOL   C23921199   4.544   7.680   4.923  0.1381 -0.1724  0.5966
   81MOL   C24021200   4.605   7.714   5.065  0.2456 -0.0016 -0.2038
   81MOL   H24121201   4.456   0.166   4.695 -0.9556  1.7243  2.7380
   81MOL   H24221202   4.323   0.073   4.648 -0.4542 -0.6181 -0.3567
   81MOL   H24321203   4.420   7.707   4.736 -0.8517  0.2447  1.6549
   81MOL   H24421204   4.597   7.594   4.883  0.3950  0.0067  0.5467
   81MOL   H24521205   4.445   7.635   4.921  0.9673 -2.1192 -3.5950
   81MOL   H24621206   4.534   7.757   5.135 -1.5913 -2.7583 -0.2923
   81MOL   H24721207   4.641   7.633   5.128  0.5058  0.7340  0.5951
   81MOL   H24821208   4.692   7.779   5.058  1.2179 -1.3882 -1.2391
   81MOL   C24921209   4.566   7.771   4.604  0.4153 -0.1600  0.8412
   81MOL   C25021210   4.481   7.759   4.476 -0.2769  0.3744 -0.5521
   81MOL   O25121211   4.582   7.765   4.377 -0.3952 -0.3065  0.1648
   81MOL   C25221212   4.522   7.747   4.250 -0.1970  1.0110  0.7330
   81MOL   C25321213   4.513   0.039   4.182  0.2057 -0.2812 -0.7631
   81MOL   H25421214   4.624   7.682   4.628 -1.8324 -1.4155  1.8163
   81MOL   H25521215   4.633   0.011   4.587  0.3392 -0.3571 -0.4960
   81MOL   H25621216   4.424   7.666   4.479 -1.6430  1.2236  0.4671
   81MOL   H25721217   4.428   7.692   4.254  1.7330 -2.4394  0.4480
   81MOL   H25821218   4.582   7.677   4.192 -0.5843  1.7511 -0.5716
   81MOL   H25921219   4.454   0.049   4.092  0.5410  0.7240 -0.8750
   81MOL   H26021220   4.450   0.096   4.251 -1.5665 -0.4780 -2.2038
   81MOL   H26121221   4.605   0.093   4.159 -0.0717  0.4676 -0.1419
   81MOL   H26221222   4.406   7.837   4.479  1.0474  1.6540  0.0152
   82MOL     C121223   7.738   4.727   4.472 -0.4687 -0.6406 -0.2529
   82MOL     C221224   7.642   4.813   4.558 -0.2996  0.3612 -0.5675
   82MOL     O321225   7.703   4.933   4.591 -0.0794 -0.5703  0.5603
   82MOL     C421226   7.621   5.055   4.614  0.0461 -0.0181  0.0565
   82MOL     C521227   7.696   5.181   4.663  0.0535  0.2540  0.1324
   82MOL     H621228   7.696   4.630   4.448 -0.8675 -1.3755  3.0789
   82MOL     H721229   7.764   4.776   4.379  0.1031  1.6152  1.0426
   82MOL     H821230   7.554   4.832   4.496 -0.0110 -0.7749 -1.3387
   82MOL     H921231   7.545   5.029   4.689  2.2103 -2.5870  1.4300
   82MOL    H1021232   7.560   5.079   4.527  1.1996 -0.4033 -0.8603
   82MOL    H1121233   7.792   5.190   4.613 -0.3420 -2.6544 -1.2378
   82MOL    H1221234   7.639   5.272   4.649  0.6708  0.5504 -0.4329
   82MOL    H1321235   7.715   5.161   4.769 -0.2986  0.6014  0.2596
   82MOL    H1421236   7.835   4.713   4.521  0.7797  2.5506 -1.6297
   82MOL    C1521237   7.604   4.739   4.686  0.5377  0.1678  0.3825
   82MOL    C1621238   7.484   4.654   4.684 -0.4892 -0.0177 -0.3782
   82MOL    O1721239   7.373   4.748   4.684 -0.8031  0.6877 -1.3015
   82MOL    C1821240   7.253   4.718   4.627  0.2057  0.2920 -0.6040
   82MOL    C1921241   7.173   4.849   4.643 -0.2766  0.4244  0.3480
   82MOL    H2021242   7.594   4.819   4.760  2.6428 -1.1356  2.1558
   82MOL    H2121243   7.687   4.674   4.716 -0.9013 -1.9916 -0.1813
   82MOL    H2221244   7.488   4.595   4.593  1.0713  1.2817 -1.1836
   82MOL    H2321245   7.199   4.637   4.677 -0.8913  2.1333  1.2560
   82MOL    H2421246   7.269   4.684   4.525 -2.1029  0.5749 -1.0836
   82MOL    H2521247   7.145   4.859   4.747  1.3696  0.6999  0.7781
   82MOL    H2621248   7.077   4.857   4.593 -0.7490  0.0041  1.1863
   82MOL    H2721249   7.225   4.933   4.598  0.2389  0.8115  1.6414
   82MOL    C2821250   7.464   4.568   4.813  0.0934 -0.2065  0.1590
   82MOL    C2921251   7.568   4.454   4.837 -0.0528  0.5254 -0.9255
   82MOL    O3021252   7.691   4.507   4.888  0.3162 -0.0750 -0.3659
   82MOL    C3121253   7.692   4.570   5.015 -0.6867  0.5327  0.1704
   82MOL    C3221254   7.822   4.528   5.083  0.1343  0.7977 -0.1018
   82MOL    H3321255   7.371   4.513   4.806  0.2140 -0.5662  1.2768
   82MOL    H3421256   7.464   4.640   4.895 -0.2752  2.7448 -2.3430
   82MOL    H3521257   7.542   4.392   4.922  0.3340 -1.4012 -2.1805
   82MOL    H3621258   7.604   4.541   5.073  1.0082 -0.0305  2.5262
   82MOL    H3721259   7.688   4.679   5.017  0.1718  0.5829 -0.3849
   82MOL    H3821260   0.016   4.590   5.164 -0.7172  1.7158 -0.3939
   82MOL    H3921261   7.817   4.423   5.109 -1.0084  0.6020 -1.0447
   82MOL    H4021262   0.063   4.538   5.015 -0.4748  0.2391 -0.9471
   82MOL    C4121263   7.591   4.376   4.714 -0.1156  0.7945 -0.0497
   82MOL    C4221264   7.458   4.296   4.673  0.1811 -0.2685 -0.5621
   82MOL    O4321265   7.404   4.231   4.788  0.0268  0.0038  0.2783
   82MOL    C4421266   7.272   4.186   4.769  0.0418  0.2089  0.1042
   82MOL    C4521267   7.227   4.122   4.897 -0.6402  0.2493  0.0935
   82MOL    H4621268   7.671   4.306   4.737 -1.5310  0.0174  2.8194
   82MOL    H4721269   7.626   4.433   4.629  0.5462 -2.3084 -1.9386
   82MOL    H4821270   7.383   4.369   4.642  1.1679  0.9984  0.0042
   82MOL    H4921271   7.268   4.104   4.697  1.9169 -1.1407  1.5112
   82MOL    H5021272   7.203   4.266   4.739  0.9181  1.2347  0.8074
   82MOL    H5121273   7.246   4.195   4.976  3.5172 -1.2317  0.5999
   82MOL    H5221274   7.121   4.100   4.911 -0.7216  1.5878  1.7225
   82MOL    H5321275   7.277   4.027   4.914 -1.5262 -0.7850 -2.7111
   82MOL    C5421276   7.492   4.192   4.556  0.5345  0.5420  0.0431
   82MOL    C5521277   7.544   4.246   4.418 -0.6828  0.3351  0.1373
   82MOL    O5621278   7.448   4.348   4.378  0.3143 -0.3602  0.2808
   82MOL    C5721279   7.480   4.426   4.263 -0.3992 -0.1348 -0.2062
   82MOL    C5821280   7.363   4.522   4.241  0.5848  0.5469  0.0144
   82MOL    H5921281   7.413   4.121   4.534  1.3951 -0.7273  0.9831
   82MOL    H6021282   7.564   4.127   4.603 -1.4817  0.5279  3.2628
   82MOL    H6121283   7.646   4.278   4.436 -0.2523  0.3758 -2.2105
   82MOL    H6221284   7.487   4.364   4.173 -0.9534 -1.1553  0.4469
   82MOL    H6321285   7.573   4.481   4.267 -1.6741  2.1518 -0.9084
   82MOL    H6421286   7.270   4.468   4.252 -0.3975  2.0565 -0.7274
   82MOL    H6521287   7.369   4.595   4.322  0.6456  1.1672 -0.5500
   82MOL    H6621288   7.369   4.573   4.145  1.1618 -0.3344 -0.4219
   82MOL    C6721289   7.537   4.133   4.316 -0.0578 -0.0149 -0.7630
   82MOL    C6821290   7.625   4.008   4.324  0.5348  0.1777  0.7637
   82MOL    O6921291   7.748   4.050   4.381  0.2093  0.1911  0.4209
   82MOL    C7021292   7.841   3.958   4.433  1.3166  0.6611 -0.1235
   82MOL    C7121293   0.082   4.015   4.551 -0.3779 -0.6361  0.0757
   82MOL    H7221294   7.563   4.183   4.222 -0.6593  0.7337 -0.5386
   82MOL    H7321295   7.433   4.105   4.298 -0.5167  1.3381 -0.2937
   82MOL    H7421296   7.570   3.946   4.394  2.9085 -1.2712  1.4192
   82MOL    H7521297   0.061   3.928   4.349 -2.2184 -3.5712 -1.4891
   82MOL    H7621298   7.794   3.864   4.461 -0.8234  1.7034 -0.1217
   82MOL    H7721299   0.136   4.105   4.520 -0.6366 -0.2575  0.7262
   82MOL    H7821300   0.011   4.043   4.628 -0.0353 -1.9536  0.8964
   82MOL    H7921301   0.151   3.942   4.593 -1.2075 -1.5062 -0.0576
   82MOL    C8021302   7.645   3.939   4.188 -0.5137 -0.4507  0.7013
   82MOL    C8121303   7.537   3.838   4.147 -0.3350 -0.4123 -0.1160
   82MOL    O8221304   7.601   3.735   4.084 -0.1060  0.0884 -0.4313
   82MOL    C8321305   7.647   3.744   3.950  0.2232  0.4098 -0.3704
   82MOL    C8421306   7.746   3.621   3.933  0.7779 -1.2793  0.4432
   82MOL    H8521307   7.735   3.879   4.197 -0.4589 -0.2135  1.8550
   82MOL    H8621308   7.669   4.004   4.104  1.1841  0.7286  2.0714
   82MOL    H8721309   7.499   3.804   4.244 -0.1149  0.0907  0.1520
   82MOL    H8821310   7.707   3.832   3.929  1.6845 -0.5599 -0.2791
   82MOL    H8921311   7.560   3.742   3.884 -0.1124  3.2642 -0.1105
   82MOL    H9021312   7.821   3.619   4.012  0.5916 -2.0927  0.5975
   82MOL    H9121313   7.690   3.528   3.927  1.4925 -2.0092  4.1323
   82MOL    H9221314   7.798   3.641   3.839  0.4355 -0.2378  0.4709
   82MOL    C9321315   7.413   3.884   4.076  0.3314  0.0405 -0.8887
   82MOL    C9421316   7.308   3.775   4.034 -0.2789  0.1285 -0.0560
   82MOL    O9521317   7.284   3.798   3.896  0.7846  0.0248 -0.3362
   82MOL    C9621318   7.218   3.691   3.825  0.2456  0.0391 -0.2955
   82MOL    C9721319   7.231   3.724   3.674 -0.3918  0.0059 -0.0026
   82MOL    H9821320   7.442   3.932   3.982  0.3875  0.9585 -0.4116
   82MOL    H9921321   7.374   3.962   4.142 -2.4076 -2.0614  0.0670
   82MOL   H10021322   7.352   3.676   4.047 -2.7506 -1.3487 -2.3507
   82MOL   H10121323   7.112   3.703   3.851 -0.5141  0.5552 -3.3750
   82MOL   H10221324   7.261   3.592   3.840  1.3458  0.4078 -0.9726
   82MOL   H10321325   7.217   3.634   3.616 -0.0210 -0.4217  0.5691
   82MOL   H10421326   7.161   3.797   3.632 -0.3542 -1.3861 -2.5743
   82MOL   H10521327   7.332   3.761   3.660 -0.4939  1.5195  2.7367
   82MOL   C10621328   7.177   3.778   4.118  0.0213 -0.3388  0.0909
   82MOL   C10721329   7.179   3.797   4.275  0.3061 -0.3433  0.3965
   82MOL   O10821330   7.262   3.690   4.327  0.4373  0.2585 -0.5439
   82MOL   C10921331   7.289   3.696   4.466  1.1425 -0.1837  0.0080
   82MOL   C11021332   7.416   3.619   4.496 -0.2132 -0.2424  0.0893
   82MOL   H11121333   7.114   3.691   4.099  1.7897 -1.7043  0.4146
   82MOL   H11221334   7.119   3.862   4.080  0.6070  0.3071  0.6144
   82MOL   H11321335   7.222   3.891   4.309 -0.5670 -0.5925  2.2772
   82MOL   H11421336   7.208   3.649   4.522  1.8166  1.0751  2.0987
   82MOL   H11521337   7.301   3.795   4.509  0.8305  0.4257 -1.2882
   82MOL   H11621338   7.504   3.647   4.438 -2.3527  3.0764 -1.6528
   82MOL   H11721339   7.429   3.613   4.604 -1.9291 -1.3860  0.2539
   82MOL   H11821340   7.387   3.516   4.475 -0.1873  0.1923 -2.1887
   82MOL   C11921341   7.039   3.789   4.341 -0.1503 -0.6389  0.8184
   82MOL   C12021342   6.951   3.905   4.296  0.7805 -0.2384  0.0487
   82MOL   O12121343   7.016   4.011   4.368  0.5244  0.2921 -0.1101
   82MOL   C12221344   6.986   4.145   4.323 -0.2959  0.2060 -0.2310
   82MOL   C12321345   7.087   4.229   4.406  0.5894 -0.4075 -0.4664
   82MOL   H12421346   7.037   3.768   4.448 -1.9524 -1.8377  0.5689
   82MOL   H12521347   6.991   3.697   4.308  0.0113 -0.2530 -0.5447
   82MOL   H12621348   6.965   3.927   4.190  0.8687  0.3759  0.1832
   82MOL   H12721349   6.883   4.173   4.342 -0.4455  0.4449 -1.3771
   82MOL   H12821350   7.009   4.162   4.218 -3.9197 -2.7433 -1.6114
   82MOL   H12921351   7.088   4.329   4.361 -1.2760 -1.0193 -1.9445
   82MOL   H13021352   7.057   4.239   4.510 -0.2777  5.0272 -1.0763
   82MOL   H13121353   7.188   4.188   4.410 -0.1202 -2.1270  0.4144
   82MOL   C13221354   6.796   3.901   4.310 -0.1943  0.5537 -1.0181
   82MOL   C13321355   6.725   3.911   4.448 -0.1617  0.0282  0.0056
   82MOL   O13421356   6.773   3.795   4.517  0.3434 -0.2339 -0.2371
   82MOL   C13521357   6.842   3.821   4.642 -0.0065 -0.0390 -0.1693
   82MOL   C13621358   6.748   3.853   4.761  0.1509 -0.0277 -0.4894
   82MOL   H13721359   6.758   3.815   4.254 -0.0815 -0.1725  0.0195
   82MOL   H13821360   6.749   3.982   4.254  0.1222  0.8789 -0.8148
   82MOL   H13921361   6.761   3.995   4.507 -1.2724 -1.7095  3.2771
   82MOL   H14021362   6.914   3.903   4.629  0.6615 -0.7929 -1.3632
   82MOL   H14121363   6.894   3.733   4.680 -0.7556 -0.0067  0.9229
   82MOL   H14221364   6.676   3.931   4.734 -0.3462 -1.0503 -2.2202
   82MOL   H14321365   6.688   3.774   4.806  0.9717 -0.3976 -0.0371
   82MOL   H14421366   6.805   3.876   4.851  0.9607 -0.2543 -0.9400
   82MOL   C14521367   6.574   3.922   4.443  0.3070 -0.3799 -0.5645
   82MOL   C14621368   6.514   4.047   4.369  0.1687  0.1996  0.3228
   82MOL   O14721369   6.554   4.163   4.451 -0.1715 -0.0505  0.3273
   82MOL   C14821370   6.582   4.282   4.381  0.0250 -0.2143 -0.2860
   82MOL   C14921371   6.667   4.361   4.475 -0.1883 -0.1199  0.1896
   82MOL   H15021372   6.540   3.927   4.546 -0.3589  0.8734 -0.8337
   82MOL   H15121373   6.528   3.832   4.403 -0.9379  1.2427 -2.8870
   82MOL   H15221374   6.555   4.055   4.268 -2.1337  1.7571 -0.5325
   82MOL   H15321375   6.498   4.345   4.351  0.0863 -0.5508 -1.1782
   82MOL   H15421376   6.632   4.255   4.288  0.6181 -0.9369  0.2359
   82MOL   H15521377   6.703   4.443   4.413 -0.4089 -0.0332  0.1738
   82MOL   H15621378   6.621   4.400   4.566  0.8288  2.0682 -0.1908
   82MOL   H15721379   6.750   4.300   4.510 -0.2668  0.5298  1.5208
   82MOL   C15821380   6.360   4.039   4.347  0.1977 -0.0102 -0.3958
   82MOL   C15921381   6.297   4.147   4.256 -0.1813  0.5579 -0.2288
   82MOL   O16021382   6.165   4.161   4.292 -0.0715 -1.1149  0.2831
   82MOL   C16121383   6.128   4.254   4.388  0.0314  0.1864  0.0955
   82MOL   C16221384   5.981   4.246   4.434 -0.8101  0.5816  0.4401
   82MOL   H16321385   6.313   4.050   4.445  0.0609 -0.8252 -0.3684
   82MOL   H16421386   6.324   3.940   4.319  0.7911 -1.1095  2.5743
   82MOL   H16521387   6.340   4.246   4.271 -0.1762  0.6900 -1.1080
   82MOL   H16621388   6.146   4.356   4.353  0.7516  0.8155  2.2280
   82MOL   H16721389   6.196   4.250   4.473  0.7098  2.2373 -0.3292
   82MOL   H16821390   5.961   4.151   4.483 -2.6028  0.9663  0.4649
   82MOL   H16921391   5.954   4.327   4.500 -0.5029  0.3797  0.8134
   82MOL   H17021392   5.923   4.245   4.342 -1.3739 -2.2380  0.7612
   82MOL   C17121393   6.310   4.107   4.109  0.0580  0.9550  0.1472
   82MOL   C17221394   6.328   4.221   4.012 -0.2233 -0.1539 -0.8383
   82MOL   O17321395   6.442   4.295   4.042 -0.2157 -0.2871 -0.3370
   82MOL   C17421396   6.509   4.353   3.924  0.0538  0.4114 -0.1562
   82MOL   C17521397   6.612   4.447   3.978  0.5156 -0.2583  0.1276
   82MOL   H17621398   6.217   4.064   4.071  0.4372  1.8291 -1.8608
   82MOL   H17721399   6.381   4.025   4.095 -1.0817 -0.6324  3.2138
   82MOL   H17821400   6.350   4.167   3.920 -0.6119 -0.9433 -0.4710
   82MOL   H17921401   6.440   4.397   3.851  1.5605 -0.2436 -2.0266
   82MOL   H18021402   6.550   4.274   3.861  0.9179  0.5651  0.2034
   82MOL   H18121403   6.664   4.476   3.888  1.0658 -2.6262 -0.3565
   82MOL   H18221404   6.573   4.529   4.038  4.0349  2.0229 -0.5696
   82MOL   H18321405   6.686   4.391   4.036  0.3617 -0.6771 -0.0752
   82MOL   C18421406   6.206   4.317   3.989  0.2717  0.0581 -0.4019
   82MOL   C18521407   6.105   4.262   3.884  1.3482 -0.6479 -0.0179
   82MOL   O18621408   6.156   4.292   3.752 -0.4683  0.4608  0.1782
   82MOL   C18721409   6.175   4.189   3.664 -0.5904  0.2368 -0.3249
   82MOL   C18821410   6.241   4.250   3.541 -0.4022 -0.9809 -0.1450
   82MOL   H18921411   6.247   4.416   3.969 -2.0663  0.8549 -1.3257
   82MOL   H19021412   6.159   4.334   4.086 -0.0852 -1.3924 -0.3173
   82MOL   H19121413   6.074   4.157   3.889 -0.3774 -0.0647  1.8351
   82MOL   H19221414   6.079   4.150   3.630  0.3092 -1.6989 -0.6827
   82MOL   H19321415   6.231   4.104   3.702  1.4733  0.5956 -2.4560
   82MOL   H19421416   6.278   4.169   3.479  0.5893 -2.0757  1.8388
   82MOL   H19521417   6.175   4.319   3.487  1.1482  0.0755 -0.7191
   82MOL   H19621418   6.332   4.302   3.572  0.5337 -1.6343 -1.7483
   82MOL   C19721419   5.972   4.343   3.895  0.2857  0.1218  0.4138
   82MOL   C19821420   5.857   4.320   3.796 -0.0350 -0.3884  0.5045
   82MOL   O19921421   5.780   4.439   3.801 -0.0668  0.1551 -0.6920
   82MOL   C20021422   5.774   4.512   3.682  0.5031 -0.4698 -0.8577
   82MOL   C20121423   5.646   4.595   3.683 -0.2833 -0.1386  0.2993
   82MOL   H20221424   5.994   4.449   3.904  0.4818  0.0315  1.0767
   82MOL   H20321425   5.947   4.315   3.998  0.6474 -0.0353  0.4586
   82MOL   H20421426   5.901   4.304   3.697 -1.0725 -0.5054  0.0566
   82MOL   H20521427   5.774   4.455   3.589 -1.0484  0.8387 -1.6956
   82MOL   H20621428   5.855   4.584   3.678  2.0913 -2.2092 -0.4194
   82MOL   H20721429   5.620   4.660   3.599  1.3303 -0.6827 -0.6498
   82MOL   H20821430   5.559   4.532   3.668  0.2729 -0.2897 -2.8018
   82MOL   H20921431   5.634   4.647   3.777 -2.6633 -0.9175  0.4473
   82MOL   C21021432   5.773   4.197   3.838 -0.0166  0.4120  0.0764
   82MOL   C21121433   5.697   4.123   3.725 -0.4656 -0.1938 -0.3930
   82MOL   O21221434   5.780   4.096   3.611 -0.0502 -0.1996  0.1934
   82MOL   C21321435   5.864   3.979   3.616 -0.0167 -0.4793 -0.1569
   82MOL   C21421436   5.921   3.970   3.475  0.9172  0.4768 -0.1062
   82MOL   H21521437   5.698   4.224   3.911  0.5990  5.7879 -1.0717
   82MOL   H21621438   5.830   4.128   3.900 -2.8403  1.4256  3.9325
   82MOL   H21721439   5.668   4.022   3.754  0.5116 -0.1914  0.6213
   82MOL   H21821440   5.806   3.887   3.627 -0.9394  0.1171  0.0274
   82MOL   H21921441   5.942   3.991   3.691  0.8876 -0.1344 -1.1337
   82MOL   H22021442   5.948   4.066   3.432 -0.5274  0.5688 -0.8346
   82MOL   H22121443   6.006   3.902   3.469  0.5316 -0.2002  1.9790
   82MOL   H22221444   5.837   3.938   3.414 -0.5780 -1.5476  2.9052
   82MOL   C22321445   5.569   4.205   3.692  0.1068  0.2566  0.4175
   82MOL   C22421446   5.444   4.164   3.781  0.6183 -0.0223 -0.0103
   82MOL   O22521447   5.442   4.216   3.918  0.6967  0.4602 -0.0178
   82MOL   C22621448   5.449   4.358   3.942 -0.4785 -0.5298 -0.4728
   82MOL   C22721449   5.433   4.393   4.092  0.2545 -0.4735 -0.3236
   82MOL   H22821450   5.542   4.187   3.588  0.7758  0.2264  0.2462
   82MOL   H22921451   5.578   4.313   3.691 -0.4529  0.2982 -0.4676
   82MOL   H23021452   5.356   4.209   3.734 -0.6081 -0.5736  1.6790
   82MOL   H23121453   5.388   4.421   3.877  1.7858  1.7344 -0.4935
   82MOL   H23221454   5.551   4.384   3.916 -0.2892  0.1463  0.9275
   82MOL   H23321455   5.447   4.500   4.106 -1.1550 -0.3719  0.4057
   82MOL   H23421456   5.335   4.357   4.124  0.7112 -2.7055 -1.3470
   82MOL   H23521457   5.507   4.341   4.153  1.3465  1.9352  0.5047
   82MOL   C23621458   5.418   4.016   3.797  0.4736  0.3355 -0.1196
   82MOL   C23721459   5.273   3.991   3.829 -0.0118 -0.4145 -0.1655
   82MOL   O23821460   5.271   3.883   3.923 -0.2129 -0.1145 -0.9028
   82MOL   C23921461   5.289   3.908   4.063 -0.4743 -0.0010  0.7797
   82MOL   C24021462   5.245   3.779   4.129  0.5530 -0.2813 -0.1010
   82MOL   H24121463   5.485   3.990   3.878 -0.2855  0.4002  0.5335
   82MOL   H24221464   5.448   3.968   3.704 -0.3447  1.1079 -0.7969
   82MOL   H24321465   5.219   4.071   3.880  1.3524  0.0706  0.5664
   82MOL   H24421466   5.238   3.996   4.102 -3.6664 -0.9005 -1.1973
   82MOL   H24521467   5.394   3.922   4.092  0.5438 -1.9672 -1.7412
   82MOL   H24621468   5.309   3.693   4.111 -0.0840 -0.8838  0.4715
   82MOL   H24721469   5.237   3.784   4.238 -2.7615 -1.8542 -0.2011
   82MOL   H24821470   5.155   3.733   4.088  1.6681 -2.3762 -0.2645
   82MOL   C24921471   5.187   3.945   3.714  0.6914  0.3721  0.0796
   82MOL   C25021472   5.041   3.947   3.747 -0.0781  0.0983  0.3382
   82MOL   O25121473   4.949   3.897   3.646  0.2363  0.6909 -0.9144
   82MOL   C25221474   4.813   3.896   3.683 -0.2882 -0.1393 -0.2662
   82MOL   C25321475   4.739   3.806   3.589 -0.4228 -0.4722 -0.3071
   82MOL   H25421476   5.206   3.842   3.684 -0.3202 -0.2885  1.6183
   82MOL   H25521477   5.205   4.000   3.622 -0.4420  0.2315 -0.2361
   82MOL   H25621478   5.037   3.901   3.846 -0.0673  1.7953  1.1583
   82MOL   H25721479   4.782   4.001   3.678 -0.5157 -0.2591 -1.5495
   82MOL   H25821480   4.807   3.858   3.785  2.6081  1.7565  0.6762
   82MOL   H25921481   4.721   3.859   3.496 -0.0242 -0.4663 -0.3857
   82MOL   H26021482   4.802   3.719   3.564 -1.3325 -1.6828  1.5282
   82MOL   H26121483   4.641   3.779   3.628 -0.2062 -3.6783 -1.7816
   82MOL   H26221484   5.023   4.052   3.769 -2.2201  0.0979 -1.3302
   83MOL     C121485   1.835   6.933   3.471  0.5716  0.1981  0.2093
   83MOL     C221486   1.794   6.800   3.546 -0.1030  0.2417 -0.4868
   83MOL     O321487   1.681   6.739   3.490  0.1253 -0.3086  0.0167
   83MOL     C421488   1.698   6.606   3.442  0.8505  0.1492  0.3597
   83MOL     C521489   1.587   6.562   3.350  0.4037  0.5488  0.0348
   83MOL     H621490   1.747   6.997   3.467  1.2228  1.0767 -0.4084
   83MOL     H721491   1.914   6.988   3.523  0.7625 -0.7733  0.9622
   83MOL     H821492   1.884   6.740   3.533  1.7790  3.0013 -0.6788
   83MOL     H921493   1.695   6.535   3.525 -1.8781  2.3034  2.2168
   83MOL    H1021494   1.793   6.584   3.394  1.6873 -1.5886  2.7093
   83MOL    H1121495   1.576   6.454   3.339  0.7016  0.7049 -1.9720
   83MOL    H1221496   1.490   6.586   3.394  0.5781 -0.1496  0.7976
   83MOL    H1321497   1.596   6.613   3.254  1.8893 -1.9301 -1.1736
   83MOL    H1421498   1.874   6.906   3.373 -1.3973  0.8837 -0.7973
   83MOL    C1521499   1.793   6.830   3.699  0.2685 -0.2419 -0.2002
   83MOL    C1621500   1.691   6.938   3.750 -0.2761 -0.9751  0.2464
   83MOL    O1721501   1.710   6.961   3.894 -0.2141 -0.1421  0.5981
   83MOL    C1821502   1.813   7.051   3.931 -0.5527 -0.0157  0.7115
   83MOL    C1921503   1.826   7.049   4.082 -0.1420  0.1894 -0.3911
   83MOL    H2021504   1.896   6.847   3.731 -0.1333 -0.2870  1.1460
   83MOL    H2121505   1.777   6.734   3.749  1.1425  0.2846  1.1314
   83MOL    H2221506   1.704   7.037   3.706 -2.1104 -0.1517  1.4664
   83MOL    H2321507   1.787   7.151   3.899 -1.9671  0.0403  1.9609
   83MOL    H2421508   1.907   7.022   3.884 -1.1680 -1.1873  0.1729
   83MOL    H2521509   1.899   7.125   4.109 -0.4420  0.5056 -0.4519
   83MOL    H2621510   1.846   6.948   4.117 -1.0567 -0.1577 -0.8303
   83MOL    H2721511   1.726   7.068   4.121  0.3571 -1.5118  1.8204
   83MOL    C2821512   1.546   6.897   3.745  0.5421 -0.7140  0.4617
   83MOL    C2921513   1.458   7.014   3.777  0.7473  0.5865  0.1943
   83MOL    O3021514   1.361   6.985   3.872  0.2759  0.6364 -0.8162
   83MOL    C3121515   1.397   6.976   4.011  0.1442 -0.4179  0.2010
   83MOL    C3221516   1.273   6.928   4.088  0.2508  0.5179 -0.0311
   83MOL    H3321517   1.523   6.812   3.809  1.6714 -1.4070 -0.0360
   83MOL    H3421518   1.523   6.855   3.647 -1.8102 -1.4866  1.3034
   83MOL    H3521519   1.519   7.097   3.811  2.5954 -0.7843  0.2609
   83MOL    H3621520   1.454   7.060   4.051 -1.7356  1.6649 -1.4168
   83MOL    H3721521   1.461   6.887   4.011 -0.3949 -0.8884 -3.8874
   83MOL    H3821522   1.214   6.998   4.148 -1.9026 -0.6014 -0.7752
   83MOL    H3921523   1.205   6.888   4.013  1.8697  0.5630 -1.5480
   83MOL    H4021524   1.298   6.842   4.150 -0.1057  2.8004  3.4178
   83MOL    C4121525   1.393   7.060   3.644 -0.2552 -0.3386  0.2196
   83MOL    C4221526   1.333   7.198   3.651  0.2161  0.0411 -0.4031
   83MOL    O4321527   1.255   7.218   3.534  0.4303  0.6923 -0.0860
   83MOL    C4421528   1.119   7.172   3.559 -0.8587 -0.3257  0.3966
   83MOL    C4521529   1.030   7.182   3.434  0.2376  0.4760  0.1644
   83MOL    H4621530   1.327   6.984   3.602  0.5787 -0.4035 -1.0185
   83MOL    H4721531   1.472   7.087   3.573  0.1720 -0.0768  0.7984
   83MOL    H4821532   1.270   7.197   3.740 -2.7065 -1.4004 -2.4305
   83MOL    H4921533   1.068   7.234   3.632  0.3763 -0.1246  1.0886
   83MOL    H5021534   1.108   7.079   3.615 -2.1615 -0.0411  0.6408
   83MOL    H5121535   1.024   7.283   3.392 -1.3288 -0.7459 -2.7090
   83MOL    H5221536   1.065   7.122   3.351 -0.3012  2.0822 -1.2532
   83MOL    H5321537   0.928   7.164   3.468  0.7577 -1.1191  0.9187
   83MOL    C5421538   1.433   7.322   3.667  0.1431 -0.1127 -0.1413
   83MOL    C5521539   1.377   7.466   3.633  0.2591  0.4247 -0.4960
   83MOL    O5621540   1.475   7.569   3.648  0.0988 -0.7979 -0.1009
   83MOL    C5721541   1.565   7.591   3.537  0.6451 -0.1872 -1.1101
   83MOL    C5821542   1.646   7.710   3.586 -0.2093  0.6411  0.6501
   83MOL    H5921543   1.516   7.316   3.597 -0.9107  1.6387 -1.5707
   83MOL    H6021544   1.477   7.319   3.767 -0.6429  0.6655  0.2329
   83MOL    H6121545   1.328   7.459   3.535  1.1877  1.8889 -1.0852
   83MOL    H6221546   1.513   7.607   3.443  1.1978  0.9427 -1.2292
   83MOL    H6321547   1.642   7.514   3.530  1.6862  0.6079  0.8977
   83MOL    H6421548   1.587   7.786   3.636  0.0149  1.5681 -0.4625
   83MOL    H6521549   1.723   7.672   3.654 -0.0336 -1.3313 -0.6022
   83MOL    H6621550   1.686   7.773   3.506  0.4071 -0.2257  0.2495
   83MOL    C6721551   1.259   7.494   3.723  0.0393  0.1591  0.0842
   83MOL    C6821552   1.194   7.634   3.701 -0.1013  1.2986 -0.2516
   83MOL    O6921553   1.077   7.647   3.784 -0.0080  0.6603 -0.5881
   83MOL    C7021554   1.123   7.699   3.908  0.0105  0.3292 -0.1488
   83MOL    C7121555   1.006   7.718   4.001 -0.2887  0.0875 -0.3102
   83MOL    H7221556   1.305   7.480   3.821 -0.3129 -0.0296  0.2220
   83MOL    H7321557   1.182   7.417   3.717  0.5524 -0.2415 -1.7078
   83MOL    H7421558   1.272   7.709   3.712  0.8038  0.0123  2.4469
   83MOL    H7521559   1.170   7.797   3.902  1.1459 -0.0747  1.4384
   83MOL    H7621560   1.202   7.637   3.952 -1.0612 -1.0852 -0.1905
   83MOL    H7721561   1.039   7.764   4.094 -0.1421 -0.9905  0.1819
   83MOL    H7821562   0.939   7.796   3.966 -1.0932 -1.0181 -1.2658
   83MOL    H7921563   0.940   7.633   4.021 -0.3365 -0.3936 -2.3600
   83MOL    C8021564   1.133   7.643   3.562 -0.2280 -0.1677  0.5634
   83MOL    C8121565   1.079   7.781   3.521 -0.9241  1.0897  0.0845
   83MOL    O8221566   0.999   7.766   3.406  0.6013 -0.1179  0.5635
   83MOL    C8321567   0.879   7.695   3.407 -0.2265  0.4870 -0.1315
   83MOL    C8421568   0.801   7.762   3.296  0.5777  0.1935 -0.5289
   83MOL    H8521569   1.056   7.566   3.568 -1.2417  0.8402  0.6129
   83MOL    H8621570   1.203   7.607   3.487  1.5756  1.9082  1.1684
   83MOL    H8721571   1.017   7.828   3.598  0.6537  1.5982  1.0820
   83MOL    H8821572   0.830   7.700   3.504  0.2105 -0.9544  0.1743
   83MOL    H8921573   0.906   7.592   3.389 -3.3557 -0.6563  1.3295
   83MOL    H9021574   0.868   7.756   3.210  1.2455 -0.6348  0.0467
   83MOL    H9121575   0.713   7.708   3.261  1.8155 -2.7016  0.7027
   83MOL    H9221576   0.764   0.019   3.316 -0.0540 -0.0914 -0.2386
   83MOL    C9321577   1.202   0.036   3.492  0.3486 -0.5528  0.4733
   83MOL    C9421578   1.165   0.185   3.512  0.1818  0.1930  0.2164
   83MOL    O9521579   1.138   0.200   3.658 -0.1664  0.0735 -0.0872
   83MOL    C9621580   1.245   0.195   3.753 -0.1881  0.1624  0.4496
   83MOL    C9721581   1.183   0.226   3.891 -0.4477  0.4086 -0.6738
   83MOL    H9821582   1.217   0.016   3.386  0.5374 -0.9724  0.5774
   83MOL    H9921583   1.295   0.011   3.542 -1.0601 -1.0759  2.9066
   83MOL   H10021584   1.241   0.256   3.480  1.2934 -1.8923 -1.9340
   83MOL   H10121585   1.323   0.269   3.734  0.9522 -0.8947  0.9385
   83MOL   H10221586   1.292   0.097   3.764 -0.9505 -0.1972  0.5870
   83MOL   H10321587   1.174   0.334   3.904  1.1603  0.3860  0.9177
   83MOL   H10421588   1.087   0.174   3.891 -0.7369  0.9388 -0.5464
   83MOL   H10521589   1.249   0.182   3.966 -0.9883  2.0457  0.8175
   83MOL   C10621590   1.028   0.217   3.442 -0.4657  0.5762  0.4056
   83MOL   C10721591   1.007   0.370   3.442 -0.1392 -0.3196  0.0476
   83MOL   O10821592   0.868   0.392   3.431  0.0994  0.1461  0.0325
   83MOL   C10921593   0.803   0.443   3.546  0.2745 -0.6940 -0.4600
   83MOL   C11021594   0.688   0.360   3.589  0.2548 -0.6865  0.0457
   83MOL   H11121595   0.947   0.170   3.497 -0.7261 -1.5216 -1.6782
   83MOL   H11221596   1.030   0.175   3.341 -1.1038 -1.0628  1.0620
   83MOL   H11321597   1.043   0.402   3.540 -2.0829  2.2616 -0.0007
   83MOL   H11421598   0.763   0.543   3.532 -0.4262 -0.8119  0.6349
   83MOL   H11521599   0.865   0.448   3.636 -1.1292 -0.2535  0.5148
   83MOL   H11621600   0.716   0.268   3.641  4.0105 -0.1799 -0.9105
   83MOL   H11721601   0.637   0.409   3.672  1.5024  1.0673 -0.2001
   83MOL   H11821602   0.631   0.322   3.504 -0.3006  0.2448  0.0035
   83MOL   C11921603   1.073   0.460   3.328 -0.5086 -0.7954  0.0358
   83MOL   C12021604   1.065   0.406   3.186  0.1256 -0.0739 -0.2234
   83MOL   O12121605   1.149   0.292   3.177  0.2632  0.4755 -0.1142
   83MOL   C12221606   1.159   0.234   3.047 -0.5768  0.3039 -0.1650
   83MOL   C12321607   1.180   0.079   3.060 -0.0307  1.0477 -0.2987
   83MOL   H12421608   1.179   0.463   3.353 -0.4063 -1.6293 -0.2669
   83MOL   H12521609   1.046   0.564   3.343 -0.0884 -0.6773 -0.0196
   83MOL   H12621610   0.965   0.366   3.172 -1.1667  1.3064  4.1687
   83MOL   H12721611   1.241   0.281   2.992  1.5728 -3.6783 -0.5628
   83MOL   H12821612   1.072   0.251   2.984 -0.9270  1.0403  0.5055
   83MOL   H12921613   1.256   0.051   3.133 -1.4568 -0.2229  0.7199
   83MOL   H13021614   1.084   0.048   3.102 -0.3034  1.5150 -0.5781
   83MOL   H13121615   1.198   0.021   2.969  3.1007  0.6075  0.5204
   83MOL   C13221616   1.081   0.514   3.076 -0.0154  0.4133 -0.3945
   83MOL   C13321617   0.976   0.630   3.083  0.2579 -0.1416  0.0164
   83MOL   O13421618   0.852   0.573   3.051  0.5810 -0.2125 -0.0451
   83MOL   C13521619   0.758   0.561   3.154  0.6896 -0.5002 -0.2389
   83MOL   C13621620   0.625   0.518   3.094 -0.2342  0.1935  0.5305
   83MOL   H13721621   1.074   0.474   2.975 -1.5746 -0.6698  0.1190
   83MOL   H13821622   1.182   0.550   3.094 -0.1356 -0.5174  2.3969
   83MOL   H13921623   0.979   0.679   3.180  3.4382  1.3974 -0.8007
   83MOL   H14021624   0.736   0.657   3.200 -0.9062 -1.4920  1.1217
   83MOL   H14121625   0.806   0.494   3.225 -0.0501  0.1397  0.8642
   83MOL   H14221626   0.597   0.595   3.022  1.2937 -0.3176 -0.6468
   83MOL   H14321627   0.625   0.421   3.044 -0.6291  0.1984  0.5174
   83MOL   H14421628   0.544   0.522   3.167 -0.8382 -2.2213  0.0208
   83MOL   C14521629   1.009   0.747   2.993 -0.0206 -0.1961  0.4629
   83MOL   C14621630   0.904   0.854   2.996  0.6688  0.8989  0.7245
   83MOL   O14721631   0.941   0.944   2.888 -0.2366 -0.4857 -0.2176
   83MOL   C14821632   0.887   0.908   2.759 -0.5184  0.1630  0.4768
   83MOL   C14921633   1.012   0.914   2.668  1.0651 -0.3099 -0.3601
   83MOL   H15021634   1.019   0.697   2.896  2.0673 -2.2183  1.6639
   83MOL   H15121635   1.105   0.789   3.022 -0.1929  0.7235 -0.2980
   83MOL   H15221636   0.804   0.814   2.977  1.4259 -0.4248 -0.6863
   83MOL   H15321637   0.818   0.982   2.718  1.1886  1.6757  0.2628
   83MOL   H15421638   0.835   0.813   2.758  3.3281 -2.0120 -0.3679
   83MOL   H15521639   1.085   0.834   2.670  0.8773 -0.5439 -1.9781
   83MOL   H15621640   0.986   0.919   2.562  0.4508 -0.8102 -0.2348
   83MOL   H15721641   1.061   1.008   2.693  0.2529  0.0865 -0.2272
   83MOL   C15821642   0.912   0.938   3.126 -0.1155  0.4649  0.9896
   83MOL   C15921643   0.829   1.063   3.121  0.1477 -0.2495  0.7938
   83MOL   O16021644   0.860   1.129   3.241  0.0649  0.3691 -0.2584
   83MOL   C16121645   0.820   1.257   3.245 -0.0476 -0.1239 -0.2504
   83MOL   C16221646   0.737   1.280   3.371  0.7246  0.1574 -0.1887
   83MOL   H16321647   1.014   0.974   3.138  0.4589  0.3185 -2.8631
   83MOL   H16421648   0.881   0.886   3.217  3.4835 -0.9772  1.4825
   83MOL   H16521649   0.865   1.134   3.047  0.5699  0.5161  1.7268
   83MOL   H16621650   0.759   1.295   3.163 -1.3608  2.0112  1.6408
   83MOL   H16721651   0.911   1.316   3.256 -0.3711  0.6801 -1.6635
   83MOL   H16821652   0.794   1.266   3.463 -0.6216  1.1733  0.8262
   83MOL   H16921653   0.690   1.378   3.365 -1.1025 -0.7859 -2.0001
   83MOL   H17021654   0.649   1.215   3.369  0.9123 -0.0714 -2.3363
   83MOL   C17121655   0.676   1.042   3.111 -0.2709  0.0145  0.2988
   83MOL   C17221656   0.619   1.050   2.968  0.2037 -0.1798  0.2116
   83MOL   O17321657   0.527   1.161   2.977 -0.1141  0.1523 -0.0169
   83MOL   C17421658   0.572   1.283   2.930 -0.1539  0.3810 -0.1370
   83MOL   C17521659   0.489   1.393   2.989  0.5043  0.1893  0.0218
   83MOL   H17621660   0.619   1.110   3.174 -0.5576  1.3708 -1.4085
   83MOL   H17721661   0.653   0.939   3.141  0.5508  0.0147  0.9279
   83MOL   H17821662   0.694   1.068   2.891 -1.9719 -1.8355 -2.3916
   83MOL   H17921663   0.549   1.286   2.824  2.1341 -2.4571 -0.7879
   83MOL   H18021664   0.680   1.284   2.946 -0.5521 -0.5419  3.0243
   83MOL   H18121665   0.382   1.380   2.975  0.6652  0.7638 -2.0039
   83MOL   H18221666   0.497   1.400   3.097  0.9900 -0.0426  0.0034
   83MOL   H18321667   0.514   1.483   2.932 -2.2981  0.3504 -1.0230
   83MOL   C18421668   0.537   0.930   2.934  0.4079  0.1970 -0.9403
   83MOL   C18521669   0.462   0.924   2.803 -0.0859  0.5434 -0.4152
   83MOL   O18621670   0.407   0.798   2.787 -0.4576 -0.1079  0.2837
   83MOL   C18721671   0.293   0.760   2.861  0.3730 -0.6605 -0.2975
   83MOL   C18821672   0.259   0.610   2.840  0.3103 -0.2058 -0.3348
   83MOL   H18921673   0.474   0.929   3.023  1.9131  1.1905  0.1705
   83MOL   H19021674   0.604   0.844   2.939  1.3581  0.9311 -0.7318
   83MOL   H19121675   0.379   0.995   2.809 -1.3579 -0.9431 -0.0205
   83MOL   H19221676   0.210   0.825   2.835 -0.3097 -1.0022  1.0015
   83MOL   H19321677   0.303   0.769   2.969  0.4925  2.5737 -0.5276
   83MOL   H19421678   0.164   0.582   2.885  0.7523 -2.7118 -0.8941
   83MOL   H19521679   0.263   0.585   2.734 -0.5574 -0.0258 -0.4117
   83MOL   H19621680   0.335   0.549   2.888  0.3129 -0.1718 -0.2958
   83MOL   C19721681   0.549   0.953   2.678 -0.1140  0.3430  0.2706
   83MOL   C19821682   0.479   0.956   2.544  0.5759  0.0545  0.3085
   83MOL   O19921683   0.568   0.987   2.438 -0.6053  0.1837  0.0040
   83MOL   C20021684   0.624   0.876   2.371 -0.3462 -0.1929 -0.0212
   83MOL   C20121685   0.753   0.921   2.300 -0.1418  1.0758  0.4765
   83MOL   H20221686   0.636   0.888   2.668 -0.2416  0.4279 -1.5285
   83MOL   H20321687   0.576   1.058   2.692  0.8859  0.0123  0.9242
   83MOL   H20421688   0.446   0.854   2.527  0.6028 -0.3315  2.4231
   83MOL   H20521689   0.554   0.830   2.301 -0.4719  0.5463 -0.3879
   83MOL   H20621690   0.643   0.795   2.440  0.5880  0.3740  0.3984
   83MOL   H20721691   0.723   0.978   2.213 -2.6503 -1.5452 -0.4476
   83MOL   H20821692   0.812   0.982   2.369 -1.0998  0.0776  2.2163
   83MOL   H20921693   0.800   0.827   2.270 -1.5715  0.8146 -0.9797
   83MOL   C21021694   0.347   1.038   2.540  0.3506 -0.4268  0.4153
   83MOL   C21121695   0.287   1.063   2.403  0.2393 -0.1082  0.6804
   83MOL   O21221696   0.171   1.144   2.403  0.2248 -0.1347  0.7064
   83MOL   C21321697   0.190   1.276   2.435 -0.0404 -0.5968 -0.4006
   83MOL   C21421698   0.055   1.341   2.459  0.6175 -0.7135 -0.3279
   83MOL   H21521699   0.373   1.139   2.573  0.1655  0.1362 -1.1627
   83MOL   H21621700   0.268   0.987   2.595 -0.0286  0.3625  0.6062
   83MOL   H21721701   0.365   1.105   2.340  0.0009  0.4505  0.7535
   83MOL   H21821702   0.246   1.329   2.358  2.5380 -1.2286  1.0042
   83MOL   H21921703   0.250   1.292   2.524 -4.7161 -0.4539  2.9105
   83MOL   H22021704   0.018   1.301   2.554  0.7038 -0.6706 -0.2760
   83MOL   H22121705   0.072   1.447   2.474 -0.4743 -0.8196  1.9594
   83MOL   H22221706   7.833   1.316   2.375 -0.9837  0.8650  0.4095
   83MOL   C22321707   0.245   0.931   2.333 -0.2345  0.6576  0.2911
   83MOL   C22421708   0.191   0.939   2.191 -0.0142 -0.6714  0.3155
   83MOL   O22521709   0.096   0.836   2.177 -0.6782  0.0930  0.4447
   83MOL   C22621710   7.807   0.880   2.210 -0.4497 -0.3620  0.0697
   83MOL   C22721711   7.716   0.749   2.216  0.1328  0.1599  0.1372
   83MOL   H22821712   0.169   0.884   2.396 -0.8270 -2.4939 -2.5837
   83MOL   H22921713   0.332   0.867   2.322 -0.5972  0.1776  0.1832
   83MOL   H23021714   0.138   1.032   2.171  0.4385 -1.0331 -2.7576
   83MOL   H23121715   7.775   0.955   2.138  0.3159  0.2740  0.3830
   83MOL   H23221716   7.789   0.934   2.303 -3.3731 -1.1039  0.0030
   83MOL   H23321717   7.759   0.673   2.280  0.0336  0.3409  0.4213
   83MOL   H23421718   7.612   0.764   2.245 -0.0252 -0.6128 -0.0222
   83MOL   H23521719   7.709   0.718   2.112  0.7933 -0.8481  0.3986
   83MOL   C23621720   0.303   0.912   2.091  0.5260 -0.9659 -0.4804
   83MOL   C23721721   0.255   0.918   1.947  0.1237  0.2064  0.6972
   83MOL   O23821722   0.362   0.885   1.863 -0.0679 -0.5315  0.0053
   83MOL   C23921723   0.370   0.750   1.827 -0.1986  0.7065  0.1089
   83MOL   C24021724   0.473   0.738   1.717 -0.3200 -0.8330  0.2622
   83MOL   H24121725   0.358   0.818   2.102  0.0604 -1.2937 -0.9335
   83MOL   H24221726   0.377   0.990   2.108 -0.5116  0.3824 -2.0080
   83MOL   H24321727   0.168   0.856   1.927 -0.6816  0.7923  2.3195
   83MOL   H24421728   0.276   0.721   1.781  0.7388  0.0813 -1.4582
   83MOL   H24521729   0.377   0.681   1.912 -0.3782  0.3490 -0.1668
   83MOL   H24621730   0.474   0.637   1.675  1.6584 -1.2296  1.1637
   83MOL   H24721731   0.438   0.801   1.635 -1.4407 -1.3604  0.3262
   83MOL   H24821732   0.575   0.761   1.747 -0.0636 -1.4049 -0.1513
   83MOL   C24921733   0.226   1.059   1.898 -0.5259  0.0230 -0.5072
   83MOL   C25021734   0.188   1.061   1.747  0.2374 -0.2250  0.0859
   83MOL   O25121735   0.147   1.192   1.707  0.3204 -0.0947  0.0316
   83MOL   C25221736   0.100   1.200   1.579  0.3854  0.2223  0.1832
   83MOL   C25321737   0.053   1.342   1.558  0.9208  0.2572  0.0448
   83MOL   H25421738   0.309   1.126   1.917  0.0016 -0.3140 -1.5443
   83MOL   H25521739   0.140   1.105   1.946 -0.9124  0.4233 -1.5670
   83MOL   H25621740   0.268   1.014   1.690  1.6018  0.3450  1.4904
   83MOL   H25721741   0.016   1.135   1.554 -0.4727  2.1220 -2.0259
   83MOL   H25821742   0.179   1.174   1.508  0.3428  0.2140  0.1386
   83MOL   H25921743   7.839   1.336   1.467  0.9629  0.4228  0.0077
   83MOL   H26021744   7.830   1.373   1.639  1.2405 -0.0682  0.4382
   83MOL   H26121745   0.134   1.414   1.545  1.1425  0.4153  2.0129
   83MOL   H26221746   0.101   0.994   1.741  1.1723 -1.3547 -1.2412
   84MOL     C121747   2.607   4.975   6.185 -0.1291  0.6305  0.2365
   84MOL     C221748   2.457   4.944   6.223 -0.1994 -0.2584  0.4482
   84MOL     O321749   2.459   4.815   6.283 -1.0456  0.5798  0.4378
   84MOL     C421750   2.495   4.821   6.421 -0.4971  0.4485 -0.7584
   84MOL     C521751   2.572   4.684   6.450  0.0902 -0.2692  0.0555
   84MOL     H621752   2.675   4.967   6.271  1.9589 -1.9551 -1.5664
   84MOL     H721753   2.642   4.920   6.098 -0.3456  1.1524 -0.1812
   84MOL     H821754   2.424   5.015   6.298  1.6042 -1.5609  2.5293
   84MOL     H921755   2.415   4.834   6.495  0.3568 -1.6823  0.5968
   84MOL    H1021756   2.572   4.897   6.432 -0.2291  0.1088 -0.2725
   84MOL    H1121757   2.609   4.672   6.552  0.6166 -0.6836 -0.1829
   84MOL    H1221758   2.514   4.596   6.423  0.3653 -0.6098  0.5859
   84MOL    H1321759   2.664   4.680   6.392  0.4594 -1.5941  0.7096
   84MOL    H1421760   2.615   5.074   6.142  1.3456 -0.9074 -3.2448
   84MOL    C1521761   2.377   4.933   6.094 -0.4690 -0.2217 -0.0070
   84MOL    C1621762   2.345   5.064   6.021 -0.2251  0.3876  0.4375
   84MOL    O1721763   2.298   5.166   6.115 -0.2951  0.3359 -0.1840
   84MOL    C1821764   2.175   5.153   6.175  0.7481  0.2102  0.4658
   84MOL    C1921765   2.154   5.267   6.268  0.1206 -0.8031  0.4220
   84MOL    H2021766   2.282   4.893   6.128 -0.1460 -1.8072 -0.9456
   84MOL    H2121767   2.426   4.859   6.033 -2.2669 -3.2788  2.1252
   84MOL    H2221768   2.433   5.110   5.977  1.4531 -0.4729  2.7926
   84MOL    H2321769   2.177   5.066   6.241 -0.5078 -0.8404 -0.8567
   84MOL    H2421770   2.094   5.131   6.106  0.0114  0.7007  1.1745
   84MOL    H2521771   2.071   5.243   6.334 -0.7448 -0.7605 -0.6360
   84MOL    H2621772   2.114   5.354   6.215 -1.0671 -1.8224 -0.3801
   84MOL    H2721773   2.239   5.295   6.329 -1.3393  0.5740  1.8716
   84MOL    C2821774   2.237   5.039   5.907 -0.4970  0.5170 -0.1871
   84MOL    C2921775   2.269   4.943   5.793  1.1502  0.3367  0.2901
   84MOL    O3021776   2.381   5.006   5.734  0.1910  0.3031  0.2426
   84MOL    C3121777   2.461   4.907   5.666 -0.1367  0.7288  0.2014
   84MOL    C3221778   2.600   4.972   5.653  0.7461  0.2057  0.5872
   84MOL    H3321779   2.214   5.134   5.858  0.7312  1.9760  1.9566
   84MOL    H3421780   2.142   4.998   5.941  1.2210 -3.5963 -0.0114
   84MOL    H3521781   2.307   4.856   5.847 -0.6975  1.1006  2.9511
   84MOL    H3621782   2.403   4.899   5.574 -0.0329  0.2535  0.1767
   84MOL    H3721783   2.471   4.807   5.708  0.0334  0.7487  0.2103
   84MOL    H3821784   2.667   4.923   5.582  1.9599  1.2048  1.0219
   84MOL    H3921785   2.591   5.074   5.615 -0.2870 -0.6019 -1.4121
   84MOL    H4021786   2.648   4.973   5.751  3.0791 -0.5636 -0.5082
   84MOL    C4121787   2.150   4.912   5.693  0.8271 -0.3269 -0.1234
   84MOL    C4221788   2.041   4.828   5.754  0.1677 -0.1506 -0.2024
   84MOL    O4321789   2.101   4.701   5.770 -0.2002  0.5430  0.1936
   84MOL    C4421790   2.045   4.601   5.853  0.2789  0.0611  0.1987
   84MOL    C4521791   2.166   4.518   5.900  0.9112 -0.1985 -0.0922
   84MOL    H4621792   2.191   4.866   5.603 -0.1898 -2.1222  0.3133
   84MOL    H4721793   2.107   5.007   5.660 -1.3855 -0.7299  1.4688
   84MOL    H4821794   2.010   4.876   5.847  2.6424  2.0075 -0.4263
   84MOL    H4921795   1.976   4.537   5.796  1.0088 -1.3554  0.8798
   84MOL    H5021796   1.999   4.658   5.933  1.1307 -1.1717  1.5940
   84MOL    H5121797   2.235   4.592   5.942 -0.5092  0.4875  1.0881
   84MOL    H5221798   2.141   4.443   5.974  1.1422 -0.4485 -0.2684
   84MOL    H5321799   2.220   4.485   5.811 -0.6953  0.5094 -1.3550
   84MOL    C5421800   1.920   4.825   5.669  0.3044  0.2570  0.1948
   84MOL    C5521801   1.828   4.947   5.681 -0.2799  0.3241 -0.1365
   84MOL    O5621802   1.751   4.927   5.801  0.1833  0.3004  0.4877
   84MOL    C5721803   1.677   5.041   5.849  0.0857 -0.5544 -0.3845
   84MOL    C5821804   1.713   5.057   6.000  0.0944  0.4340 -0.1450
   84MOL    H5921805   1.871   4.729   5.685 -0.4918  0.2059 -2.3083
   84MOL    H6021806   1.958   4.820   5.567 -4.0871  2.3130 -1.6855
   84MOL    H6121807   1.880   5.041   5.698 -0.1537  0.2305  0.0001
   84MOL    H6221808   1.571   5.020   5.837 -1.0459  3.3899  1.9679
   84MOL    H6321809   1.697   5.132   5.792 -1.3092  1.2090  1.8782
   84MOL    H6421810   1.820   5.071   6.019  0.2161  0.1596 -0.5998
   84MOL    H6521811   1.670   5.145   6.047  2.9213  0.8468  1.7833
   84MOL    H6621812   1.691   4.966   6.055  1.4400 -0.7929 -1.5805
   84MOL    C6721813   1.744   4.953   5.552 -0.4830  0.0349 -0.1114
   84MOL    C6821814   1.793   5.054   5.442 -0.8205 -0.4652  1.0276
   84MOL    O6921815   1.930   5.026   5.432  0.3617 -0.3831 -0.2670
   84MOL    C7021816   1.960   4.974   5.302 -0.4261 -0.6672 -0.3165
   84MOL    C7121817   2.105   4.932   5.304  0.5325 -0.5282  0.3998
   84MOL    H7221818   1.642   4.982   5.579 -0.4212 -2.3020  2.9253
   84MOL    H7321819   1.735   4.856   5.502  1.8152  0.6067 -1.6934
   84MOL    H7421820   1.739   5.048   5.347  2.0960  1.1127 -0.8234
   84MOL    H7521821   1.944   5.045   5.221  1.8917  3.8627  2.9712
   84MOL    H7621822   1.899   4.886   5.284  1.7616 -1.9593 -1.7098
   84MOL    H7721823   2.160   5.017   5.346 -1.5463 -0.1903  2.5736
   84MOL    H7821824   2.129   4.839   5.355 -1.5457 -1.1636  0.2560
   84MOL    H7921825   2.141   4.921   5.202 -1.1950  0.4449 -0.3262
   84MOL    C8021826   1.775   5.210   5.471 -0.0534  0.2998  0.2524
   84MOL    C8121827   1.633   5.265   5.504 -0.1618 -0.5796 -0.3971
   84MOL    O8221828   1.563   5.232   5.391  0.2020  0.3879 -0.1076
   84MOL    C8321829   1.420   5.226   5.393  0.2873  0.4865 -0.7668
   84MOL    C8421830   1.384   5.217   5.241  0.5981  0.0214  0.1555
   84MOL    H8521831   1.804   5.267   5.383  1.1631 -1.4967 -0.5580
   84MOL    H8621832   1.838   5.228   5.558  0.4393  1.2481 -0.2972
   84MOL    H8721833   1.596   5.222   5.597  0.0585 -3.0136 -1.4123
   84MOL    H8821834   1.379   5.310   5.449 -1.3063  0.6960 -2.1984
   84MOL    H8921835   1.388   5.135   5.443 -0.1574  0.4840 -1.0481
   84MOL    H9021836   1.430   5.128   5.196 -0.3999  1.0307 -2.9964
   84MOL    H9121837   1.276   5.206   5.240  0.6788 -0.8048 -1.4655
   84MOL    H9221838   1.421   5.299   5.180 -1.7403  0.7421 -0.3329
   84MOL    C9321839   1.631   5.420   5.515  0.2381 -0.2340  0.3819
   84MOL    C9421840   1.622   5.471   5.666 -0.1034 -0.6406 -0.1119
   84MOL    O9521841   1.521   5.410   5.740  0.2982  0.1725  0.6495
   84MOL    C9621842   1.542   5.406   5.880 -0.1472  0.6742  0.4280
   84MOL    C9721843   1.433   5.325   5.950  0.3288 -0.7667  0.1490
   84MOL    H9821844   1.550   5.461   5.455 -0.0946 -0.9698  0.3272
   84MOL    H9921845   1.727   5.459   5.480 -0.9759  1.0640 -1.6047
   84MOL   H10021846   1.712   5.436   5.716 -0.6672  0.3418  1.6631
   84MOL   H10121847   1.522   5.509   5.910 -0.8769  0.4879  0.5848
   84MOL   H10221848   1.643   5.373   5.906 -1.3606 -1.6017  2.4158
   84MOL   H10321849   1.345   5.388   5.950 -0.2551 -1.5716  0.5796
   84MOL   H10421850   1.404   5.237   5.892  1.2729 -0.2624 -1.1096
   84MOL   H10521851   1.460   5.310   6.055 -0.0212 -1.2819  0.1644
   84MOL   C10621852   1.619   5.635   5.675  0.3500 -0.1568 -0.2204
   84MOL   C10721853   1.762   5.697   5.696  0.7067 -0.6671  0.5255
   84MOL   O10821854   1.804   5.670   5.825 -0.1513  0.0615  0.1061
   84MOL   C10921855   1.943   5.657   5.850 -0.2323  0.2137 -0.1365
   84MOL   C11021856   1.948   5.603   5.995 -0.9406 -0.4487  0.5433
   84MOL   H11121857   1.560   5.678   5.756  0.8701  2.4253 -1.1606
   84MOL   H11221858   1.587   5.659   5.574  1.9851  1.6663 -0.3295
   84MOL   H11321859   1.833   5.653   5.627  0.7530  1.2038 -0.6458
   84MOL   H11421860   1.998   5.749   5.828  2.9537 -2.1260 -2.3405
   84MOL   H11521861   1.996   5.589   5.784  1.3620  1.3297 -0.0541
   84MOL   H11621862   1.899   5.506   5.999 -1.5107 -0.1450  1.1078
   84MOL   H11721863   2.049   5.588   6.034 -0.1793 -1.6315 -1.8058
   84MOL   H11821864   1.890   5.649   6.075 -2.2015 -0.6330 -0.2485
   84MOL   C11921865   1.754   5.848   5.672 -0.1179 -0.3667 -0.2044
   84MOL   C12021866   1.874   5.897   5.589  0.5684  0.3748 -0.0593
   84MOL   O12121867   1.879   6.032   5.604  0.6108 -0.0171 -0.3891
   84MOL   C12221868   1.967   6.074   5.706 -0.1809  0.7122 -0.3362
   84MOL   C12321869   1.941   6.225   5.728  0.2996 -0.4324  0.1266
   84MOL   H12421870   1.755   5.896   5.770  1.5894 -2.0262  0.6408
   84MOL   H12521871   1.662   5.866   5.617 -1.3871 -1.8959  1.3427
   84MOL   H12621872   1.967   5.846   5.611  1.3969  1.3760 -1.1875
   84MOL   H12721873   2.070   6.049   5.679 -1.0783 -1.6512 -1.7756
   84MOL   H12821874   1.935   6.035   5.802 -0.5519  2.9457  0.4731
   84MOL   H12921875   1.832   6.227   5.739  0.2991  0.1866  0.0020
   84MOL   H13021876   1.982   6.261   5.823  0.0115  1.1449 -0.3408
   84MOL   H13121877   1.959   6.294   5.646  0.9248 -1.1587 -0.3558
   84MOL   C13221878   1.851   5.857   5.437 -0.3252  0.3237 -0.1388
   84MOL   C13321879   1.973   5.893   5.349  0.7169 -0.7073  0.1602
   84MOL   O13421880   2.096   5.880   5.423  0.5938 -0.0120  0.4399
   84MOL   C13521881   2.158   5.748   5.410 -0.6662  0.1566 -0.3450
   84MOL   C13621882   2.263   5.739   5.516  0.7564  0.1375 -0.2263
   84MOL   H13721883   1.761   5.903   5.396 -0.2706 -1.3658 -2.1924
   84MOL   H13821884   1.835   5.750   5.425 -0.9789  0.5390 -1.3003
   84MOL   H13921885   1.981   5.819   5.269  1.5866 -0.8594  0.3837
   84MOL   H14021886   2.202   5.742   5.310 -0.3133  1.3820 -0.2778
   84MOL   H14121887   2.088   5.666   5.421 -1.7627  1.0981 -0.2063
   84MOL   H14221888   2.337   5.669   5.477 -0.9979 -1.2883 -1.0184
   84MOL   H14321889   2.311   5.833   5.544  1.6622  0.5798 -3.0372
   84MOL   H14421890   2.223   5.692   5.605 -1.2805  2.0425 -0.0789
   84MOL   C14521891   1.957   6.036   5.282  0.0198 -0.0021 -0.1984
   84MOL   C14621892   2.050   6.062   5.161 -0.0046 -0.0354 -0.2186
   84MOL   O14721893   2.051   5.962   5.060 -0.7611  0.1534 -0.7144
   84MOL   C14821894   1.947   5.964   4.959  0.2759  0.3278  0.8755
   84MOL   C14921895   1.937   5.831   4.881 -0.3489  0.5282 -0.0145
   84MOL   H15021896   1.970   6.107   5.364 -2.1955 -0.5112  0.6304
   84MOL   H15121897   1.860   6.057   5.237  0.0482  1.4613  0.3813
   84MOL   H15221898   2.020   6.153   5.108  0.3349 -0.6893 -1.5754
   84MOL   H15321899   1.979   6.035   4.882  2.1718 -0.7144  0.6811
   84MOL   H15421900   1.856   6.007   5.003 -0.1484 -0.4696  0.7742
   84MOL   H15521901   2.027   5.773   4.865 -0.2886  0.0841  1.8452
   84MOL   H15621902   1.865   5.767   4.932 -1.1489  0.2599 -1.4626
   84MOL   H15721903   1.896   5.851   4.782  2.3638  0.2486 -1.2401
   84MOL   C15821904   2.201   6.078   5.188  0.0613  0.1164 -0.0448
   84MOL   C15921905   2.240   6.160   5.319  1.2297  0.0631  0.4658
   84MOL   O16021906   2.242   6.300   5.284  0.2200 -0.1587  0.1562
   84MOL   C16121907   2.126   6.372   5.330  0.4465  0.0734  0.3925
   84MOL   C16221908   2.142   6.521   5.339  0.2775  0.3122 -0.7274
   84MOL   H16321909   2.251   6.117   5.100  0.9523 -2.7989 -0.8848
   84MOL   H16421910   2.244   5.979   5.202 -1.2218 -0.5339 -0.6360
   84MOL   H16521911   2.177   6.127   5.401  0.3113  0.1460 -0.2072
   84MOL   H16621912   2.098   6.335   5.429  2.7852 -0.0410  1.0385
   84MOL   H16721913   2.045   6.353   5.259  0.7084 -0.0678  0.1325
   84MOL   H16821914   2.166   6.566   5.243 -0.8553  1.2836 -0.5561
   84MOL   H16921915   2.050   6.563   5.379  0.4868 -0.1355  0.2363
   84MOL   H17021916   2.223   6.548   5.407  0.4792  0.0846 -0.8780
   84MOL   C17121917   2.384   6.145   5.364  0.0129  0.1845  0.3741
   84MOL   C17221918   2.425   6.204   5.494  0.1782 -0.1313  0.6855
   84MOL   O17321919   2.556   6.163   5.531 -0.2491  0.1209  0.3195
   84MOL   C17421920   2.659   6.195   5.447 -0.1816 -0.0289 -1.2218
   84MOL   C17521921   2.794   6.157   5.523 -0.6230 -0.1485  0.2490
   84MOL   H17621922   2.444   6.198   5.290  1.3846 -0.3001  1.1284
   84MOL   H17721923   2.409   6.039   5.363  2.1899  0.6690  0.0559
   84MOL   H17821924   2.412   6.312   5.489  0.1736 -0.1871 -0.5983
   84MOL   H17921925   2.659   6.303   5.428  0.9548  0.6040  1.9657
   84MOL   H18021926   2.653   6.144   5.351 -1.7213 -0.3223 -0.9718
   84MOL   H18121927   2.799   6.050   5.547  0.5844 -0.6143 -1.9554
   84MOL   H18221928   2.876   6.183   5.456 -1.4905  1.7367 -0.0857
   84MOL   H18321929   2.792   6.219   5.613  2.0137  0.7232 -0.2617
   84MOL   C18421930   2.338   6.144   5.613  0.2486  0.6561 -0.3718
   84MOL   C18521931   2.361   6.207   5.756  0.6692  0.3525  0.4558
   84MOL   O18621932   2.290   6.120   5.840  0.2358  0.2479 -0.4318
   84MOL   C18721933   2.356   6.005   5.901 -0.1332 -0.3940  0.0210
   84MOL   C18821934   2.258   5.934   5.991 -0.5138 -0.1486  0.5664
   84MOL   H18921935   2.354   6.037   5.615  2.1772  0.9666  1.1784
   84MOL   H19021936   2.233   6.166   5.589 -0.3395  0.0753  1.5986
   84MOL   H19121937   2.466   6.224   5.782  0.5657  1.4606  0.1736
   84MOL   H19221938   2.441   6.049   5.954 -1.4786  0.7593  1.2805
   84MOL   H19321939   2.402   5.936   5.830 -2.2428 -1.3986 -0.4139
   84MOL   H19421940   2.182   5.877   5.938 -1.1908 -0.3565  1.7564
   84MOL   H19521941   2.306   5.872   6.066  1.8762  1.5372  0.4810
   84MOL   H19621942   2.212   6.010   6.054  1.1964 -0.3344  2.0907
   84MOL   C19721943   2.282   6.336   5.775  0.0784 -0.6358 -0.3244
   84MOL   C19821944   2.289   6.416   5.902  0.2055  0.0519  0.3175
   84MOL   O19921945   2.420   6.455   5.921  0.5931  0.0247  0.4620
   84MOL   C20021946   2.465   6.561   5.840 -0.7166  0.2121 -0.0677
   84MOL   C20121947   2.549   6.654   5.931 -0.1779  0.7192  0.1554
   84MOL   H20221948   2.177   6.324   5.747 -0.3545 -2.0817  1.8190
   84MOL   H20321949   2.328   6.402   5.701 -1.5974  1.1715  0.1780
   84MOL   H20421950   2.232   6.507   5.882  3.0611  1.9004  0.2934
   84MOL   H20521951   2.391   6.622   5.788 -0.5298  1.6151  1.2797
   84MOL   H20621952   2.515   6.510   5.757 -2.7860 -2.1595  0.0865
   84MOL   H20721953   2.495   6.681   6.022 -1.6001  2.3085 -1.1304
   84MOL   H20821954   2.630   6.592   5.970 -0.6373  0.1807  0.2596
   84MOL   H20921955   2.602   6.734   5.880 -1.1252  0.9732 -0.4261
   84MOL   C21021956   2.249   6.330   6.027  0.1035 -0.5457 -0.0806
   84MOL   C21121957   2.225   6.410   6.162  0.1124  0.5240  0.1458
   84MOL   O21221958   2.102   6.478   6.148  0.2680  0.1009  0.1161
   84MOL   C21321959   1.994   6.395   6.188  0.2882  0.5386 -0.0212
   84MOL   C21421960   1.861   6.475   6.159 -0.2747  0.0136 -0.1266
   84MOL   H21521961   2.330   6.260   6.042 -1.8767 -3.1009 -0.9587
   84MOL   H21621962   2.156   6.280   5.998 -0.8763  0.9446  0.4284
   84MOL   H21721963   2.225   6.334   6.239  0.2874  1.0383  0.6558
   84MOL   H21821964   2.005   6.362   6.291  1.4635 -1.8554 -0.8883
   84MOL   H21921965   1.990   6.303   6.131 -0.8292 -0.5461  1.7601
   84MOL   H22021966   1.859   6.511   6.057 -2.4152  0.0097 -0.1230
   84MOL   H22121967   1.769   6.416   6.163 -0.9269  0.9522 -1.0601
   84MOL   H22221968   1.847   6.563   6.221  6.2534  0.5662  0.8735
   84MOL   C22321969   2.341   6.506   6.192  0.1845  0.1645 -0.3816
   84MOL   C22421970   2.326   6.576   6.321  0.3420 -0.5153  0.0714
   84MOL   O22521971   2.432   6.660   6.344  0.1935 -0.3942 -0.1934
   84MOL   C22621972   2.399   6.793   6.357  0.5735 -0.1988  0.0241
   84MOL   C22721973   2.531   6.865   6.364  0.1501  0.5814 -0.5378
   84MOL   H22821974   2.351   6.574   6.107  1.1457 -1.4883 -1.6386
   84MOL   H22921975   2.434   6.449   6.195 -1.9204 -3.3239  0.9043
   84MOL   H23021976   2.239   6.639   6.302 -1.0351 -2.5622 -0.6345
   84MOL   H23121977   2.358   6.819   6.454 -0.2484 -0.3486 -0.2777
   84MOL   H23221978   2.340   6.831   6.274  1.0312  1.7983  0.5983
   84MOL   H23321979   2.592   6.859   6.275  2.7141  0.6428  1.1541
   84MOL   H23421980   2.518   6.967   6.399 -1.1267 -0.8167  3.3470
   84MOL   H23521981   2.595   6.818   6.440 -2.4159 -0.9365  0.7637
   84MOL   C23621982   2.286   6.492   6.447 -0.0082  0.6108 -0.0758
   84MOL   C23721983   2.403   6.412   6.502  0.1652 -0.9142  0.7283
   84MOL   O23821984   2.429   6.310   6.412  0.0063 -0.4525 -0.3228
   84MOL   C23921985   2.560   6.290   6.386  0.0771 -0.4806 -0.2643
   84MOL   C24021986   2.574   6.187   6.274 -0.2589 -0.0431  0.2354
   84MOL   H24121987   2.197   6.431   6.428  0.2493  0.5533 -1.1657
   84MOL   H24221988   2.273   6.566   6.526  2.6103  0.3052  0.6775
   84MOL   H24321989   2.494   6.467   6.525  0.7951 -0.5753 -2.4298
   84MOL   H24421990   2.602   6.259   6.481 -0.6037 -1.4803 -0.2822
   84MOL   H24521991   2.601   6.383   6.348 -3.1714  0.7838 -0.8751
   84MOL   H24621992   2.519   6.210   6.183 -0.1716 -0.2719  0.1264
   84MOL   H24721993   2.680   6.195   6.247 -0.0261 -0.2822  1.0384
   84MOL   H24821994   2.544   6.085   6.296 -1.2744  0.4600  1.2637
   84MOL   C24921995   2.355   6.344   6.629 -0.3260  0.0465 -0.4524
   84MOL   C25021996   2.465   6.264   6.702 -0.5592 -0.0784 -0.3167
   84MOL   O25121997   2.431   6.221   6.834  0.3943 -0.0137 -0.7360
   84MOL   C25221998   2.346   6.106   6.843  0.3280 -0.1454 -0.3712
   84MOL   C25321999   2.305   6.080   6.984 -0.1988 -0.6370 -0.2377
   84MOL   H25422000   2.270   6.281   6.602 -1.7425  0.5247  2.6191
   84MOL   H25522001   2.318   6.416   6.703  0.4217  0.6028 -0.6170
   84MOL   H25622002   2.499   6.173   6.652 -0.1844 -0.2133  0.1806
   84MOL   H25722003   2.396   6.022   6.794  0.0209  0.5758 -1.9464
   84MOL   H25822004   2.255   6.125   6.787 -0.9589 -0.3673  1.5933
   84MOL   H25922005   2.225   6.007   6.979 -1.8980  0.8882  3.0915
   84MOL   H26022006   2.392   6.044   7.039 -0.6858  1.2433  1.8313
   84MOL   H26122007   2.268   6.168   7.036  1.3292 -0.4959  0.6625
   84MOL   H26222008   2.547   6.331   6.725 -0.4836  0.3635 -1.8393
   85MOL     C122009   5.327   4.812   4.038  0.4818  0.2923  0.1140
   85MOL     C222010   5.394   4.928   3.966 -0.8228 -0.2354  0.5709
   85MOL     O322011   5.384   4.910   3.828 -0.0698  0.0579 -0.1095
   85MOL     C422012   5.356   5.035   3.762 -0.1171  0.2612  0.4261
   85MOL     C522013   5.309   5.015   3.613 -0.1646  0.0884 -0.1268
   85MOL     H622014   5.381   4.718   4.023  1.1166  0.5728  0.6127
   85MOL     H722015   5.327   4.815   4.147 -0.6363 -1.1584  0.1744
   85MOL     H822016   5.350   5.020   4.006  1.0823  1.5134 -1.2074
   85MOL     H922017   5.450   5.089   3.767 -0.3144  0.4270  3.0909
   85MOL    H1022018   5.276   5.092   3.810 -0.0760  3.1534 -2.8133
   85MOL    H1122019   5.386   4.972   3.548  2.1862  2.3115  1.0958
   85MOL    H1222020   5.218   4.957   3.598 -1.1169  1.9304 -1.5612
   85MOL    H1322021   5.282   5.114   3.577 -0.2293 -0.5379 -1.8380
   85MOL    H1422022   5.224   4.800   4.006  0.5500  3.0475 -1.2873
   85MOL    C1522023   5.545   4.937   4.001 -0.6578  0.1232  0.7543
   85MOL    C1622024   5.583   4.942   4.152  0.4467  0.8803 -1.0472
   85MOL    O1722025   5.514   5.054   4.198 -0.2347  0.6355  0.0366
   85MOL    C1822026   5.502   5.050   4.340 -0.3460  0.0848  0.1018
   85MOL    C1922027   5.431   5.179   4.378 -0.0624 -0.3562  0.2832
   85MOL    H2022028   5.592   5.015   3.943 -1.4493  1.0759  1.3684
   85MOL    H2122029   5.589   4.845   3.962 -0.0920  0.2987  0.9824
   85MOL    H2222030   5.547   4.849   4.197  3.0281  0.0253 -0.6577
   85MOL    H2322031   5.596   5.042   4.393 -0.6031 -2.0121  0.3030
   85MOL    H2422032   5.447   4.969   4.389 -1.0625  1.2107  1.1853
   85MOL    H2522033   5.493   5.267   4.361  1.3075 -1.0089  1.8436
   85MOL    H2622034   5.419   5.171   4.486  1.7845 -1.5445  0.4262
   85MOL    H2722035   5.330   5.194   4.340  0.1893  1.9078  0.4484
   85MOL    C2822036   5.730   4.965   4.170  0.0112 -1.1407  0.1000
   85MOL    C2922037   5.819   4.851   4.122  0.1161  0.8588  0.1881
   85MOL    O3022038   5.807   4.737   4.198 -0.2802  0.9122  0.9668
   85MOL    C3122039   5.857   4.612   4.148 -0.9404 -0.4637 -0.0045
   85MOL    C3222040   5.768   4.512   4.217  0.4517 -0.2213  0.3866
   85MOL    H3322041   5.766   4.983   4.271  0.2412  1.7713 -0.4496
   85MOL    H3422042   5.754   5.060   4.122 -2.1027 -0.4548  0.3566
   85MOL    H3522043   5.798   4.826   4.018 -1.2438  1.4097  0.3139
   85MOL    H3622044   5.963   4.598   4.173 -1.1894 -1.3792  0.5467
   85MOL    H3722045   5.842   4.613   4.040  1.8082 -4.6961 -0.5701
   85MOL    H3822046   5.745   4.536   4.321 -1.7158 -1.9039  0.3316
   85MOL    H3922047   5.675   4.511   4.161 -0.4983 -1.9164  1.9363
   85MOL    H4022048   5.804   4.410   4.203  1.4263  0.2851 -0.8433
   85MOL    C4122049   5.964   4.901   4.127 -0.0550 -0.2249  0.0498
   85MOL    C4222050   5.999   4.999   4.016  0.5503 -0.2157 -0.2942
   85MOL    O4322051   5.996   4.929   3.893  0.4159 -0.6370 -0.8418
   85MOL    C4422052   5.915   4.989   3.791 -0.6499  0.0013  0.3784
   85MOL    C4522053   5.948   4.922   3.658  0.4424 -0.6208  0.0783
   85MOL    H4622054   6.036   4.821   4.138 -1.0375 -0.9130  1.6218
   85MOL    H4722055   5.985   4.963   4.213  2.0687  2.4306 -2.2773
   85MOL    H4822056   5.933   5.085   4.022  0.6360 -0.0905 -1.1399
   85MOL    H4922057   5.929   5.098   3.791  0.8667 -0.1799 -0.0456
   85MOL    H5022058   5.811   4.974   3.818 -0.7415  1.6797  1.0586
   85MOL    H5122059   5.938   4.813   3.661  0.5291 -0.6736 -1.1734
   85MOL    H5222060   5.887   4.960   3.576  1.7667  1.2189 -0.0877
   85MOL    H5322061   6.053   4.944   3.635  0.0956  1.0650  0.0554
   85MOL    C5422062   6.147   5.061   4.030  0.2638 -0.7048 -0.2078
   85MOL    C5522063   6.174   5.188   3.945 -0.7135 -0.2698  0.8903
   85MOL    O5622064   6.305   5.227   3.988 -0.2262  0.0463  0.3019
   85MOL    C5722065   6.413   5.170   3.906 -0.1591 -0.2899  0.0726
   85MOL    C5822066   6.528   5.275   3.882 -0.2386 -0.0862  0.3321
   85MOL    H5922067   6.227   4.989   4.015  0.6950 -0.0971 -0.8203
   85MOL    H6022068   6.157   5.099   4.132  1.2188  1.3669 -1.0488
   85MOL    H6122069   6.167   5.170   3.837  0.0661  2.1775  0.3984
   85MOL    H6222070   6.393   5.130   3.807 -0.0790  0.7262 -0.3626
   85MOL    H6322071   6.441   5.086   3.969 -0.0730 -0.0696  0.3309
   85MOL    H6422072   6.532   5.346   3.965  0.9190  0.4831 -0.2053
   85MOL    H6522073   6.619   5.215   3.888 -0.5774 -0.6384 -0.0655
   85MOL    H6622074   6.524   5.326   3.787 -0.5759 -1.0039 -0.1568
   85MOL    C6722075   6.080   5.315   3.965  0.4596 -0.2101 -0.1315
   85MOL    C6822076   6.084   5.412   3.856 -0.3132 -0.2716  0.7266
   85MOL    O6922077   6.153   5.533   3.909 -0.4614  0.0917  0.4560
   85MOL    C7022078   6.298   5.534   3.922 -0.2455  0.0551  0.0583
   85MOL    C7122079   6.349   5.678   3.908 -1.3282  0.2815  0.5281
   85MOL    H7222080   6.098   5.364   4.060  2.2286 -0.8004 -0.1526
   85MOL    H7322081   5.976   5.283   3.976  0.5872 -0.3617  0.6129
   85MOL    H7422082   6.144   5.374   3.772  0.2669  0.6646  0.7136
   85MOL    H7522083   6.332   5.483   3.832 -0.0025  0.0971  0.1260
   85MOL    H7622084   6.341   5.483   4.008  0.8541 -1.9040 -1.5995
   85MOL    H7722085   6.316   5.742   3.990 -2.9528 -0.6396  0.6027
   85MOL    H7822086   6.458   5.679   3.907 -1.2852 -0.5251 -2.9119
   85MOL    H7922087   6.303   5.726   3.822 -0.1106  1.6760  0.6241
   85MOL    C8022088   5.941   5.463   3.826  0.3304  0.3503  0.0645
   85MOL    C8122089   5.932   5.571   3.723  1.0723 -0.0300  0.1300
   85MOL    O8222090   5.805   5.628   3.750  0.0986 -0.0271 -0.4168
   85MOL    C8322091   5.796   5.736   3.845 -0.0588  0.3801  0.0513
   85MOL    C8422092   5.790   5.874   3.772  0.5535 -0.0478 -0.2444
   85MOL    H8522093   5.918   5.506   3.924  0.2560  0.3926  0.0284
   85MOL    H8622094   5.859   5.392   3.823  0.0617  0.6443  0.2984
   85MOL    H8722095   6.004   5.651   3.738  1.2295 -0.0632 -0.4574
   85MOL    H8822096   5.876   5.732   3.918  1.1686 -1.1757 -1.3280
   85MOL    H8922097   5.704   5.718   3.900 -0.6120 -0.5930 -1.1832
   85MOL    H9022098   5.754   5.949   3.842  0.2572  0.3771 -0.8507
   85MOL    H9122099   5.889   5.905   3.740  0.3817 -0.4605 -1.1953
   85MOL    H9222100   5.730   5.855   3.683  0.4030 -0.9294  0.0357
   85MOL    C9322101   5.937   5.517   3.584 -0.2077  0.1548 -0.6472
   85MOL    C9422102   5.942   5.629   3.476 -1.2047 -0.4933 -0.8767
   85MOL    O9522103   5.896   5.576   3.352  0.3376 -0.6214 -0.5891
   85MOL    C9622104   5.757   5.582   3.338 -0.0109  0.4129 -0.8141
   85MOL    C9722105   5.712   5.561   3.193  0.0277 -0.7454  0.6026
   85MOL    H9822106   5.847   5.457   3.566  1.0674 -1.9536 -0.0888
   85MOL    H9922107   6.016   5.449   3.554  1.8446  3.5218 -3.3745
   85MOL   H10022108   5.887   5.719   3.503  1.3781  0.8836  0.0292
   85MOL   H10122109   5.724   5.679   3.377 -0.0089  0.2822 -0.4823
   85MOL   H10222110   5.697   5.520   3.405  0.4008 -0.1129 -0.9261
   85MOL   H10322111   5.603   5.568   3.193  0.0443 -0.4880  0.9154
   85MOL   H10422112   5.747   5.646   3.133  0.3077 -0.8220  0.6602
   85MOL   H10522113   5.749   5.472   3.142  1.7440 -0.5618  1.4983
   85MOL   C10622114   6.094   5.668   3.449  0.8180 -0.5201  0.0808
   85MOL   C10722115   6.120   5.751   3.319 -0.6470 -0.6308  0.4875
   85MOL   O10822116   6.261   5.767   3.286 -0.1074  0.1516  0.0467
   85MOL   C10922117   6.340   5.656   3.271  0.9059 -0.0100  0.0998
   85MOL   C11022118   6.280   5.565   3.156  0.5224  0.1519  0.2652
   85MOL   H11122119   6.147   5.573   3.447  1.6719 -0.0910  1.5617
   85MOL   H11222120   6.136   5.727   3.530  1.7223  0.5111 -1.1111
   85MOL   H11322121   6.086   5.693   3.233  0.0080 -0.2464 -0.0253
   85MOL   H11422122   6.350   5.607   3.368 -1.7493  1.2702  1.0846
   85MOL   H11522123   6.435   5.686   3.227  0.3694  0.6127 -0.6490
   85MOL   H11622124   6.235   5.617   3.071 -1.4871  0.7343  1.6423
   85MOL   H11722125   6.361   5.501   3.122  0.6657  1.2463 -1.5174
   85MOL   H11822126   6.194   5.508   3.191  1.1572  0.2756  2.0904
   85MOL   C11922127   6.085   5.902   3.324 -0.4130 -0.7237  0.3093
   85MOL   C12022128   6.095   5.964   3.179  0.4932  0.5906 -0.2639
   85MOL   O12122129   6.074   6.108   3.172  0.0903  0.4582 -0.4369
   85MOL   C12222130   6.201   6.173   3.212 -0.0790 -0.5859  0.1429
   85MOL   C12322131   6.202   6.320   3.195  0.6461  0.3018 -0.3836
   85MOL   H12422132   6.162   5.949   3.384 -0.4736 -0.2561  0.0232
   85MOL   H12522133   5.988   5.917   3.371 -0.2802  0.8713  0.0831
   85MOL   H12622134   6.188   5.926   3.136 -0.9139 -2.6445 -0.5854
   85MOL   H12722135   6.280   6.130   3.150 -0.2044 -1.1778  0.3926
   85MOL   H12822136   6.232   6.151   3.314 -2.0022 -1.9388  0.4541
   85MOL   H12922137   6.304   6.355   3.211  0.3816  0.6308  0.6545
   85MOL   H13022138   6.179   6.338   3.090 -0.1968  0.0719 -0.2382
   85MOL   H13122139   6.129   6.371   3.258  0.5369 -0.8211  0.4153
   85MOL   C13222140   5.981   5.918   3.089 -0.1463 -0.1251  0.3654
   85MOL   C13322141   5.984   5.984   2.948 -0.7564  0.0852  0.1635
   85MOL   O13422142   5.880   5.920   2.885 -0.2221 -0.3311  0.6045
   85MOL   C13522143   5.748   5.978   2.902 -0.7326 -0.6937  0.4012
   85MOL   C13622144   5.661   5.886   2.822 -0.2652  0.4401 -0.1935
   85MOL   H13722145   5.885   5.942   3.134 -1.2905 -0.4821 -1.8152
   85MOL   H13822146   5.970   5.809   3.080  1.0038 -0.2923  0.9198
   85MOL   H13922147   5.976   6.092   2.961  1.9931  0.3038  0.3829
   85MOL   H14022148   5.743   6.081   2.865 -1.1269 -0.6724  0.5114
   85MOL   H14122149   5.717   5.969   3.006  0.5075  1.8269  1.0559
   85MOL   H14222150   5.563   5.931   2.807 -0.5613 -0.7642 -1.9869
   85MOL   H14322151   5.701   5.903   2.722  1.1495  2.6842  0.7101
   85MOL   H14422152   5.674   5.781   2.848 -2.6890  0.1303 -0.1096
   85MOL   C14522153   6.106   5.957   2.852 -0.2833  0.1331  0.0036
   85MOL   C14622154   6.096   5.980   2.701  0.0685 -0.2161 -0.2263
   85MOL   O14722155   6.227   5.971   2.649 -0.5957  0.3427  0.7222
   85MOL   C14822156   6.261   5.845   2.594 -0.7332 -0.3436  0.1332
   85MOL   C14922157   6.411   5.848   2.553 -0.5026 -0.2065  0.3455
   85MOL   H15022158   6.143   5.860   2.885 -1.2397 -0.1094  0.3690
   85MOL   H15122159   6.179   6.024   2.897 -0.6022  0.0150  0.6929
   85MOL   H15222160   6.040   5.898   2.655 -1.5097 -0.1256  1.4829
   85MOL   H15322161   6.211   5.824   2.500 -0.0783 -0.8501 -0.1078
   85MOL   H15422162   6.238   5.762   2.660 -0.6878 -0.1118  0.4387
   85MOL   H15522163   6.468   5.874   2.642  0.4224  3.9317 -1.3201
   85MOL   H15622164   6.453   5.759   2.506 -0.0174  0.3870 -0.3760
   85MOL   H15722165   6.422   5.932   2.484 -0.4450  0.6717  1.4157
   85MOL   C15822166   6.029   6.119   2.671 -0.7103 -0.4905  0.4303
   85MOL   C15922167   6.051   6.175   2.524 -0.0594 -0.3234 -0.5314
   85MOL   O16022168   5.984   6.298   2.506 -0.0098  0.0181 -0.3979
   85MOL   C16122169   6.038   6.403   2.588  0.0443 -0.2695 -0.1087
   85MOL   C16222170   5.969   6.527   2.534  0.0978  0.8221  0.5815
   85MOL   H16322171   6.073   6.188   2.743  0.4189 -0.0894 -0.6356
   85MOL   H16422172   5.923   6.110   2.698 -0.5316 -0.3039  1.2324
   85MOL   H16522173   6.158   6.191   2.508 -0.5076  1.5378 -1.9112
   85MOL   H16622174   6.145   6.414   2.569  0.2773 -0.2925  1.1268
   85MOL   H16722175   6.019   6.397   2.695 -0.5295  1.3812 -0.1125
   85MOL   H16822176   6.008   6.616   2.585  1.0786  1.1159 -0.6667
   85MOL   H16922177   6.008   6.548   2.435  1.5133  1.0310  1.1690
   85MOL   H17022178   5.861   6.520   2.536  0.1841 -2.4326 -2.1584
   85MOL   C17122179   6.005   6.075   2.414 -0.3854  0.2359  0.7355
   85MOL   C17222180   6.030   6.123   2.269 -0.1839  0.6043 -0.4884
   85MOL   O17322181   5.974   6.027   2.185  0.0470 -0.1540 -0.1135
   85MOL   C17422182   5.835   6.047   2.150 -0.2053 -0.1064 -0.0793
   85MOL   C17522183   5.791   5.932   2.057  0.0429 -0.4619  0.2503
   85MOL   H17622184   5.898   6.059   2.426 -0.5266 -1.8130 -2.6459
   85MOL   H17722185   6.046   5.977   2.435  0.4463  0.8572  2.0523
   85MOL   H17822186   5.972   6.214   2.254 -3.6741 -1.2152  1.2592
   85MOL   H17922187   5.837   6.143   2.099 -1.9931  0.5739  1.1062
   85MOL   H18022188   5.779   6.056   2.243  0.4011 -1.8916  0.4878
   85MOL   H18122189   5.698   5.958   2.008  0.6890 -0.6462 -1.1101
   85MOL   H18222190   5.865   5.900   1.982  0.5857  0.0145  0.5767
   85MOL   H18322191   5.773   5.845   2.120 -2.3306 -0.5380 -0.4882
   85MOL   C18422192   6.171   6.138   2.227 -0.2698  0.0738 -0.3896
   85MOL   C18522193   6.192   6.240   2.099 -0.1023  0.3650  0.1395
   85MOL   O18622194   6.147   6.371   2.131 -0.1482 -0.5543 -0.4645
   85MOL   C18722195   6.250   6.467   2.138 -0.0764 -0.3334 -0.1724
   85MOL   C18822196   6.201   6.608   2.178 -0.4258 -0.6177  0.3177
   85MOL   H18922197   6.220   6.043   2.209 -0.5128 -0.4828  1.7102
   85MOL   H19022198   6.225   6.177   2.313 -0.1549  0.1792 -0.5090
   85MOL   H19122199   6.300   6.240   2.083 -0.1929 -2.0170 -0.7294
   85MOL   H19222200   6.320   6.484   2.056 -0.9187 -0.1238 -0.8544
   85MOL   H19322201   6.321   6.425   2.210  0.7751 -2.1159 -1.9905
   85MOL   H19422202   6.140   6.663   2.107 -0.2631  0.1334  0.7557
   85MOL   H19522203   6.151   6.589   2.274 -0.4026 -0.0308  0.4461
   85MOL   H19622204   6.286   6.672   2.200 -0.5433  0.6242 -2.6081
   85MOL   C19722205   6.115   6.196   1.975  0.8011  0.0411  0.0926
   85MOL   C19822206   6.164   6.263   1.842  0.2497  0.1878 -1.1294
   85MOL   O19922207   6.293   6.207   1.813 -0.2220  0.0192  0.5204
   85MOL   C20022208   6.311   6.154   1.686 -0.4950 -0.1634 -0.5121
   85MOL   C20122209   6.465   6.173   1.659  0.5987  0.6355  0.4066
   85MOL   H20222210   6.010   6.225   1.986  1.1790  0.7982  2.1388
   85MOL   H20322211   6.123   6.089   1.958 -0.2366  0.2148 -1.5514
   85MOL   H20422212   6.101   6.211   1.769  1.0364  2.6069 -3.6067
   85MOL   H20522213   6.256   6.201   1.604 -1.6432 -0.6701 -0.0428
   85MOL   H20622214   6.271   6.053   1.689 -0.1524 -0.3266 -1.2930
   85MOL   H20722215   6.522   6.146   1.748 -0.9672 -0.4493  1.1098
   85MOL   H20822216   6.501   6.116   1.573 -1.1994 -0.1597  0.1627
   85MOL   H20922217   6.495   6.278   1.648  0.1018  1.0730  2.9793
   85MOL   C21022218   6.152   6.413   1.818  0.2269  0.9203 -0.2461
   85MOL   C21122219   6.067   6.444   1.692 -0.5572  0.2958  0.0273
   85MOL   O21222220   6.124   6.552   1.627 -0.1144 -0.7862 -0.1743
   85MOL   C21322221   6.241   6.521   1.551  0.5216 -0.0356 -0.5309
   85MOL   C21422222   6.319   6.639   1.506 -0.2871 -0.4802 -0.2259
   85MOL   H21522223   6.253   6.454   1.819 -0.4052  2.5337 -0.1517
   85MOL   H21622224   6.105   6.453   1.908 -1.3813 -0.9989 -0.1992
   85MOL   H21722225   6.073   6.362   1.621 -1.5897  0.6362 -0.4724
   85MOL   H21822226   6.197   6.475   1.462  0.7357  0.8594 -1.0998
   85MOL   H21922227   6.308   6.448   1.596 -1.5242 -0.9395  1.1548
   85MOL   H22022228   6.404   6.618   1.441 -0.3398 -0.0964 -0.4199
   85MOL   H22122229   6.265   6.725   1.466 -0.7256  0.4998  2.3941
   85MOL   H22222230   6.372   6.683   1.591 -0.3325 -0.1825 -0.3502
   85MOL   C22322231   5.926   6.468   1.720  0.7727  1.2397  0.3216
   85MOL   C22422232   5.841   6.332   1.748 -0.3130  0.5857  0.7802
   85MOL   O22522233   5.864   6.227   1.655 -0.3704  0.1236 -0.6497
   85MOL   C22622234   5.845   6.096   1.696  0.1570  0.0089  0.5475
   85MOL   C22722235   5.928   6.004   1.613 -0.0166 -0.6896 -0.1888
   85MOL   H22822236   5.878   6.520   1.637  0.4618  0.5114  0.0356
   85MOL   H22922237   5.915   6.532   1.807  2.1805 -1.6486  2.7121
   85MOL   H23022238   5.872   6.311   1.850 -3.5086  0.6744  1.8442
   85MOL   H23122239   5.739   6.070   1.692 -0.2239  1.4889  0.7269
   85MOL   H23222240   5.876   6.075   1.798  2.0638  1.6109  0.3332
   85MOL   H23322241   6.033   6.022   1.637  0.0784 -0.1250 -1.0155
   85MOL   H23422242   5.915   5.899   1.640 -2.2219 -0.1776  0.8474
   85MOL   H23522243   5.913   6.021   1.507  0.7629  0.6903 -0.0917
   85MOL   C23622244   5.695   6.363   1.746  0.3119  0.3320  0.5778
   85MOL   C23722245   5.643   6.465   1.850 -0.3473 -0.0228  0.1905
   85MOL   O23822246   5.653   6.422   1.988 -0.0712 -0.3618 -0.2855
   85MOL   C23922247   5.686   6.518   2.081 -0.0017 -0.6201 -0.1017
   85MOL   C24022248   5.723   6.447   2.207  0.4956 -0.8461  0.2956
   85MOL   H24122249   5.648   6.268   1.772  1.1637  0.2848  1.9933
   85MOL   H24222250   5.670   6.399   1.646  1.1768 -0.5627  0.0275
   85MOL   H24322251   5.680   6.568   1.848  0.6337 -0.2644  3.2217
   85MOL   H24422252   5.602   6.587   2.083  1.4121  1.1100  1.8478
   85MOL   H24522253   5.779   6.562   2.045  0.3818 -0.8400  0.5994
   85MOL   H24622254   5.807   6.382   2.181  0.9527  0.3545 -1.2897
   85MOL   H24722255   5.758   6.529   2.270  2.0419  0.5102 -2.2394
   85MOL   H24822256   5.648   6.377   2.243  0.4641 -0.5180  0.8848
   85MOL   C24922257   5.486   6.476   1.826  0.9874  0.1061  0.7267
   85MOL   C25022258   5.445   6.600   1.740 -0.0782 -0.3965 -0.2550
   85MOL   O25122259   5.325   6.652   1.803 -0.5889 -0.1368  0.1882
   85MOL   C25222260   5.263   6.763   1.723  0.2806 -0.8429 -0.1023
   85MOL   C25322261   5.161   6.824   1.813  0.3706  0.3812  0.4059
   85MOL   H25422262   5.445   6.498   1.924 -0.8470  0.5779 -0.1362
   85MOL   H25522263   5.453   6.381   1.784  1.6707  0.9564 -1.8110
   85MOL   H25622264   5.517   6.682   1.740  0.9645 -1.2929 -0.0246
   85MOL   H25722265   5.209   6.739   1.632  1.6982 -0.2236 -1.1175
   85MOL   H25822266   5.343   6.837   1.711 -0.1643 -0.3133  0.1770
   85MOL   H25922267   5.207   6.871   1.900 -0.0836  2.4366 -0.4293
   85MOL   H26022268   5.111   6.904   1.757 -0.1578 -1.1202 -1.3254
   85MOL   H26122269   5.091   6.756   1.861  0.0070 -0.3798 -1.1672
   85MOL   H26222270   5.431   6.579   1.634  0.3564  1.8456 -0.7791
   86MOL     C122271   5.069   4.834   4.328 -0.5994  0.0121  0.1964
   86MOL     C222272   5.037   4.981   4.377  0.7592  1.0493  0.2940
   86MOL     O322273   5.110   5.082   4.314 -0.4106  0.1668 -0.2032
   86MOL     C422274   5.054   5.110   4.182 -0.1765 -0.5373 -0.5529
   86MOL     C522275   5.144   5.205   4.108  0.0006  0.6141  0.4915
   86MOL     H622276   5.176   4.816   4.334 -0.2373  2.4033  1.5003
   86MOL     H722277   5.016   4.762   4.390  0.0297 -0.3300  0.3410
   86MOL     H822278   4.931   5.001   4.360  1.1331  0.2715 -3.3327
   86MOL     H922279   4.961   5.163   4.199  0.3352  0.5144 -0.9914
   86MOL    H1022280   5.040   5.018   4.124 -1.1836 -0.2563 -0.7555
   86MOL    H1122281   5.242   5.163   4.085 -1.1702 -1.0961 -1.6235
   86MOL    H1222282   5.109   5.210   4.004  2.7089  1.4858 -0.4198
   86MOL    H1322283   5.151   5.303   4.155 -1.5515 -0.1590  2.3814
   86MOL    H1422284   5.027   4.813   4.230 -0.9932 -2.0349  0.7775
   86MOL    C1522285   5.067   5.003   4.530  0.2454 -0.5021 -0.2889
   86MOL    C1622286   5.057   5.145   4.581 -0.3769  0.0169 -0.2342
   86MOL    O1722287   5.080   5.144   4.724  0.4529  0.3372 -0.1189
   86MOL    C1822288   5.198   5.209   4.765 -0.5054 -0.6563 -0.5466
   86MOL    C1922289   5.219   5.189   4.916 -0.2411 -0.1158 -0.3728
   86MOL    H2022290   5.168   4.965   4.545 -0.1840 -1.4935  0.1301
   86MOL    H2122291   4.996   4.939   4.583  0.8508  0.0602  1.2156
   86MOL    H2222292   5.133   5.204   4.530 -0.3788 -1.0817 -1.5514
   86MOL    H2322293   5.188   5.312   4.733  1.2785 -0.6217 -1.0138
   86MOL    H2422294   5.280   5.173   4.703  0.3652  1.2757 -0.5527
   86MOL    H2522295   5.120   5.215   4.953  0.8289  2.8724  0.5590
   86MOL    H2622296   5.293   5.256   4.960 -1.0285 -0.1118  0.9785
   86MOL    H2722297   5.254   5.088   4.937  0.3103  0.2502  0.4845
   86MOL    C2822298   4.917   5.214   4.564 -0.5095 -0.2518 -0.0250
   86MOL    C2922299   4.935   5.364   4.571  0.4321 -0.4742 -0.2721
   86MOL    O3022300   4.820   5.431   4.615 -0.4358 -0.5580  0.1613
   86MOL    C3122301   4.799   5.429   4.760  0.0967 -0.5530 -0.2620
   86MOL    C3222302   4.719   5.552   4.796  0.5237 -0.3632 -0.1713
   86MOL    H3322303   4.846   5.166   4.632 -0.3142 -0.1024  0.2862
   86MOL    H3422304   4.871   5.197   4.467 -1.8088  0.0166  0.5412
   86MOL    H3522305   5.013   5.384   4.644  1.7776 -1.3193 -1.4584
   86MOL    H3622306   4.893   5.457   4.807  0.6118 -2.6783  0.0285
   86MOL    H3722307   4.764   5.332   4.798 -0.8433  0.5952  1.8803
   86MOL    H3822308   4.740   5.645   4.744 -0.0756 -0.0684  0.1163
   86MOL    H3922309   4.616   5.536   4.764  1.4914 -2.1996 -2.5495
   86MOL    H4022310   4.712   5.570   4.904 -0.3279  1.1625 -0.4796
   86MOL    C4122311   4.974   5.422   4.440  0.0495  0.3950  0.2746
   86MOL    C4222312   5.035   5.568   4.431 -0.3364  0.1234  0.1519
   86MOL    O4322313   5.155   5.569   4.506  0.2074  0.2574  0.0715
   86MOL    C4422314   5.268   5.538   4.435  0.3757  0.6559  0.1208
   86MOL    C4522315   5.381   5.514   4.533  0.2266 -0.3114 -0.1555
   86MOL    H4622316   4.889   5.414   4.372  2.3150 -0.9089 -2.5028
   86MOL    H4722317   5.045   5.361   4.385 -1.9491 -0.8029 -1.0463
   86MOL    H4822318   5.057   5.571   4.325 -2.5677 -1.5008 -0.3835
   86MOL    H4922319   5.307   5.615   4.368  0.9476  1.0819  0.9460
   86MOL    H5022320   5.253   5.450   4.371  3.5158  0.0752  0.0970
   86MOL    H5122321   5.453   5.451   4.480  1.0164  0.9123 -0.5555
   86MOL    H5222322   5.428   5.610   4.554 -0.8233  0.1501  0.1331
   86MOL    H5322323   5.342   5.454   4.615  1.2450 -0.0842  0.4987
   86MOL    C5422324   4.939   5.686   4.470  0.2805  0.1972 -0.1603
   86MOL    C5522325   4.982   5.825   4.434  0.1484  0.1288  0.2657
   86MOL    O5622326   4.997   5.836   4.292 -0.3130  0.2447  0.5895
   86MOL    C5722327   4.927   5.954   4.238 -0.1928 -0.1753 -0.2938
   86MOL    C5822328   4.884   5.916   4.098  0.0307  0.2107  0.7830
   86MOL    H5922329   4.925   5.683   4.578 -0.3717  0.0775 -0.2468
   86MOL    H6022330   4.845   5.666   4.419 -0.0815 -1.1892  0.9921
   86MOL    H6122331   4.905   5.895   4.467 -0.0012  1.1574 -2.1333
   86MOL    H6222332   5.000   6.036   4.238 -0.2552 -0.0868 -2.6158
   86MOL    H6322333   4.833   5.983   4.284 -2.6934 -1.8929 -4.0833
   86MOL    H6422334   4.806   5.841   4.107  1.1577 -0.9406  1.0205
   86MOL    H6522335   4.849   6.000   4.037 -0.6434  0.5582  1.6402
   86MOL    H6622336   4.963   5.864   4.044  1.6599  0.5262  2.7925
   86MOL    C6722337   5.110   5.879   4.500 -0.2133  0.0355 -0.4913
   86MOL    C6822338   5.099   5.880   4.655 -0.2132 -0.0032 -0.1933
   86MOL    O6922339   5.011   5.986   4.680 -0.2263  0.4625 -0.4683
   86MOL    C7022340   4.893   5.954   4.747 -0.3085  0.4841  0.3463
   86MOL    C7122341   4.827   6.085   4.793 -0.3942 -0.2702 -0.3514
   86MOL    H7222342   5.127   5.980   4.464  0.9862  0.5859  1.5244
   86MOL    H7322343   5.197   5.821   4.468 -1.0222 -0.8627 -1.1003
   86MOL    H7422344   5.080   5.782   4.699 -1.3616  0.1753 -0.2567
   86MOL    H7522345   4.912   5.893   4.836 -2.5950  1.3497  1.4655
   86MOL    H7622346   4.833   5.884   4.689 -0.2196  0.8110 -0.1348
   86MOL    H7722347   4.838   6.156   4.711 -0.5692  2.6369  2.0346
   86MOL    H7822348   4.723   6.070   4.820  0.1969  1.4838  3.1519
   86MOL    H7922349   4.883   6.133   4.873  0.4406 -0.3896 -0.8582
   86MOL    C8022350   5.237   5.926   4.715  0.0842 -0.1922 -0.2592
   86MOL    C8122351   5.240   5.958   4.863  0.0440 -0.5660  0.3984
   86MOL    O8222352   5.143   5.886   4.940 -0.3439  0.6091  0.5015
   86MOL    C8322353   5.173   5.750   4.966 -0.1971  0.3916  0.3317
   86MOL    C8422354   5.035   5.671   4.988  0.0169  0.7422 -0.2385
   86MOL    H8522355   5.295   5.999   4.659  1.1564 -1.6011 -1.0243
   86MOL    H8622356   5.294   5.835   4.694  1.1017  0.5108 -0.5572
   86MOL    H8722357   5.338   5.931   4.901  0.4501 -0.0533 -0.2889
   86MOL    H8822358   5.233   5.751   5.057  2.8252  2.7994 -1.5836
   86MOL    H8922359   5.224   5.697   4.885  0.6815  2.0786 -0.2390
   86MOL    H9022360   4.978   5.723   5.065 -0.7704 -1.2078  0.5467
   86MOL    H9122361   4.990   5.670   4.889 -1.1462  1.3295  0.2845
   86MOL    H9222362   5.053   5.570   5.025 -2.5140  0.1826 -0.4494
   86MOL    C9322363   5.241   6.113   4.896  0.5786  0.2756  0.1106
   86MOL    C9422364   5.260   6.142   5.048 -0.1577  0.9809  0.0265
   86MOL    O9522365   5.189   6.262   5.072 -0.0611  0.0029  0.6635
   86MOL    C9622366   5.075   6.241   5.158  0.2937 -0.0684 -0.2929
   86MOL    C9722367   4.998   6.371   5.190 -0.3945  0.0709 -0.1918
   86MOL    H9822368   5.143   6.153   4.869  0.3075 -0.2645  0.2744
   86MOL    H9922369   5.318   6.161   4.836  0.7632  1.9099  1.6226
   86MOL   H10022370   5.221   6.065   5.114 -1.9576  0.2738 -1.8191
   86MOL   H10122371   5.107   6.205   5.255 -3.5421  0.1906  1.1711
   86MOL   H10222372   5.016   6.170   5.099 -0.6780  0.2196  0.3175
   86MOL   H10322373   4.977   6.415   5.093 -0.8550  0.5318  0.1170
   86MOL   H10422374   4.913   6.340   5.251  1.5464 -0.8458  2.1423
   86MOL   H10522375   5.057   6.436   5.256  0.7640  0.0353 -1.1691
   86MOL   C10622376   5.409   6.171   5.078 -0.1437  0.1284 -0.6529
   86MOL   C10722377   5.446   6.209   5.220 -0.1874  0.5345  0.0915
   86MOL   O10822378   5.583   6.239   5.241 -0.2212 -0.2440  0.4780
   86MOL   C10922379   5.624   6.374   5.227 -0.3160  0.2614  0.0443
   86MOL   C11022380   5.598   6.463   5.350  0.1773 -0.4870  0.4573
   86MOL   H11122381   5.435   6.253   5.011  0.1402  0.9031  0.4061
   86MOL   H11222382   5.477   6.092   5.047 -0.2840 -0.6037  0.8585
   86MOL   H11322383   5.388   6.300   5.233  0.0650  0.5099  1.4806
   86MOL   H11422384   5.587   6.418   5.135 -0.5082 -0.9073 -0.4320
   86MOL   H11522385   5.732   6.373   5.211 -0.6179  2.0871 -2.3825
   86MOL   H11622386   5.495   6.494   5.371  0.1783 -0.1134 -0.0837
   86MOL   H11722387   5.642   6.415   5.437 -0.4072  2.1330  2.2673
   86MOL   H11822388   5.651   6.557   5.337 -0.2175 -0.7537 -4.0941
   86MOL   C11922389   5.409   6.095   5.316 -0.3299  0.0766 -0.3198
   86MOL   C12022390   5.424   6.131   5.464 -0.1130  0.6624  0.1754
   86MOL   O12122391   5.482   6.032   5.547 -0.2708 -0.2710 -0.6005
   86MOL   C12222392   5.621   6.034   5.550  0.2829 -0.3451  0.5041
   86MOL   C12322393   5.662   5.937   5.652  0.4601 -0.1381 -1.0745
   86MOL   H12422394   5.478   6.012   5.304 -0.6308 -0.3185  0.6275
   86MOL   H12522395   5.313   6.046   5.297 -0.6012  0.5790 -0.2429
   86MOL   H12622396   5.493   6.216   5.470  2.6355 -1.4665 -0.2308
   86MOL   H12722397   5.645   6.133   5.589  0.7630  0.4078 -1.6293
   86MOL   H12822398   5.648   6.017   5.446 -1.3606 -0.8066  0.1509
   86MOL   H12922399   5.616   5.957   5.749 -1.5477 -0.8856 -1.8432
   86MOL   H13022400   5.629   5.836   5.629  1.4057 -0.2797 -1.8231
   86MOL   H13122401   5.770   5.940   5.664  0.1435  2.3943  1.6887
   86MOL   C13222402   5.301   6.192   5.523 -0.2483  0.1773  0.0589
   86MOL   C13322403   5.304   6.249   5.672 -0.2826  0.4567  0.0584
   86MOL   O13422404   5.169   6.227   5.718 -0.6298  0.3507  0.2125
   86MOL   C13522405   5.168   6.113   5.803 -0.1767 -0.7755 -0.6522
   86MOL   C13622406   5.023   6.061   5.834  0.7398 -0.5409 -0.1637
   86MOL   H13722407   5.235   6.105   5.516 -0.2063  0.1583 -0.1022
   86MOL   H13822408   5.257   6.272   5.463 -1.6912  0.3159  1.2709
   86MOL   H13922409   5.382   6.194   5.725  0.3049  1.4821  0.2945
   86MOL   H14022410   5.215   6.138   5.898 -1.9248 -0.6282  0.1969
   86MOL   H14122411   5.241   6.040   5.770  0.5832 -0.6936  0.8143
   86MOL   H14222412   5.009   5.963   5.880 -0.2940  0.0032  0.7011
   86MOL   H14322413   4.968   6.135   5.892 -0.8417 -0.5214 -1.6692
   86MOL   H14422414   4.963   6.056   5.744 -1.4032 -0.8107  1.2546
   86MOL   C14522415   5.334   6.398   5.680 -0.9118 -0.3055 -0.4835
   86MOL   C14622416   5.337   6.454   5.824  0.0924  0.2000 -0.4093
   86MOL   O14722417   5.350   6.593   5.807  0.3977 -0.3481 -0.3666
   86MOL   C14822418   5.287   6.667   5.913 -0.2054 -0.9716  0.3208
   86MOL   C14922419   5.140   6.702   5.878 -0.2890 -0.0337 -0.1139
   86MOL   H15022420   5.253   6.460   5.640  0.6999  1.2204 -1.4605
   86MOL   H15122421   5.423   6.428   5.624 -0.4317 -0.7981  0.0159
   86MOL   H15222422   5.240   6.428   5.868  0.4835 -0.6040 -0.0066
   86MOL   H15322423   5.336   6.765   5.907 -0.2159 -0.9614  0.3954
   86MOL   H15422424   5.299   6.628   6.014 -3.3707  1.5388  1.7610
   86MOL   H15522425   5.101   6.771   5.953 -0.9550 -0.2031 -0.2980
   86MOL   H15622426   5.124   6.750   5.782  0.5086  0.8447  0.1825
   86MOL   H15722427   5.079   6.611   5.874 -0.9376  0.4339 -0.8567
   86MOL   C15822428   5.453   6.398   5.922  0.4491 -0.2146  0.2081
   86MOL   C15922429   5.596   6.407   5.876 -0.7376  0.1605 -0.6434
   86MOL   O16022430   5.665   6.317   5.959  0.1950 -0.7275 -0.2498
   86MOL   C16122431   5.754   6.215   5.910 -0.4978  0.4413  0.3004
   86MOL   C16222432   5.787   6.117   6.020  0.0763  0.0241 -0.0989
   86MOL   H16322433   5.420   6.294   5.926  2.1544 -0.8261 -0.8918
   86MOL   H16422434   5.440   6.438   6.023  0.8654 -0.7067  0.4633
   86MOL   H16522435   5.603   6.363   5.777  0.9824  0.9080 -0.8716
   86MOL   H16622436   5.849   6.259   5.879 -0.5478  1.3754  1.4307
   86MOL   H16722437   5.730   6.154   5.823 -1.9725  1.5639 -0.0963
   86MOL   H16822438   5.818   6.166   6.113  1.2182  0.3488 -0.6392
   86MOL   H16922439   5.704   6.047   6.036 -0.4933  1.0133  1.4695
   86MOL   H17022440   5.875   6.056   5.999  0.3325  0.2411  0.3320
   86MOL   C17122441   5.666   6.547   5.876  0.2189  0.4237  0.0591
   86MOL   C17222442   5.808   6.556   5.823 -0.0271  0.1500 -0.0794
   86MOL   O17322443   5.850   6.697   5.826  0.2460 -0.0273 -0.3569
   86MOL   C17422444   5.892   6.757   5.951  0.2540  0.0942  0.8053
   86MOL   C17522445   5.961   6.891   5.919  0.5150 -0.0315 -0.2281
   86MOL   H17622446   5.672   6.595   5.974  1.3025 -0.9179  0.6588
   86MOL   H17722447   5.600   6.612   5.819  0.6595  0.6640 -0.1800
   86MOL   H17822448   5.878   6.504   5.888 -1.2113 -0.3045  0.8525
   86MOL   H17922449   5.962   6.693   6.003 -0.2329 -0.7330  0.4448
   86MOL   H18022450   5.815   6.779   6.025 -0.2395 -0.4081  0.4434
   86MOL   H18122451   5.901   6.956   5.855  0.4868 -1.1679 -1.3886
   86MOL   H18222452   5.976   6.945   6.012 -0.0531  0.9530 -0.7060
   86MOL   H18322453   6.061   6.866   5.884  0.0231  0.0977 -1.7783
   86MOL   C18422454   5.828   6.507   5.681 -0.3426 -0.0260  0.0241
   86MOL   C18522455   5.966   6.555   5.627  0.1655  0.1047 -0.1076
   86MOL   O18622456   5.966   6.531   5.487  0.0110  0.3356  0.8086
   86MOL   C18722457   5.908   6.647   5.419  0.0067  0.2130 -0.7724
   86MOL   C18822458   5.917   6.628   5.273 -0.3266 -0.2056  0.0298
   86MOL   H18922459   5.744   6.549   5.626  0.0806  0.3546 -0.3416
   86MOL   H19022460   5.810   6.400   5.677 -0.7239  0.0266  0.3138
   86MOL   H19122461   5.973   6.663   5.640  1.4629  0.0683 -0.4057
   86MOL   H19222462   5.952   6.743   5.445 -1.7810  0.0838  3.1544
   86MOL   H19322463   5.805   6.657   5.452  0.6655 -1.5040  2.0321
   86MOL   H19422464   5.840   6.674   5.211 -0.9745 -0.1754  0.8457
   86MOL   H19522465   6.009   6.668   5.230 -0.4560  0.2051  0.1358
   86MOL   H19622466   5.924   6.522   5.251 -1.3782 -0.2812  0.0603
   86MOL   C19722467   6.092   6.499   5.688  0.2176 -0.7265  0.1501
   86MOL   C19822468   6.127   6.353   5.667 -0.5056  0.4962  0.2495
   86MOL   O19922469   6.222   6.314   5.766  0.2067 -0.1566  0.3002
   86MOL   C20022470   6.172   6.263   5.889  0.9103 -0.1210 -0.3642
   86MOL   C20122471   6.293   6.216   5.973 -0.4580  0.4162  0.4414
   86MOL   H20222472   6.087   6.527   5.793 -0.6123 -2.0936  0.4852
   86MOL   H20322473   6.170   6.560   5.643 -1.7116  1.6215 -0.0885
   86MOL   H20422474   6.033   6.297   5.673  0.8734 -2.0318 -0.8895
   86MOL   H20522475   6.095   6.188   5.870 -3.5860  3.9306  0.9514
   86MOL   H20622476   6.134   6.347   5.947  3.6639  0.6112  0.4658
   86MOL   H20722477   6.334   6.127   5.924 -3.1309 -0.2485 -0.6522
   86MOL   H20822478   6.377   6.285   5.968 -1.4063  1.6324  1.2724
   86MOL   H20922479   6.276   6.209   6.080 -0.7796  2.4709  0.5406
   86MOL   C21022480   6.191   6.324   5.533  0.7437  0.4139 -0.3698
   86MOL   C21122481   6.187   6.176   5.482 -0.4516  0.2775  0.2809
   86MOL   O21222482   6.062   6.111   5.471 -0.2234  0.2021 -0.0791
   86MOL   C21322483   5.955   6.160   5.386 -0.2128 -0.2283 -0.2854
   86MOL   C21422484   5.999   6.213   5.251 -0.3220 -0.2018  0.0442
   86MOL   H21522485   6.287   6.375   5.536  0.7730  0.3142  0.4848
   86MOL   H21622486   6.140   6.377   5.453  1.7547 -1.1639 -2.1090
   86MOL   H21722487   6.230   6.179   5.382  1.4093 -1.8188  0.9593
   86MOL   H21822488   5.904   6.230   5.453  1.1346 -0.3244  0.8575
   86MOL   H21922489   5.881   6.082   5.366 -1.5691  1.3955 -1.8824
   86MOL   H22022490   6.065   6.146   5.197 -1.5446 -0.9806 -0.4974
   86MOL   H22122491   5.906   6.238   5.200 -0.3984 -1.3554 -0.3880
   86MOL   H22222492   6.057   6.305   5.255  0.6831 -0.8441  0.2484
   86MOL   C22322493   6.282   6.082   5.561  0.2814 -0.6588  0.1799
   86MOL   C22422494   6.434   6.106   5.540  0.4121  0.8380 -0.4226
   86MOL   O22522495   6.492   6.036   5.437  0.0000 -0.1793 -0.0056
   86MOL   C22622496   6.502   6.104   5.310  0.1565  0.8941 -0.2676
   86MOL   C22722497   6.617   6.043   5.225 -0.1066  0.7568  1.1786
   86MOL   H22822498   6.260   5.978   5.537  1.0623 -1.4097  2.5335
   86MOL   H22922499   6.259   6.106   5.665  0.1888 -2.5662  0.6142
   86MOL   H23022500   6.452   6.214   5.533  1.4657  0.8400  1.7637
   86MOL   H23122501   6.543   6.202   5.332 -1.3464  1.5796 -0.5103
   86MOL   H23222502   6.409   6.120   5.257  0.4824  0.3987 -0.9926
   86MOL   H23322503   6.706   6.027   5.286  0.4794 -0.8054 -0.0391
   86MOL   H23422504   6.595   5.942   5.189 -0.1332  1.3475 -0.4558
   86MOL   H23522505   6.638   6.099   5.134 -2.9137 -0.8707 -0.5517
   86MOL   C23622506   6.518   6.059   5.664  0.5928 -1.0294  0.2423
   86MOL   C23722507   6.485   5.918   5.729  0.4811  0.5452  0.3567
   86MOL   O23822508   6.575   5.874   5.832 -0.0799  0.3022 -0.1957
   86MOL   C23922509   6.595   5.960   5.940 -0.6166  0.2287 -1.0020
   86MOL   C24022510   6.663   5.875   6.045 -0.3087  0.2848 -0.8845
   86MOL   H24122511   6.507   6.133   5.744 -1.0132 -1.0710  0.0818
   86MOL   H24222512   6.621   6.076   5.634  0.1873  1.6468  0.1916
   86MOL   H24322513   6.390   5.928   5.781  1.0934 -0.4453  1.7102
   86MOL   H24422514   6.498   5.986   5.981 -1.3585 -0.9775 -1.9411
   86MOL   H24522515   6.657   6.040   5.901  0.1459 -1.8563 -4.2059
   86MOL   H24622516   6.682   5.942   6.129  0.6222  0.8417 -1.5282
   86MOL   H24722517   6.595   5.796   6.076 -0.1084  0.1157 -0.8804
   86MOL   H24822518   6.758   5.839   6.004  0.2956  1.9305 -0.9852
   86MOL   C24922519   6.482   5.804   5.623  0.1184  0.1523 -0.1688
   86MOL   C25022520   6.466   5.658   5.680 -0.2104 -1.4504 -0.3712
   86MOL   O25122521   6.442   5.572   5.568  0.3431 -0.3031 -0.3794
   86MOL   C25222522   6.405   5.432   5.590 -0.8020  0.5186 -0.6415
   86MOL   C25322523   6.392   5.362   5.460 -0.0183  0.4291 -0.4859
   86MOL   H25422524   6.577   5.806   5.570  1.0882 -1.0516  1.4635
   86MOL   H25522525   6.403   5.821   5.551 -0.1708  1.9983  0.5468
   86MOL   H25622526   6.559   5.635   5.733  0.0063 -2.5443 -1.2059
   86MOL   H25722527   6.318   5.431   5.656  0.8725  3.0811  1.7012
   86MOL   H25822528   6.488   5.386   5.644 -0.9642  0.4929 -0.4142
   86MOL   H25922529   6.488   5.364   5.407  0.4758 -0.2799  0.3665
   86MOL   H26022530   6.365   5.259   5.483  0.6695  1.0389  3.4314
   86MOL   H26122531   6.315   5.409   5.400 -1.3214  0.6697  1.3381
   86MOL   H26222532   6.376   5.658   5.740 -1.3731 -0.3378 -2.0714
   87MOL     C122533   4.144   2.059   6.084 -0.4705 -0.5940 -1.0018
   87MOL     C222534   4.003   2.121   6.113 -0.0881 -0.2885  0.0654
   87MOL     O322535   3.960   2.159   5.984 -0.0770 -0.3250 -0.1970
   87MOL     C422536   3.823   2.162   5.967 -0.1267 -0.3584 -0.0546
   87MOL     C522537   3.795   2.239   5.833 -0.1074 -0.0322  0.5105
   87MOL     H622538   4.202   2.013   6.164 -0.1902 -0.5695 -1.1917
   87MOL     H722539   4.130   1.985   6.005  0.0690 -2.7053  0.8004
   87MOL     H822540   3.944   2.040   6.157 -1.0159  0.6554  0.5866
   87MOL     H922541   3.777   2.204   6.057  1.1352  0.5920  0.1565
   87MOL    H1022542   3.802   2.055   5.963 -1.6188 -0.1252  0.9481
   87MOL    H1122543   3.832   2.341   5.831  4.0171 -1.4546 -0.7991
   87MOL    H1222544   3.842   2.196   5.745  0.6712  1.4429  0.1989
   87MOL    H1322545   3.688   2.243   5.809 -0.2071 -0.7925  0.7928
   87MOL    H1422546   4.203   2.138   6.040  1.2797 -0.3820  1.6084
   87MOL    C1522547   4.002   2.241   6.204  0.6145  0.1419 -0.4845
   87MOL    C1622548   4.086   2.248   6.326  0.3494  0.8764  0.2943
   87MOL    O1722549   4.035   2.143   6.405  0.1957 -0.2034 -0.3285
   87MOL    C1822550   4.138   2.097   6.493  0.2338  0.3743  0.7711
   87MOL    C1922551   4.075   1.976   6.562  0.9098 -0.5487  0.4874
   87MOL    H2022552   3.898   2.264   6.225  0.0405 -0.4095 -2.6279
   87MOL    H2122553   4.041   2.316   6.136 -0.8021 -1.4026 -3.0798
   87MOL    H2222554   4.188   2.223   6.296  0.6381 -0.5072  2.3119
   87MOL    H2322555   4.153   2.170   6.572  0.1088 -1.1066  2.2032
   87MOL    H2422556   4.233   2.069   6.448  1.3777 -0.0921  3.4417
   87MOL    H2522557   4.132   1.936   6.646 -0.9479  1.2929  2.6640
   87MOL    H2622558   4.062   1.896   6.488  0.4167  0.3201 -0.3717
   87MOL    H2722559   3.978   1.993   6.608  0.5573 -0.2698 -0.3539
   87MOL    C2822560   4.065   2.385   6.413  0.3063  0.1632 -0.0349
   87MOL    C2922561   4.098   2.511   6.342 -0.8077  0.1689 -0.0950
   87MOL    O3022562   4.243   2.503   6.328  0.0878 -0.3175  0.1797
   87MOL    C3122563   4.306   2.601   6.249  0.4301  1.0171 -0.4291
   87MOL    C3222564   4.449   2.559   6.223 -0.9677 -0.4463  0.1163
   87MOL    H3322565   4.133   2.377   6.498  1.2984 -2.2157 -1.0118
   87MOL    H3422566   3.964   2.378   6.454  0.3024 -1.4624 -0.3044
   87MOL    H3522567   4.042   2.513   6.248  1.8462 -1.2262 -1.7899
   87MOL    H3622568   4.295   2.698   6.296  1.2253  0.4656  0.9058
   87MOL    H3722569   4.256   2.601   6.152 -0.0436  0.7025 -0.1891
   87MOL    H3822570   4.464   2.475   6.156  0.5039  0.5406 -0.8014
   87MOL    H3922571   4.498   2.645   6.177 -0.5140 -1.9187 -2.2126
   87MOL    H4022572   4.503   2.536   6.315 -1.7117 -0.2110  0.6232
   87MOL    C4122573   4.057   2.637   6.426  0.5500 -0.6686  0.2274
   87MOL    C4222574   3.899   2.667   6.440  0.5314  0.3105  0.7575
   87MOL    O4322575   3.844   2.701   6.312  0.3294 -0.1580  0.3135
   87MOL    C4422576   3.714   2.651   6.285 -0.0880 -0.5319 -0.0977
   87MOL    C4522577   3.713   2.500   6.268 -0.0029  0.7018 -0.3500
   87MOL    H4622578   4.095   2.728   6.380  0.8569 -0.4174  0.9744
   87MOL    H4722579   4.100   2.630   6.526 -0.3413 -0.4074  0.6343
   87MOL    H4822580   3.851   2.582   6.490  3.0475 -2.0790 -0.7282
   87MOL    H4922581   3.662   2.712   6.211 -1.8980 -1.3452  0.4822
   87MOL    H5022582   3.652   2.675   6.372  0.0655  0.2433 -0.1918
   87MOL    H5122583   3.810   2.464   6.235 -0.3132 -2.0350  1.6277
   87MOL    H5222584   3.690   2.449   6.361  1.6572 -2.4434 -1.6033
   87MOL    H5322585   3.627   2.468   6.208 -0.0942 -2.5596  1.4102
   87MOL    C5422586   3.869   2.782   6.531  0.0238 -0.0197 -0.3018
   87MOL    C5522587   3.864   2.750   6.684  0.6663  0.0531  0.9590
   87MOL    O5622588   3.722   2.723   6.703  0.3021 -0.5850 -0.0343
   87MOL    C5722589   3.690   2.594   6.750  0.3907 -0.3766  0.4524
   87MOL    C5822590   3.544   2.586   6.751  0.1075 -0.0386 -0.1339
   87MOL    H5922591   3.776   2.834   6.508  0.3673  0.1569 -1.3218
   87MOL    H6022592   3.953   2.849   6.515 -1.4524  1.9220 -0.0331
   87MOL    H6122593   3.929   2.667   6.710  0.8061 -0.0906  0.1548
   87MOL    H6222594   3.738   2.568   6.844  2.7200  0.5057 -0.4602
   87MOL    H6322595   3.737   2.530   6.675  1.5791  1.4508 -0.4193
   87MOL    H6422596   3.526   2.630   6.848 -1.2498  3.1691 -1.7614
   87MOL    H6522597   3.482   2.644   6.683  0.7767  0.6646 -0.1461
   87MOL    H6622598   3.487   2.493   6.755  1.7078 -1.0549 -0.1048
   87MOL    C6722599   3.881   2.866   6.783 -0.3801 -0.4013  0.1343
   87MOL    C6822600   4.023   2.892   6.818  0.3756 -0.4509  0.1227
   87MOL    O6922601   4.077   2.780   6.890 -0.2392 -0.3215  0.6785
   87MOL    C7022602   4.206   2.740   6.847 -0.0096 -0.7549  0.0458
   87MOL    C7122603   4.227   2.609   6.932 -0.1520  0.1622  0.0091
   87MOL    H7222604   3.815   2.844   6.867 -0.1211  2.0779  1.0130
   87MOL    H7322605   3.836   2.953   6.737  0.5644  0.2086  0.3476
   87MOL    H7422606   4.077   2.909   6.725  0.9005 -3.0266 -0.0886
   87MOL    H7522607   4.281   2.815   6.869  2.2053 -3.2852  1.3424
   87MOL    H7622608   4.202   2.721   6.739 -1.0250 -0.3574  0.0044
   87MOL    H7722609   4.322   2.557   6.917  0.7237  1.2454  1.6483
   87MOL    H7822610   4.220   2.635   7.038 -0.1580  1.2343 -0.2511
   87MOL    H7922611   4.152   2.536   6.905  0.4994 -1.3987  2.2822
   87MOL    C8022612   4.038   3.022   6.898 -0.0265  0.1332  0.3350
   87MOL    C8122613   3.963   3.037   7.029  0.2378  0.9236 -0.0096
   87MOL    O8222614   3.999   3.167   7.078 -0.4856 -0.0289 -0.3066
   87MOL    C8322615   3.919   3.273   7.048 -0.3476  0.2819  0.1947
   87MOL    C8422616   3.968   3.399   7.126  0.0273 -0.6494  0.2541
   87MOL    H8522617   4.007   3.098   6.826  0.2615 -0.5620 -0.5219
   87MOL    H8622618   4.143   3.047   6.914  0.9648 -2.3462 -2.0170
   87MOL    H8722619   3.855   3.023   7.029  0.3804 -0.2137  0.6610
   87MOL    H8822620   3.820   3.254   7.088 -0.8258  1.5410 -0.3685
   87MOL    H8922621   3.914   3.298   6.942  0.5273 -0.3865 -0.0090
   87MOL    H9022622   4.068   3.428   7.090  0.4279 -1.5826  0.6070
   87MOL    H9122623   3.899   3.483   7.119  1.9140  1.0703  1.4515
   87MOL    H9222624   3.965   3.379   7.233  1.5198  0.5445  0.5356
   87MOL    C9322625   4.010   2.936   7.142 -0.6242  0.7757 -0.3752
   87MOL    C9422626   3.909   2.816   7.168 -0.0529 -0.4340 -0.0096
   87MOL    O9522627   3.800   2.865   7.243 -0.1885 -0.1230  1.0170
   87MOL    C9622628   3.676   2.802   7.217  0.6232 -0.1453 -1.0966
   87MOL    C9722629   3.568   2.922   7.205 -0.5590 -0.1733  0.4258
   87MOL    H9822630   4.046   2.992   7.228  1.1725  1.0631 -1.3038
   87MOL    H9922631   4.106   2.901   7.104 -0.6802 -0.7604  0.7988
   87MOL   H10022632   3.876   2.783   7.070 -0.7196  1.2989 -0.3941
   87MOL   H10122633   3.662   2.724   7.293  0.2305  1.0356  0.0708
   87MOL   H10222634   3.665   2.757   7.119 -1.8294 -1.6557 -0.1937
   87MOL   H10322635   3.611   3.002   7.145  1.4358 -1.8190 -0.4198
   87MOL   H10422636   3.478   2.893   7.152 -0.1293 -0.7182 -0.0059
   87MOL   H10522637   3.554   2.961   7.306 -0.0719 -1.8439  1.1585
   87MOL   C10622638   3.982   2.704   7.240 -0.5118  0.2193 -1.2381
   87MOL   C10722639   3.916   2.574   7.262 -1.1825  0.4289  0.3436
   87MOL   O10822640   3.998   2.474   7.321 -0.1115 -0.1787  0.1980
   87MOL   C10922641   4.022   2.484   7.459  0.1395 -0.8251  1.0828
   87MOL   C11022642   4.092   2.355   7.484 -0.8382 -0.1436  0.2700
   87MOL   H11122643   4.011   2.746   7.336  0.7159  0.9536 -1.9138
   87MOL   H11222644   4.068   2.679   7.177 -0.6097 -0.4907 -1.0898
   87MOL   H11322645   3.834   2.602   7.328 -2.1640  0.7588 -1.0117
   87MOL   H11422646   3.937   2.505   7.524 -1.0781 -0.7488 -0.4897
   87MOL   H11522647   4.093   2.565   7.468  0.1954 -0.8868  1.1925
   87MOL   H11622648   4.027   2.272   7.456  0.6936 -1.2001 -0.2353
   87MOL   H11722649   4.193   2.344   7.443 -0.8316  0.7401  0.0514
   87MOL   H11822650   4.117   2.345   7.589  0.6648  1.9870  0.1481
   87MOL   C11922651   3.874   2.515   7.130 -0.8598 -0.6492 -0.3309
   87MOL   C12022652   3.818   2.377   7.133  0.2373  0.1022 -0.4544
   87MOL   O12122653   3.801   2.342   6.994  0.0953 -0.0778 -0.2606
   87MOL   C12222654   3.918   2.279   6.952  0.2478  1.0166  0.8265
   87MOL   C12322655   3.884   2.203   6.829 -0.3536 -0.3264 -0.3373
   87MOL   H12422656   3.967   2.510   7.074 -1.4267 -2.0377 -1.1739
   87MOL   H12522657   3.808   2.582   7.076 -2.7377 -0.9663  1.5270
   87MOL   H12622658   3.880   2.305   7.187  0.3001 -0.6590 -1.5291
   87MOL   H12722659   3.960   2.203   7.017  1.4329 -0.7800 -1.9416
   87MOL   H12822660   3.993   2.354   6.926  0.9877 -0.5680 -1.8548
   87MOL   H12922661   3.830   2.257   6.752 -0.2389 -1.0774 -0.9464
   87MOL   H13022662   3.970   2.155   6.783  0.0110  0.7023 -0.7309
   87MOL   H13122663   3.816   2.121   6.854 -1.7837  1.2031  0.9569
   87MOL   C13222664   3.685   2.365   7.205  0.3537 -0.7187  0.3618
   87MOL   C13322665   3.658   2.223   7.272 -0.8434 -0.5074  0.5397
   87MOL   O13422666   3.657   2.124   7.173 -0.2769  0.2586  0.2552
   87MOL   C13522667   3.762   2.030   7.191 -0.8503  0.2324  0.1962
   87MOL   C13622668   3.738   1.916   7.093  0.4366  0.2688 -0.0395
   87MOL   H13722669   3.613   2.391   7.127  1.7337  1.9293 -0.0703
   87MOL   H13822670   3.662   2.448   7.272  0.6172 -0.0540 -0.3693
   87MOL   H13922671   3.733   2.203   7.348 -1.9015  0.8003  1.9409
   87MOL   H14022672   3.752   1.998   7.295 -0.7253  1.8123  0.6985
   87MOL   H14122673   3.863   2.069   7.177 -0.1212 -1.8729 -0.6641
   87MOL   H14222674   3.737   1.949   6.989  1.9241  0.9131  0.1370
   87MOL   H14322675   3.823   1.851   7.115  0.5850  0.3226 -0.4361
   87MOL   H14422676   3.645   1.865   7.118  0.7229  0.2291  0.9647
   87MOL   C14522677   3.529   2.214   7.359  0.2500  0.1485  0.0378
   87MOL   C14622678   3.499   2.311   7.474  0.9415  0.7455  0.0466
   87MOL   O14722679   3.473   2.445   7.438 -0.0298 -0.4028  0.5164
   87MOL   C14822680   3.346   2.472   7.372  0.9308 -0.9615 -0.0069
   87MOL   C14922681   3.367   2.617   7.309 -0.2952 -0.0090  0.2014
   87MOL   H15022682   3.522   2.108   7.384  0.6859  0.2470  0.5842
   87MOL   H15122683   3.448   2.223   7.286  2.7533  1.5926 -2.6772
   87MOL   H15222684   3.408   2.274   7.522  0.0019  2.9432 -0.0221
   87MOL   H15322685   3.258   2.476   7.436  1.7738  2.3057  1.0186
   87MOL   H15422686   3.328   2.394   7.297 -1.4432 -0.6925  0.2495
   87MOL   H15522687   3.431   2.629   7.222 -0.7806 -1.7186 -0.4033
   87MOL   H15622688   3.273   2.666   7.284  0.2859 -0.6718 -3.5808
   87MOL   H15722689   3.421   2.684   7.377 -0.1595 -0.9105  0.9991
   87MOL   C15822690   3.609   2.313   7.583  0.0759 -0.0576 -0.0961
   87MOL   C15922691   3.551   2.383   7.708 -0.7439 -0.7038 -0.1044
   87MOL   O16022692   3.635   2.488   7.765  0.1517  0.2664 -0.0402
   87MOL   C16122693   3.644   2.610   7.690  0.6815 -0.5526  0.2864
   87MOL   C16222694   3.691   2.737   7.767  0.3907 -0.1679  0.2377
   87MOL   H16322695   3.689   2.376   7.545 -1.7513  1.5954 -1.3003
   87MOL   H16422696   3.649   2.216   7.614  0.8745  0.1756 -0.4088
   87MOL   H16522697   3.459   2.431   7.676 -0.5451  0.5610  1.1372
   87MOL   H16622698   3.544   2.641   7.661  0.4911 -0.0191  1.4773
   87MOL   H16722699   3.711   2.584   7.608  1.2641 -0.4816  0.7271
   87MOL   H16822700   3.632   2.751   0.015  1.7526 -0.2716  1.1536
   87MOL   H16922701   3.797   2.728   7.788  0.7420 -1.5153 -2.0052
   87MOL   H17022702   3.683   2.831   7.714  0.5897 -0.9364 -1.1650
   87MOL   C17122703   3.523   2.281   7.827  0.7107  0.3420  0.2361
   87MOL   C17222704   3.438   2.341   0.100  0.1082 -0.4068 -0.5496
   87MOL   O17322705   3.321   2.406   0.048  0.1839 -0.1084  0.0301
   87MOL   C17422706   3.206   2.416   0.129  0.1421 -0.2477 -0.0744
   87MOL   C17522707   3.131   2.535   0.079 -0.4611 -0.6625  0.2110
   87MOL   H17622708   3.621   2.252   0.022  0.8430 -0.1817 -0.5034
   87MOL   H17722709   3.470   2.196   7.785  1.5021 -0.4602  0.8582
   87MOL   H17822710   3.393   2.255   0.152 -1.6992 -0.8349 -2.7611
   87MOL   H17922711   3.229   2.445   0.232  0.0061  1.8725 -0.6156
   87MOL   H18022712   3.149   2.324   0.135  0.6398 -0.5013  0.8369
   87MOL   H18122713   3.188   2.627   0.095  0.2078 -0.9416 -0.5698
   87MOL   H18222714   3.114   2.542   7.815  2.2523  2.2937 -0.1178
   87MOL   H18322715   3.039   2.552   0.135 -0.2370  1.6657 -0.0626
   87MOL   C18422716   3.528   2.431   0.197  0.2335  0.0100 -0.4838
   87MOL   C18522717   3.659   2.372   0.254 -0.2098 -0.3539 -0.6315
   87MOL   O18622718   3.632   2.259   0.330 -0.2431  0.4296  0.1131
   87MOL   C18722719   3.719   2.146   0.295 -0.2232  0.3838 -0.3403
   87MOL   C18822720   3.673   2.010   0.357 -0.3198 -0.4117  0.4626
   87MOL   H18922721   3.467   2.457   0.283  0.2779 -1.1372 -0.1097
   87MOL   H19022722   3.547   2.529   0.153 -0.6699  0.4762  0.1535
   87MOL   H19122723   3.729   2.346   0.175  1.0595 -1.5636  0.8670
   87MOL   H19222724   3.822   2.169   0.326  0.2964 -1.4368 -0.6870
   87MOL   H19322725   3.725   2.137   0.186 -1.2324 -0.9178 -0.2973
   87MOL   H19422726   3.634   2.044   0.453 -3.8248  1.8770 -1.6681
   87MOL   H19522727   3.589   1.964   0.304 -0.0317 -0.8440  0.3784
   87MOL   H19622728   3.753   1.936   0.368 -1.2671 -1.7357 -1.3468
   87MOL   C19722729   3.725   2.475   0.349 -0.2694  0.5562 -0.2826
   87MOL   C19822730   3.805   2.577   0.274 -0.8783  0.0089  0.2250
   87MOL   O19922731   3.925   2.512   0.234  0.6309 -0.5515  0.2769
   87MOL   C20022732   3.961   2.523   0.095  0.1131 -0.6795 -0.0238
   87MOL   C20122733   4.100   2.466   0.091 -0.7104 -0.0455 -0.6721
   87MOL   H20222734   3.786   2.426   0.424 -0.1831  0.2977 -0.5223
   87MOL   H20322735   3.657   2.529   0.415 -1.0610 -0.3567 -0.3405
   87MOL   H20422736   3.756   2.616   0.185  1.1784  0.0068 -0.9334
   87MOL   H20522737   3.980   2.624   0.058  0.9271 -0.3444  1.2690
   87MOL   H20622738   3.906   2.460   0.024  2.8266 -2.3905 -0.6790
   87MOL   H20722739   4.144   2.444   7.838 -0.7804 -1.0096 -0.4884
   87MOL   H20822740   4.170   2.540   0.133  0.1650 -1.2512  0.0190
   87MOL   H20922741   4.123   2.368   0.132  2.6683  1.2888  0.8385
   87MOL   C21022742   3.845   2.696   0.357  0.7267 -0.2634 -0.4359
   87MOL   C21122743   3.967   2.791   0.314  0.3005 -0.4447  0.3230
   87MOL   O21222744   4.003   2.873   0.424  0.0640 -0.0737  0.0654
   87MOL   C21322745   4.076   2.811   0.531 -0.3830  0.0443 -0.2693
   87MOL   C21422746   4.186   2.914   0.572  0.3793  0.2845  0.0846
   87MOL   H21522747   3.877   2.657   0.453  2.6227 -0.3374 -1.0761
   87MOL   H21622748   3.751   2.750   0.367  1.8436  1.0346  3.7926
   87MOL   H21722749   4.052   2.726   0.293  0.6637 -0.5529  2.0160
   87MOL   H21822750   4.115   2.717   0.493 -1.2739 -0.3876 -0.1482
   87MOL   H21922751   4.006   2.785   0.610 -2.1498 -0.1980 -1.8696
   87MOL   H22022752   4.258   2.860   0.633 -1.9136 -2.5199  0.4126
   87MOL   H22122753   4.219   2.967   0.483  2.2215  0.7638  1.0307
   87MOL   H22222754   4.141   2.994   0.631 -0.4320 -0.1578  0.0732
   87MOL   C22322755   3.932   2.890   0.202  0.2816  0.3315  0.3630
   87MOL   C22422756   4.055   2.960   0.142  0.6902 -1.1516  0.5237
   87MOL   O22522757   4.006   3.068   0.056  0.1006 -0.5981  0.0759
   87MOL   C22622758   4.037   3.192   0.110  0.2192 -0.2579  0.7273
   87MOL   C22722759   3.987   3.295   0.011  0.1445 -0.3359 -0.2722
   87MOL   H22822760   3.856   2.958   0.238 -0.0584  0.7503 -1.1370
   87MOL   H22922761   3.881   2.825   0.131  0.5823  0.2779  0.1942
   87MOL   H23022762   4.119   3.001   0.220  0.0052  0.4540  0.2446
   87MOL   H23122763   4.143   3.207   0.132  0.1433  3.6773 -1.1957
   87MOL   H23222764   3.994   3.209   0.209 -0.0402  1.9240  0.2661
   87MOL   H23322765   4.028   3.295   7.753 -1.8031  1.0875 -1.0781
   87MOL   H23422766   3.879   3.295   0.001  0.1544 -0.2644 -0.3754
   87MOL   H23522767   4.010   3.394   0.050  0.3973 -0.4272 -0.1825
   87MOL   C23622768   4.136   2.859   0.053 -0.3476 -0.3712  0.5527
   87MOL   C23722769   4.281   2.897   0.013 -0.2064 -0.1164 -0.0761
   87MOL   O23822770   4.329   2.797   7.768 -0.2894 -0.5602  0.0054
   87MOL   C23922771   4.387   2.844   7.648 -0.1896 -0.2096  0.4856
   87MOL   C24022772   4.366   2.731   7.543 -0.3917 -0.8157  0.4433
   87MOL   H24122773   4.078   2.828   7.809 -0.7530 -0.6365  0.9092
   87MOL   H24222774   4.151   2.764   0.106  1.5436  0.3772  1.4132
   87MOL   H24322775   4.265   2.991   7.804 -1.6968 -1.4772 -2.1305
   87MOL   H24422776   4.492   2.872   7.658 -0.1145 -0.1752 -0.3438
   87MOL   H24522777   4.336   2.935   7.616  1.2404 -0.5233 -2.9041
   87MOL   H24622778   4.397   2.771   7.446  1.8303  1.0223  1.8748
   87MOL   H24722779   4.416   2.636   7.555  0.7354 -0.2099  0.5912
   87MOL   H24822780   4.261   2.707   7.561 -1.1424  3.5592  2.6376
   87MOL   C24922781   4.384   2.931   0.118 -0.1210  0.0938  0.0624
   87MOL   C25022782   4.395   2.818   0.222 -0.1621 -0.7412  0.8385
   87MOL   O25122783   4.508   2.843   0.304 -0.5259 -0.4364 -0.1604
   87MOL   C25222784   4.500   2.755   0.416 -0.6052  0.0035 -0.3340
   87MOL   C25322785   4.624   2.783   0.505  0.2713 -0.0741  0.3498
   87MOL   H25422786   4.365   3.019   0.178 -0.9099 -0.1045  0.1066
   87MOL   H25522787   4.478   2.939   0.064  0.3381 -0.9497  0.6835
   87MOL   H25622788   4.299   2.816   0.273  0.1436 -1.6818  1.3959
   87MOL   H25722789   4.507   2.651   0.382  1.5113  0.1914 -0.5794
   87MOL   H25822790   4.407   2.780   0.467 -1.3997 -1.6868 -0.9153
   87MOL   H25922791   4.609   2.881   0.552 -0.1236 -0.0302  0.1349
   87MOL   H26022792   4.642   2.696   0.568  1.1762  0.7775  1.2973
   87MOL   H26122793   4.709   2.790   0.438 -0.3997  2.9177 -0.2649
   87MOL   H26222794   4.410   2.721   0.173 -0.7547 -0.7377  0.6412
   88MOL     C122795   5.055   7.549   1.099 -0.0476  0.4203  0.0363
   88MOL     C222796   4.918   7.501   1.042  0.1192  0.3266 -0.0359
   88MOL     O322797   4.824   7.609   1.032 -0.3361 -0.2572  0.2808
   88MOL     C422798   4.801   7.666   0.903  0.1719 -0.2971 -0.1106
   88MOL     C522799   4.708   7.785   0.922 -0.2368  0.0323 -0.7961
   88MOL     H622800   5.052   7.583   1.203  0.7815  2.5296 -0.6053
   88MOL     H722801   5.118   7.460   1.100 -1.1814 -0.4146 -1.2208
   88MOL     H822802   4.935   7.445   0.950 -1.1735 -0.3922  0.1457
   88MOL     H922803   4.739   7.596   0.847 -0.0170 -1.2100  1.2127
   88MOL    H1022804   4.893   7.695   0.853 -0.6564  2.8404  0.1138
   88MOL    H1122805   4.738   0.011   1.001 -3.1739 -0.4702  0.8356
   88MOL    H1222806   4.688   0.013   0.843  0.8222  0.9620 -0.2507
   88MOL    H1322807   4.610   7.749   0.951 -0.0679  1.0362  1.1107
   88MOL    H1422808   5.110   7.624   1.041 -1.2639 -0.0984 -1.8267
   88MOL    C1522809   4.857   7.390   1.131  0.7534 -0.1507  0.1390
   88MOL    C1622810   4.764   7.282   1.065 -0.7268  0.4183 -0.0616
   88MOL    O1722811   4.819   7.224   0.947 -1.1177 -0.0516 -0.2154
   88MOL    C1822812   4.925   7.130   0.982 -0.5426 -0.1812  0.3699
   88MOL    C1922813   4.961   7.059   0.851 -0.0729 -0.3315  0.0906
   88MOL    H2022814   4.808   7.436   1.217 -0.8605  0.9835 -1.3347
   88MOL    H2122815   4.944   7.340   1.173  0.5241 -0.4429  0.2598
   88MOL    H2222816   4.743   7.198   1.132  0.8712 -1.8036 -2.2861
   88MOL    H2322817   4.884   7.052   1.047 -3.1774  1.6421  0.9733
   88MOL    H2422818   5.003   7.197   1.018  1.6210 -1.9218 -0.9224
   88MOL    H2522819   5.038   6.985   0.872  1.2025  0.6168 -1.1110
   88MOL    H2622820   5.006   7.127   0.778  1.9067 -1.1242  0.5375
   88MOL    H2722821   4.874   7.002   0.819 -0.3445  0.6954 -1.0291
   88MOL    C2822822   4.637   7.351   1.003 -0.1393  0.0043 -0.1295
   88MOL    C2922823   4.505   7.271   1.024  0.3417 -0.1456  0.2098
   88MOL    O3022824   4.405   7.333   0.943  0.0344  0.3527  0.8480
   88MOL    C3122825   4.356   7.238   0.851  0.4498  0.4315 -0.0797
   88MOL    C3222826   4.225   7.293   0.788  0.0113 -0.6848  0.4926
   88MOL    H3322827   4.642   7.377   0.898 -1.5206 -1.5125 -0.6023
   88MOL    H3422828   4.614   7.452   1.038  1.6047  0.3548  0.0362
   88MOL    H3522829   4.534   7.168   1.004  0.1595 -0.3527  0.9823
   88MOL    H3622830   4.336   7.140   0.895  0.2053 -0.1113 -1.3883
   88MOL    H3722831   4.435   7.228   0.777 -0.1489  0.6663 -0.7481
   88MOL    H3822832   4.140   7.286   0.855 -0.4151 -0.1121  0.0244
   88MOL    H3922833   4.240   7.394   0.749 -0.2668 -1.8650 -2.8409
   88MOL    H4022834   4.206   7.237   0.696 -0.5595  0.7703 -0.2937
   88MOL    C4122835   4.458   7.286   1.167  0.4605 -0.2597  0.2743
   88MOL    C4222836   4.352   7.185   1.210 -0.6206  0.5959  0.4156
   88MOL    O4322837   4.283   7.231   1.323 -0.2063 -0.1287 -0.6455
   88MOL    C4422838   4.146   7.194   1.324  0.1170  0.3295 -0.1840
   88MOL    C4522839   4.071   7.254   1.445 -1.1440 -0.5340  0.3179
   88MOL    H4622840   4.420   7.386   1.188 -0.3766  0.2045 -3.1302
   88MOL    H4722841   4.537   7.275   1.240  1.2522  1.1972 -0.3425
   88MOL    H4822842   4.279   7.169   1.131 -0.0148 -2.0259  0.3556
   88MOL    H4922843   4.149   7.086   1.314 -0.7167  0.1631  1.3577
   88MOL    H5022844   4.102   7.239   1.235 -1.4175 -0.6017  0.0851
   88MOL    H5122845   4.082   7.362   1.456  0.9218 -0.7763  0.7960
   88MOL    H5222846   3.968   7.220   1.440 -0.5709 -2.0584 -1.2508
   88MOL    H5322847   4.112   7.223   1.542  3.6947 -0.3387 -1.5426
   88MOL    C5422848   4.408   7.053   1.254 -0.5348  0.7510 -0.3656
   88MOL    C5522849   4.412   6.936   1.152 -0.3204 -0.0903  0.0697
   88MOL    O5622850   4.284   6.896   1.131  0.0453  0.5846 -0.1920
   88MOL    C5722851   4.241   6.822   1.014  0.3847  0.3613  0.2466
   88MOL    C5822852   4.108   6.759   1.057 -0.0593  0.0070 -0.4829
   88MOL    H5922853   4.342   7.018   1.333 -1.1943 -0.7786 -1.5545
   88MOL    H6022854   4.506   7.081   1.292  0.2524 -0.2285 -1.6154
   88MOL    H6122855   4.451   6.960   1.054  0.6064 -0.8707  0.2349
   88MOL    H6222856   4.303   6.741   0.974  1.3839  1.0758  0.3228
   88MOL    H6322857   4.225   6.901   0.940  2.6052  1.5698  1.0137
   88MOL    H6422858   4.077   6.692   0.978 -1.2534  0.1611 -0.1467
   88MOL    H6522859   4.125   6.701   1.147 -1.4271  0.9219  0.3847
   88MOL    H6622860   4.024   6.826   1.072  0.1023  0.2046 -0.4466
   88MOL    C6722861   4.487   6.809   1.201 -0.7612 -0.1651 -0.2838
   88MOL    C6822862   4.636   6.822   1.242  0.2225 -0.2362 -0.5894
   88MOL    O6922863   4.706   6.703   1.205 -0.0264  0.3476 -0.7768
   88MOL    C7022864   4.799   6.722   1.105  0.6859  0.3070  0.1898
   88MOL    C7122865   4.859   6.585   1.071  0.2934 -0.1893 -0.0237
   88MOL    H7222866   4.480   6.732   1.125  0.3851 -0.3900 -0.1623
   88MOL    H7322867   4.437   6.774   1.292 -1.6436  1.0560 -0.2863
   88MOL    H7422868   4.674   6.909   1.188  1.3378 -1.2496 -1.4784
   88MOL    H7522869   4.884   6.779   1.142  0.8146 -0.4311  1.0375
   88MOL    H7622870   4.751   6.776   1.023  0.6548 -0.0604 -0.0378
   88MOL    H7722871   4.925   6.543   1.147 -0.5553 -1.1189  0.2174
   88MOL    H7822872   4.773   6.518   1.059 -1.7724  1.6756  3.5754
   88MOL    H7922873   4.916   6.579   0.978  2.1577  1.1884  1.0022
   88MOL    C8022874   4.657   6.842   1.395  0.2046  0.3149  0.6853
   88MOL    C8122875   4.798   6.899   1.433  0.2571 -0.8163  0.6396
   88MOL    O8222876   4.811   6.869   1.570 -0.1896 -0.0688 -0.6561
   88MOL    C8322877   4.869   6.736   1.598  0.0182  0.2561 -0.9634
   88MOL    C8422878   4.863   6.692   1.746 -0.2683 -0.8879 -0.1777
   88MOL    H8522879   4.643   6.740   1.431  0.7958 -0.2106 -0.5572
   88MOL    H8622880   4.570   6.894   1.435  0.5998  1.8082 -0.3319
   88MOL    H8722881   4.884   6.851   1.386 -1.6244 -1.2491 -2.4970
   88MOL    H8822882   4.974   6.742   1.568 -0.1248  2.6785 -1.0841
   88MOL    H8922883   4.831   6.663   1.527 -0.2257  1.2059 -1.8102
   88MOL    H9022884   4.886   6.774   1.814 -2.8685  0.7445 -1.1654
   88MOL    H9122885   4.767   6.653   1.780 -0.5006 -0.3674 -0.2287
   88MOL    H9222886   4.940   6.616   1.762 -0.0894 -0.9919 -1.4947
   88MOL    C9322887   4.806   7.055   1.418 -0.3841 -0.4089  0.2583
   88MOL    C9422888   4.947   7.114   1.447  0.5560  0.3570 -0.0207
   88MOL    O9522889   4.954   7.251   1.437  0.0942  0.2029 -0.1803
   88MOL    C9622890   4.943   7.329   1.560  0.1253  0.2514  0.0012
   88MOL    C9722891   5.007   7.465   1.536 -0.2703 -0.2989 -0.0434
   88MOL    H9822892   4.733   7.114   1.474 -0.7895 -1.4293  0.8081
   88MOL    H9922893   4.787   7.089   1.316  0.4088  1.1958  0.6197
   88MOL   H10022894   4.963   7.081   1.549  1.0272  1.7864  0.3810
   88MOL   H10122895   4.988   7.291   1.652  2.2589  0.4621 -0.9202
   88MOL   H10222896   4.839   7.342   1.592  0.1723 -0.7003  0.5667
   88MOL   H10322897   5.002   7.528   1.624  0.6830 -2.2841  1.4728
   88MOL   H10422898   5.109   7.443   1.505 -0.7164 -2.8625  0.2129
   88MOL   H10522899   4.960   7.525   1.458  0.9997 -0.8737 -1.2917
   88MOL   C10622900   5.060   7.066   1.353 -0.0683  0.0124  0.7798
   88MOL   C10722901   5.191   7.140   1.385 -0.4037 -0.2375 -0.6076
   88MOL   O10822902   5.272   7.069   1.293 -0.2643  0.3627 -0.0687
   88MOL   C10922903   5.298   7.124   1.168 -0.3284 -0.0774  0.5507
   88MOL   C11022904   5.369   7.012   1.093  0.1530  0.0567  0.3292
   88MOL   H11122905   5.040   7.094   1.249  0.3658 -2.8825 -0.1476
   88MOL   H11222906   5.075   6.958   1.363 -0.5306 -0.0474  0.8260
   88MOL   H11322907   5.187   7.247   1.365 -0.3565 -0.7137 -3.4974
   88MOL   H11422908   5.373   7.203   1.171  0.3444 -0.7007  0.3158
   88MOL   H11522909   5.205   7.144   1.116  1.6088 -1.4544 -3.6952
   88MOL   H11622910   5.358   7.021   0.985 -0.9265 -1.0999  0.3200
   88MOL   H11722911   5.473   6.999   1.121  0.2086 -1.0098 -0.3398
   88MOL   H11822912   5.324   6.913   1.107 -0.2017  0.1065 -0.4128
   88MOL   C11922913   5.256   7.098   1.524  0.3675  0.2326  0.0827
   88MOL   C12022914   5.401   7.142   1.550 -0.8256  0.4277 -0.3178
   88MOL   O12122915   5.453   7.074   1.667 -0.2018 -0.2276  0.0505
   88MOL   C12222916   5.558   6.991   1.634 -0.1110  0.1829 -0.1213
   88MOL   C12322917   5.638   6.951   1.764 -0.6246  0.3955 -0.0409
   88MOL   H12422918   5.240   6.991   1.539  0.2037  0.3246  0.5735
   88MOL   H12522919   5.204   7.138   1.611  2.2197  0.0937  1.2964
   88MOL   H12622920   5.463   7.126   1.462  1.8128 -2.5502  1.9779
   88MOL   H12722921   5.628   7.031   1.561  2.0634 -4.2211 -0.6459
   88MOL   H12822922   5.514   6.898   1.596  0.1272 -0.2622  0.6886
   88MOL   H12922923   5.698   7.036   1.797 -1.6061  1.0762  0.0310
   88MOL   H13022924   5.577   6.932   1.852 -1.9241  0.0940 -0.9992
   88MOL   H13122925   5.702   6.864   1.749 -0.2779  0.6515 -0.0475
   88MOL   C13222926   5.395   7.295   1.588  0.0285 -0.1160  0.3046
   88MOL   C13322927   5.527   7.370   1.619 -0.2436  0.0684 -1.2719
   88MOL   O13422928   5.488   7.500   1.664 -0.8391  0.5879  0.1646
   88MOL   C13522929   5.533   7.557   1.789 -0.0352 -0.2369  0.4614
   88MOL   C13622930   5.462   7.689   1.825  0.0045  0.1285 -0.5783
   88MOL   H13722931   5.319   7.319   1.662 -1.0569 -0.7039 -0.5916
   88MOL   H13822932   5.354   7.331   1.494  0.2609  0.1399  0.3031
   88MOL   H13922933   5.579   7.321   1.701 -2.0675  0.5068  0.1895
   88MOL   H14022934   5.638   7.585   1.786 -0.3034  0.7993  0.5335
   88MOL   H14122935   5.514   7.489   1.872  2.3719  0.1116  1.3233
   88MOL   H14222936   5.500   7.780   1.779  1.4597 -1.1527 -1.9476
   88MOL   H14322937   5.355   7.693   1.804  0.2408  0.4746 -1.7212
   88MOL   H14422938   5.477   7.709   1.932 -0.6692  3.1456 -1.0021
   88MOL   C14522939   5.622   7.380   1.500  0.1391 -0.1749 -0.4188
   88MOL   C14622940   5.764   7.437   1.522 -0.7785 -0.6139  0.0198
   88MOL   O14722941   5.790   7.477   1.387 -0.9255 -0.1877  0.4498
   88MOL   C14822942   5.807   7.618   1.360  0.4357  0.3608 -0.1728
   88MOL   C14922943   5.886   7.640   1.225  0.0079 -0.1246 -0.4476
   88MOL   H15022944   5.562   7.438   1.430 -0.9139 -0.0154  0.5963
   88MOL   H15122945   5.632   7.289   1.440  0.7620  0.0670 -0.6929
   88MOL   H15222946   5.762   7.513   1.600  0.0533  0.5128 -1.0451
   88MOL   H15322947   5.872   7.666   1.433  0.4417 -1.3015  0.9460
   88MOL   H15422948   5.707   7.661   1.353  0.6628  0.8846 -0.2577
   88MOL   H15522949   5.984   7.593   1.228 -0.3762 -0.8836  0.3486
   88MOL   H15622950   5.841   7.577   1.149 -1.9478  0.0495  0.5148
   88MOL   H15722951   5.899   7.743   1.192 -0.5377 -0.0653 -0.4831
   88MOL   C15822952   5.855   7.322   1.576 -1.1750 -0.1766 -0.0294
   88MOL   C15922953   6.001   7.363   1.615 -0.3659  0.1211 -0.1781
   88MOL   O16022954   6.068   7.241   1.650 -0.1526  0.3069  0.2366
   88MOL   C16122955   6.144   7.196   1.544 -0.3688 -0.6386  1.0462
   88MOL   C16222956   6.182   7.046   1.568  0.1835 -0.4617  0.1000
   88MOL   H16322957   5.857   7.238   1.506 -1.2720  0.0358 -0.2863
   88MOL   H16422958   5.807   7.285   1.667  3.3953 -2.3598  1.6622
   88MOL   H16522959   6.041   7.398   1.520  1.1749 -0.6133  0.1927
   88MOL   H16622960   6.240   7.245   1.533 -1.5244  1.3163 -0.7483
   88MOL   H16722961   6.092   7.208   1.449  0.1560  1.9367  1.0566
   88MOL   H16822962   6.267   7.052   1.636 -0.3239  2.0254  0.5706
   88MOL   H16922963   6.111   6.993   1.631  0.7913  0.7792  1.8711
   88MOL   H17022964   6.218   6.989   1.483  2.8335  1.0545  0.1486
   88MOL   C17122965   6.003   7.445   1.742 -0.2538 -0.2674  0.2896
   88MOL   C17222966   6.140   7.473   1.804  0.2141  0.6449  0.3896
   88MOL   O17322967   6.113   7.508   1.940 -0.0561 -0.4815  0.1163
   88MOL   C17422968   6.090   7.400   2.037  0.6936  0.2021  0.4313
   88MOL   C17522969   6.091   7.454   2.179 -0.8141  0.5627  0.1014
   88MOL   H17622970   5.938   7.399   1.816 -0.6843 -0.5719 -0.2741
   88MOL   H17722971   5.955   7.543   1.733  1.1154  0.5228  1.3623
   88MOL   H17822972   6.185   7.374   1.804 -1.8073 -0.3069 -0.6347
   88MOL   H17922973   6.172   7.330   2.024  0.8023  0.4731 -0.3298
   88MOL   H18022974   5.993   7.351   2.026  0.6948  0.3853 -0.4148
   88MOL   H18122975   6.109   7.377   2.254  0.1342  0.9360  0.2599
   88MOL   H18222976   6.180   7.517   2.187 -0.3011 -0.0785 -0.4445
   88MOL   H18322977   5.993   7.499   2.192 -0.8132  1.3781 -2.4288
   88MOL   C18422978   6.220   7.580   1.726  0.4002 -0.3654 -0.2701
   88MOL   C18522979   6.375   7.555   1.742  0.2578  0.2885  0.3554
   88MOL   O18622980   6.409   7.566   1.881 -0.2479 -0.0851  0.1878
   88MOL   C18722981   6.508   7.482   1.936  0.5226  0.1595  0.0900
   88MOL   C18822982   6.459   7.344   1.966 -0.6863  1.2471 -0.1953
   88MOL   H18922983   6.185   7.680   1.752 -1.5020 -1.6934  2.5227
   88MOL   H19022984   6.191   7.569   1.621 -1.5298 -1.3711  0.3510
   88MOL   H19122985   6.392   7.450   1.717  1.3779  0.4267  0.4973
   88MOL   H19222986   6.534   7.523   2.033 -0.8602  0.2032  0.4417
   88MOL   H19322987   6.605   7.488   1.885  1.3228  0.7728  1.6498
   88MOL   H19422988   6.436   7.297   1.870  1.3509 -3.4565  1.4814
   88MOL   H19522989   6.525   7.273   2.015 -3.0184  0.3487  1.6900
   88MOL   H19622990   6.366   7.343   2.021 -1.4438  1.3502 -1.4544
   88MOL   C19722991   6.479   7.652   1.671 -0.0101  0.0568 -0.0323
   88MOL   C19822992   6.483   7.635   1.513 -0.2993  0.3430  0.2495
   88MOL   O19922993   6.356   7.662   1.452 -0.2660  0.4076 -0.3841
   88MOL   C20022994   6.313   7.791   1.427  0.4944 -0.1957  0.5309
   88MOL   C20122995   6.173   7.788   1.358  0.2698 -0.1015  0.7615
   88MOL   H20222996   6.577   7.634   1.716  1.4055  0.0052 -3.0295
   88MOL   H20322997   6.461   7.757   1.696 -0.3671  0.2887 -1.2419
   88MOL   H20422998   6.559   7.702   1.473 -0.9260  0.3674 -0.9215
   88MOL   H20522999   6.389   7.838   1.365 -0.2696 -0.4625 -0.6241
   88MOL   H20623000   6.296   7.842   1.522 -0.5661 -0.1381  0.3130
   88MOL   H20723001   6.093   7.731   1.406 -0.9682  0.5193 -0.5377
   88MOL   H20823002   6.144   0.048   1.341 -1.2131 -0.7885 -0.9882
   88MOL   H20923003   6.169   7.762   1.253  0.0399  1.3738  0.3866
   88MOL   C21023004   6.518   7.504   1.454  0.2048  0.0362 -0.9515
   88MOL   C21123005   6.665   7.454   1.497  0.1650  0.9939 -1.1294
   88MOL   O21223006   6.754   7.567   1.517 -0.5925  0.3709 -0.4254
   88MOL   C21323007   6.843   7.559   1.624 -0.3142  0.0578  0.0480
   88MOL   C21423008   6.924   7.687   1.627  0.7129 -0.7601 -0.7672
   88MOL   H21523009   6.504   7.513   1.346  2.3985  2.2389 -1.1009
   88MOL   H21623010   6.448   7.428   1.488 -0.1458  0.8323  0.1421
   88MOL   H21723011   6.663   7.403   1.594 -2.5352  1.3920 -0.9479
   88MOL   H21823012   6.904   7.470   1.609 -2.5598 -1.5453  0.1476
   88MOL   H21923013   6.792   7.550   1.720 -0.3781 -1.3216 -0.1067
   88MOL   H22023014   6.865   7.778   1.639 -0.5628 -1.8507  1.6326
   88MOL   H22123015   6.994   7.679   1.710 -1.3060  0.2377  1.0638
   88MOL   H22223016   6.991   7.706   1.543  0.6283  2.6573 -0.1217
   88MOL   C22323017   6.724   7.343   1.407 -0.5882  0.1779  0.6580
   88MOL   C22423018   6.652   7.206   1.406 -0.2502  0.2490  0.8557
   88MOL   O22523019   6.685   7.131   1.526  0.4251 -0.0842 -0.5126
   88MOL   C22623020   6.574   7.123   1.611  0.0824 -0.2914  0.4822
   88MOL   C22723021   6.609   7.062   1.750  0.3940 -1.0673  0.3827
   88MOL   H22823022   6.823   7.322   1.446 -0.1744 -2.4589 -1.5904
   88MOL   H22923023   6.730   7.373   1.302 -2.6013  3.7622  1.5139
   88MOL   H23023024   6.546   7.225   1.389  0.2479  0.5992 -1.9604
   88MOL   H23123025   6.490   7.070   1.567 -1.2673 -0.0021  2.6103
   88MOL   H23223026   6.526   7.220   1.612  0.4774 -0.0950  0.6083
   88MOL   H23323027   6.527   7.080   1.820 -1.4569 -1.0112 -1.7341
   88MOL   H23423028   6.649   6.961   1.748  1.1732 -0.7669  0.5072
   88MOL   H23523029   6.687   7.126   1.790 -0.9471 -0.5284  2.2546
   88MOL   C23623030   6.702   7.119   1.287 -0.7316  0.7580 -0.0622
   88MOL   C23723031   6.629   6.984   1.262  0.9169 -0.0846 -0.5909
   88MOL   O23823032   6.702   6.923   1.153 -0.3241 -0.0314 -0.5547
   88MOL   C23923033   6.773   6.813   1.188  0.4019  0.5474 -0.7640
   88MOL   C24023034   6.835   6.755   1.064  0.2788 -0.4218 -0.6803
   88MOL   H24123035   6.808   7.098   1.299 -0.6987 -0.0017 -1.5654
   88MOL   H24223036   6.698   7.173   1.193 -1.7297  1.5611  0.4276
   88MOL   H24323037   6.623   6.919   1.350 -0.3089  3.1479  1.8219
   88MOL   H24423038   6.711   6.741   1.241 -1.1681  1.7697 -0.9002
   88MOL   H24523039   6.849   6.848   1.257 -0.1667  1.3971 -0.5639
   88MOL   H24623040   6.764   6.708   0.997 -0.4643  0.3984 -0.4819
   88MOL   H24723041   6.898   6.830   1.017  0.5090 -0.5826 -0.6295
   88MOL   H24823042   6.911   6.684   1.096 -0.2625 -0.6216  0.1623
   88MOL   C24923043   6.487   7.004   1.206  0.0670  0.2645  0.2135
   88MOL   C25023044   6.417   6.866   1.192 -0.6537 -1.1466 -0.0841
   88MOL   O25123045   6.275   6.887   1.194 -0.3777  0.4420 -0.2829
   88MOL   C25223046   6.209   6.766   1.172 -0.5207  0.1768  0.1709
   88MOL   C25323047   6.063   6.788   1.163 -0.0103 -0.6469  0.3373
   88MOL   H25423048   6.475   7.070   1.121 -0.2259 -2.4819 -1.9674
   88MOL   H25523049   6.428   7.056   1.282  1.0495 -0.5635  1.5684
   88MOL   H25623050   6.437   6.814   1.098  1.1533  0.1203 -0.4211
   88MOL   H25723051   6.233   6.689   1.246 -0.4918 -0.0206 -0.0426
   88MOL   H25823052   6.232   6.725   1.074  0.2036  3.5855 -1.1657
   88MOL   H25923053   6.033   6.859   1.086 -0.6392 -0.9454  0.3069
   88MOL   H26023054   6.024   6.687   1.153  0.9427 -0.9487 -0.3711
   88MOL   H26123055   6.018   6.839   1.249  1.2706 -0.6760  1.0391
   88MOL   H26223056   6.431   6.798   1.275 -1.9954 -0.6687  0.5356
   89MOL     C123057   5.896   7.002   3.625 -0.1756 -0.3326 -0.1571
   89MOL     C223058   5.743   7.024   3.665 -0.6527  0.4048 -0.0246
   89MOL     O323059   5.679   7.108   3.572  0.1859  0.9890 -0.3425
   89MOL     C423060   5.676   7.071   3.442  0.3184 -0.4853  0.6750
   89MOL     C523061   5.635   7.194   3.365 -0.4112  0.8292  0.2399
   89MOL     H623062   5.934   6.931   3.699 -1.7964  1.0506  2.0993
   89MOL     H723063   5.916   6.944   3.536  0.9295 -2.9889  1.7485
   89MOL     H823064   5.697   6.926   3.670 -1.4247  0.7627 -0.0235
   89MOL     H923065   5.598   6.995   3.438  0.6864 -0.9261  1.7047
   89MOL    H1023066   5.766   7.028   3.398  1.5634  3.0496 -0.3711
   89MOL    H1123067   5.708   7.275   3.359 -1.3070  1.6367  0.0713
   89MOL    H1223068   5.598   7.173   3.265  0.7081  0.7653 -0.1673
   89MOL    H1323069   5.547   7.225   3.422 -1.3069 -2.4633  0.7009
   89MOL    H1423070   5.956   7.092   3.618  0.9322 -1.0042  0.5858
   89MOL    C1523071   5.721   7.094   3.803 -0.4502 -0.3543 -0.4727
   89MOL    C1623072   5.813   7.062   3.920 -0.9465 -0.5739  0.4164
   89MOL    O1723073   5.772   6.947   3.991  0.1857 -0.6906  0.0448
   89MOL    C1823074   5.804   6.829   3.924  0.4231 -0.2504  0.0851
   89MOL    C1923075   5.822   6.718   4.034 -0.3493  0.0195  0.3831
   89MOL    H2023076   5.618   7.073   3.832 -0.7412 -1.3317 -2.2007
   89MOL    H2123077   5.738   7.198   3.775  1.8126 -0.3679  0.7005
   89MOL    H2223078   5.917   7.041   3.897 -0.7681  0.7736 -0.0094
   89MOL    H2323079   5.903   6.840   3.880  1.6248  0.8492  2.9823
   89MOL    H2423080   5.722   6.812   3.854 -0.8343 -0.9796  1.6959
   89MOL    H2523081   5.917   6.742   4.083 -0.3795 -0.2990  0.5940
   89MOL    H2623082   5.847   6.625   3.984  1.7791  0.6256  0.2352
   89MOL    H2723083   5.749   6.716   4.114 -1.8766  2.8578 -0.8481
   89MOL    C2823084   5.815   7.183   4.020  0.2436  0.1186  0.1282
   89MOL    C2923085   5.891   7.158   4.154 -0.1305 -0.1206 -0.1502
   89MOL    O3023086   5.881   7.278   4.227 -0.3155  0.4596  0.6635
   89MOL    C3123087   5.792   7.263   4.335 -0.6237  0.2926 -0.0131
   89MOL    C3223088   5.798   7.379   4.433  0.5363  0.1772 -0.5031
   89MOL    H3323089   5.713   7.211   4.048  0.9818 -0.3032  3.4074
   89MOL    H3423090   5.859   7.267   3.966 -1.0539  1.2524  0.7752
   89MOL    H3523091   5.839   7.077   4.205  1.3456 -0.7467  0.3870
   89MOL    H3623092   5.813   7.173   4.393 -1.5497  0.3132  0.3637
   89MOL    H3723093   5.694   7.264   4.286 -1.1359 -0.0263  0.9820
   89MOL    H3823094   5.722   7.373   4.511  0.7322 -1.3174 -0.4172
   89MOL    H3923095   5.896   7.370   4.479  0.8945 -1.7436 -1.6009
   89MOL    H4023096   5.789   7.476   4.384 -0.5594  0.2571 -0.1624
   89MOL    C4123097   6.035   7.119   4.136 -0.5799  0.4431  0.2130
   89MOL    C4223098   6.121   7.108   4.268 -0.5308 -0.2223  0.4709
   89MOL    O4323099   6.258   7.091   4.244 -0.0263  0.5096 -0.2681
   89MOL    C4423100   6.343   7.200   4.241 -0.3642  0.4261 -0.0861
   89MOL    C4523101   6.470   7.147   4.164  0.6811  0.4719 -0.5875
   89MOL    H4623102   6.088   7.191   4.074  0.1323 -1.2942 -1.2488
   89MOL    H4723103   6.029   7.023   4.085 -1.3931 -0.5297  2.0763
   89MOL    H4823104   6.109   7.194   4.333 -1.7188  0.6744 -0.9182
   89MOL    H4923105   6.364   7.236   4.342 -1.1995  0.9522 -0.0981
   89MOL    H5023106   6.300   7.280   4.181 -0.9511  0.0280 -0.1952
   89MOL    H5123107   6.431   7.090   4.080 -2.0583  1.2404  0.1154
   89MOL    H5223108   6.533   7.222   4.117  1.2213  1.3778  1.5280
   89MOL    H5323109   6.526   7.079   4.229  0.2107 -0.6208 -1.3249
   89MOL    C5423110   6.079   6.984   4.351  0.3891  0.3006 -0.1811
   89MOL    C5523111   6.156   6.982   4.488  0.2145 -0.1825  0.1858
   89MOL    O5623112   6.137   6.851   4.550  0.6070 -0.1645 -0.9540
   89MOL    C5723113   6.200   6.733   4.487  0.5851 -0.6487  0.6514
   89MOL    C5823114   6.195   6.601   4.580  0.1970  0.2355 -0.1585
   89MOL    H5923115   6.103   6.893   4.296  1.8456  0.5490  0.0218
   89MOL    H6023116   5.976   6.978   4.387 -0.3946 -0.4058 -2.4311
   89MOL    H6123117   6.262   6.986   4.463  0.5032  0.7058  1.4995
   89MOL    H6223118   6.300   6.765   4.458  0.3128 -0.6934 -0.3770
   89MOL    H6323119   6.143   6.716   4.395 -1.7406 -0.6428  2.0624
   89MOL    H6423120   6.234   6.530   4.507 -1.0008 -0.6780  0.0587
   89MOL    H6523121   6.259   6.620   4.666 -0.2085 -0.4410  0.2968
   89MOL    H6623122   6.093   6.579   4.611  0.2808 -1.8210 -1.2390
   89MOL    C6723123   6.103   7.080   4.594  0.0646  0.1865  0.3128
   89MOL    C6823124   6.189   7.081   4.722 -0.0322  0.1046  0.9189
   89MOL    O6923125   6.116   7.103   4.833  0.8457 -0.3224  0.1581
   89MOL    C7023126   6.028   6.993   4.877 -0.3194 -0.4040 -0.0646
   89MOL    C7123127   5.894   7.055   4.922 -0.4838 -0.5083  0.2898
   89MOL    H7223128   6.005   7.041   4.623  1.1971 -1.3122  2.2565
   89MOL    H7323129   6.083   7.183   4.564  0.2723  1.0373  2.9911
   89MOL    H7423130   6.228   6.981   4.742 -1.6631 -0.6804  0.2468
   89MOL    H7523131   6.083   6.944   4.958 -0.0671 -2.6851 -1.5547
   89MOL    H7623132   6.005   6.920   4.799  0.8648 -0.3348 -0.4820
   89MOL    H7723133   5.890   7.125   5.005  1.0450  1.6346 -1.3883
   89MOL    H7823134   5.835   7.103   4.843  0.2060  0.5797  0.4191
   89MOL    H7923135   5.839   6.967   4.954 -2.3326 -0.1328 -1.7599
   89MOL    C8023136   6.296   7.189   4.709  0.0100  0.4222 -0.4437
   89MOL    C8123137   6.398   7.205   4.820  0.5662 -0.3872  0.3525
   89MOL    O8223138   6.475   7.325   4.798 -0.4346  0.0607 -0.5688
   89MOL    C8323139   6.485   7.404   4.912 -0.3290  0.0286 -0.8491
   89MOL    C8423140   6.588   7.511   4.888 -0.3164 -0.4249  0.7027
   89MOL    H8523141   6.235   7.279   4.708  1.1195  1.1853 -0.5768
   89MOL    H8623142   6.342   7.176   4.611 -1.2294  1.5757 -1.2046
   89MOL    H8723143   6.335   7.202   4.908 -0.9069 -3.0661 -0.7454
   89MOL    H8823144   6.511   7.339   4.996  1.6772 -1.0678 -2.2792
   89MOL    H8923145   6.382   7.432   4.934  0.6749  1.1743  2.7009
   89MOL    H9023146   6.606   7.568   4.979  0.8106  2.9639 -1.5736
   89MOL    H9123147   6.686   7.480   4.851 -0.4072 -1.3132  1.1896
   89MOL    H9223148   6.554   7.583   4.814  0.3447 -0.3304  0.4903
   89MOL    C9323149   6.501   7.087   4.836 -0.1827  0.2676  0.3881
   89MOL    C9423150   6.600   7.074   4.715 -0.4658  0.5006  0.2018
   89MOL    O9523151   6.617   6.937   4.689 -0.3081  0.0126 -0.0975
   89MOL    C9623152   6.513   6.871   4.606 -0.2069 -0.2871 -0.0098
   89MOL    C9723153   6.571   6.849   4.465 -0.1653 -0.3190 -0.3732
   89MOL    H9823154   6.439   6.998   4.832  1.1538 -0.6817  0.3156
   89MOL    H9923155   6.555   7.091   4.930  0.6136 -2.3076  0.0938
   89MOL   H10023156   6.547   7.113   4.628 -1.3048 -1.3516 -0.1375
   89MOL   H10123157   6.421   6.928   4.595  1.6607  2.5034 -1.9385
   89MOL   H10223158   6.491   6.774   4.651  0.8118  1.2982  4.1946
   89MOL   H10323159   6.657   6.912   4.443 -0.5647  0.1892 -0.5020
   89MOL   H10423160   6.604   6.746   4.449 -0.8421 -0.4399 -1.0497
   89MOL   H10523161   6.503   6.861   4.380 -1.3632 -0.5537  0.5389
   89MOL   C10623162   6.750   7.124   4.739 -0.3481 -0.9624  0.2522
   89MOL   C10723163   6.844   7.129   4.616  0.7021  0.2121  0.0750
   89MOL   O10823164   6.967   7.184   4.660  0.2339  0.2695 -0.8164
   89MOL   C10923165   7.066   7.098   4.710  0.2805 -0.5043 -0.4195
   89MOL   C11023166   7.182   7.176   4.766 -0.8273  0.5436 -0.1827
   89MOL   H11123167   6.789   7.050   4.809 -1.6722 -3.8705 -1.9652
   89MOL   H11223168   6.744   7.220   4.789  0.6358 -1.5305  1.5010
   89MOL   H11323169   6.853   7.027   4.576 -0.3634 -0.1935  0.8453
   89MOL   H11423170   7.098   7.025   4.636  0.5964 -0.4476 -0.3418
   89MOL   H11523171   7.015   7.043   4.789 -3.9085  3.1379 -0.3810
   89MOL   H11623172   7.240   7.101   4.819 -1.7148 -0.6718 -0.8963
   89MOL   H11723173   7.238   7.227   4.688  2.9641 -1.8307  0.8625
   89MOL   H11823174   7.143   7.239   4.846 -0.5064 -0.1927  0.5615
   89MOL   C11923175   6.804   7.218   4.501 -0.5978 -0.1153  0.0522
   89MOL   C12023176   6.884   7.212   4.369  0.0125  0.1812  0.0659
   89MOL   O12123177   6.854   7.313   4.277 -0.2477 -0.4061 -0.1003
   89MOL   C12223178   6.926   7.434   4.302  0.1847 -0.0382  0.0961
   89MOL   C12323179   6.899   7.518   4.173 -0.3773 -0.0028  0.0241
   89MOL   H12423180   6.796   7.317   4.546 -0.2538  0.4216 -1.0521
   89MOL   H12523181   6.700   7.201   4.471 -0.9430  1.1934  0.4832
   89MOL   H12623182   6.986   7.211   4.407  0.5276  0.5589 -1.3192
   89MOL   H12723183   7.031   7.414   4.322 -0.1378  0.9259  3.0107
   89MOL   H12823184   6.881   7.494   4.381 -1.0201  1.4879 -1.7097
   89MOL   H12923185   6.794   7.495   4.155 -0.3024 -0.0063 -0.4280
   89MOL   H13023186   6.927   7.623   4.178 -0.6907  0.0269  1.1176
   89MOL   H13123187   6.945   7.476   4.083  0.6255  0.2232  0.4338
   89MOL   C13223188   6.861   7.080   4.281 -0.5209  0.7702 -0.6073
   89MOL   C13323189   6.953   7.070   4.153 -0.5260  0.2410  0.0796
   89MOL   O13423190   6.907   6.981   4.053 -0.2945  0.1713  0.4940
   89MOL   C13523191   6.773   6.996   4.008  0.3656  0.3319 -0.0408
   89MOL   C13623192   6.765   6.924   3.873  0.5948  0.0877 -0.2274
   89MOL   H13723193   6.759   7.094   4.245 -0.8326  0.4622  0.1487
   89MOL   H13823194   6.857   6.984   4.333 -1.4585  0.4760 -1.2202
   89MOL   H13923195   6.970   7.170   4.111  1.7929 -0.1181  0.0980
   89MOL   H14023196   6.750   7.101   3.994  2.2012  0.9130  1.0708
   89MOL   H14123197   6.714   6.946   4.085 -0.0232 -0.2479 -0.7150
   89MOL   H14223198   6.747   6.817   3.882  4.4555 -0.4764  1.6335
   89MOL   H14323199   6.683   6.965   3.814 -0.0535 -1.2692 -0.2964
   89MOL   H14423200   6.855   6.936   3.814  0.8802 -0.0763  0.1745
   89MOL   C14523201   7.096   7.013   4.200 -0.3953  0.0485 -0.3015
   89MOL   C14623202   7.096   6.858   4.218  0.2730  0.3816 -0.1963
   89MOL   O14723203   7.030   6.823   4.339 -0.1982  0.2443  0.4562
   89MOL   C14823204   6.985   6.685   4.341 -0.2837 -0.2175  0.2361
   89MOL   C14923205   6.921   6.662   4.470 -0.2988 -0.1841  0.3278
   89MOL   H15023206   7.125   7.053   4.297 -0.9018 -0.6415  0.1429
   89MOL   H15123207   7.169   7.034   4.122  1.1033  0.3605  1.1683
   89MOL   H15223208   7.048   6.816   4.129  1.0353  0.6881 -0.7542
   89MOL   H15323209   7.066   6.614   4.328  0.8111  1.2922 -1.3919
   89MOL   H15423210   6.910   6.676   4.263  2.7484 -0.7094 -2.7111
   89MOL   H15523211   6.817   6.692   4.480 -0.1957 -0.3085  1.7999
   89MOL   H15623212   6.914   6.558   4.499  1.9950 -0.5817 -0.4230
   89MOL   H15723213   6.971   6.714   4.552 -1.4369  1.2380  0.1409
   89MOL   C15823214   7.244   6.817   4.254  0.0012 -0.4711 -0.2519
   89MOL   C15923215   7.349   6.843   4.143 -0.8920  0.3584  0.0342
   89MOL   O16023216   7.316   6.789   4.017  0.5403  0.7407 -0.1997
   89MOL   C16123217   7.347   6.874   3.900 -0.1668 -0.4054  0.1800
   89MOL   C16223218   7.316   6.798   3.771 -0.0595  0.4601 -0.0750
   89MOL   H16323219   7.239   6.710   4.272  0.6349 -0.1760  1.7601
   89MOL   H16423220   7.273   6.867   4.346  0.6200 -1.1955 -0.0554
   89MOL   H16523221   7.373   6.950   4.141 -0.8346  0.3527  0.4287
   89MOL   H16623222   7.450   6.907   3.895 -0.3793  0.4295  1.2759
   89MOL   H16723223   7.275   6.955   3.908 -0.6793 -0.6898 -1.3116
   89MOL   H16823224   7.378   6.711   3.752 -1.7707 -0.2996 -2.5290
   89MOL   H16923225   7.213   6.761   3.778  0.4937 -0.9835  0.5700
   89MOL   H17023226   7.316   6.857   3.679 -0.3532  0.0529 -0.3382
   89MOL   C17123227   7.485   6.768   4.183 -0.1220 -0.3290  0.0354
   89MOL   C17223228   7.535   6.790   4.330  0.1903  0.2948 -0.0547
   89MOL   O17323229   7.534   6.927   4.351 -0.5311  0.0819  0.4302
   89MOL   C17423230   7.539   6.965   4.490  0.2686 -0.1385 -0.5217
   89MOL   C17523231   7.503   7.114   4.488  0.2793  0.3071 -0.3108
   89MOL   H17623232   7.565   6.795   4.113  0.1061  0.9809  0.7717
   89MOL   H17723233   7.480   6.663   4.157 -1.9706 -0.6505  1.5466
   89MOL   H17823234   7.466   6.739   4.396 -0.1406 -0.2180 -0.7919
   89MOL   H17923235   7.640   6.949   4.527  1.1859 -3.0399 -3.9287
   89MOL   H18023236   7.468   6.901   4.543  1.0816 -0.8540 -0.2802
   89MOL   H18123237   7.429   7.135   4.410  2.0562 -0.0626 -2.1524
   89MOL   H18223238   7.450   7.144   4.578 -0.7594 -1.4318 -0.3254
   89MOL   H18323239   7.589   7.181   4.480 -1.2541  2.2731 -0.7691
   89MOL   C18423240   7.676   6.737   4.348 -0.0795 -0.0145 -0.2538
   89MOL   C18523241   7.707   6.598   4.314  0.0485 -0.4922  0.2470
   89MOL   O18623242   7.610   6.520   4.379  0.0535  0.4076 -0.1467
   89MOL   C18723243   7.577   6.399   4.310 -0.1009 -0.0934 -0.2587
   89MOL   C18823244   7.517   6.299   4.403 -0.2089  0.0583 -0.2168
   89MOL   H18923245   7.711   6.752   4.450  0.6917  2.5574 -0.8527
   89MOL   H19023246   7.737   6.806   4.289 -1.2823  1.0675 -0.2595
   89MOL   H19123247   7.702   6.581   4.207 -0.8675 -0.5470  0.2937
   89MOL   H19223248   7.674   6.364   4.274  1.1011  2.4163  0.4332
   89MOL   H19323249   7.516   6.416   4.222  0.7099  0.1487 -0.7689
   89MOL   H19423250   7.524   6.195   4.372 -0.2432 -0.4344  1.3885
   89MOL   H19523251   7.570   6.311   4.497 -0.3995 -2.6785  0.2862
   89MOL   H19623252   7.416   6.334   4.422  0.8622  1.7234  2.7669
   89MOL   C19723253   0.014   6.571   4.361 -0.1160  0.2231 -0.6805
   89MOL   C19823254   0.116   6.620   4.254 -0.6141  0.3793 -0.8106
   89MOL   O19923255   0.166   6.504   4.191 -0.4100 -0.5397  0.0047
   89MOL   C20023256   0.216   6.519   4.059 -0.7236 -0.0200 -0.2605
   89MOL   C20123257   0.237   6.384   3.996  0.2011  0.0567 -0.1570
   89MOL   H20223258   0.025   6.463   4.365 -1.9449  0.0726  1.8486
   89MOL   H20323259   0.034   6.607   4.462  0.8737  1.1688 -1.2147
   89MOL   H20423260   0.053   6.684   4.192 -0.2515  0.9747 -0.5796
   89MOL   H20523261   0.305   6.583   4.056 -1.6839  1.3688  0.2125
   89MOL   H20623262   0.135   6.578   4.017  0.9221  1.3817 -1.5496
   89MOL   H20723263   0.272   6.375   3.893 -1.3243 -0.5283 -0.6380
   89MOL   H20823264   0.300   6.324   4.062 -0.8748  0.9558  1.7520
   89MOL   H20923265   0.149   6.320   4.009 -0.0952  0.7491  1.4640
   89MOL   C21023266   0.238   6.702   4.310 -0.0870  0.1501  0.1498
   89MOL   C21123267   0.201   6.824   4.401 -0.3281  0.2877 -0.5042
   89MOL   O21223268   0.143   6.926   4.321  0.1983  0.8439  0.2091
   89MOL   C21323269   0.064   7.020   4.392  0.5419  0.3330  0.2282
   89MOL   C21423270   7.836   7.111   4.287 -0.0479 -0.2127 -0.0219
   89MOL   H21523271   0.302   6.730   4.227 -0.8783 -0.2455 -0.6095
   89MOL   H21623272   0.288   6.630   4.375  1.9013  0.5295 -0.9403
   89MOL   H21723273   0.134   6.790   4.480  0.2159 -1.6227 -0.8496
   89MOL   H21823274   0.124   7.080   4.460 -2.2408  2.2956  1.0379
   89MOL   H21923275   7.835   6.961   4.447 -0.4314  1.1817 -0.1351
   89MOL   H22023276   0.079   7.142   4.228  0.1760  0.9299  0.8799
   89MOL   H22123277   7.762   7.057   4.227  0.5279 -0.2594 -0.7000
   89MOL   H22223278   7.791   7.185   4.353 -0.2984 -0.6775  0.3319
   89MOL   C22323279   0.327   6.874   4.480  0.9162  0.4178  0.1516
   89MOL   C22423280   0.373   6.790   4.601 -0.3934 -0.0135  0.1353
   89MOL   O22523281   0.287   6.811   4.710  1.2268  0.1002  0.9325
   89MOL   C22623282   0.237   6.695   4.773 -0.0218  0.0984  0.2780
   89MOL   C22723283   0.154   6.731   4.901  0.5692  0.4466 -0.7382
   89MOL   H22823284   0.310   6.976   4.515  1.9246  0.7437 -0.2846
   89MOL   H22923285   0.413   6.884   4.413 -0.0910  0.6634 -1.1225
   89MOL   H23023286   0.392   6.685   4.578  1.0867  0.0052  1.2298
   89MOL   H23123287   0.321   6.639   4.813  0.4429 -0.8697 -1.9926
   89MOL   H23223288   0.176   6.625   4.717  2.7939  0.3849 -3.3258
   89MOL   H23323289   0.079   6.801   4.864 -0.3641 -0.0210  0.2453
   89MOL   H23423290   0.099   6.643   4.936 -0.9349  0.7203 -2.3135
   89MOL   H23523291   0.207   6.769   4.988 -0.1187  1.7772 -0.8893
   89MOL   C23623292   0.503   6.849   4.657 -0.0498 -0.4808  0.4565
   89MOL   C23723293   0.637   6.814   4.586 -0.6057  0.0613  0.9686
   89MOL   O23823294   0.681   6.687   4.630 -0.7548  0.0421  0.0595
   89MOL   C23923295   0.669   6.588   4.530  0.4418  0.0749 -0.4922
   89MOL   C24023296   0.701   6.447   4.574  0.0558 -0.1499  0.1360
   89MOL   H24123297   0.522   6.832   4.763  1.1467  0.0842  0.3354
   89MOL   H24223298   0.489   6.957   4.651  0.5611 -0.5341 -2.3653
   89MOL   H24323299   0.622   6.804   4.478  1.1423 -0.7259  0.7796
   89MOL   H24423300   0.729   6.619   4.445 -0.0028  0.1724 -0.7748
   89MOL   H24523301   0.565   6.578   4.498  0.7133 -3.8455 -0.4392
   89MOL   H24623302   0.637   6.420   4.658 -1.4097 -2.8807 -1.7712
   89MOL   H24723303   0.692   6.379   4.489  0.9870  1.7268 -1.4960
   89MOL   H24823304   0.803   6.439   4.612 -0.2328 -0.9058  0.7678
   89MOL   C24923305   0.761   6.911   4.607 -0.4514 -0.1725 -0.8880
   89MOL   C25023306   0.874   6.891   4.505  1.1865 -0.3676  0.1184
   89MOL   O25123307   0.987   6.966   4.556  0.0306 -0.7040 -0.1763
   89MOL   C25223308   1.102   6.980   4.476  0.1793 -0.2729 -0.1074
   89MOL   C25323309   1.217   7.018   4.569  1.1491  0.2834 -0.2223
   89MOL   H25423310   0.784   6.904   4.714  0.7071  1.2510 -1.0185
   89MOL   H25523311   0.721   7.010   4.587 -1.9449 -0.1476  1.9801
   89MOL   H25623312   0.905   6.786   4.499  0.3495 -0.4909 -2.2095
   89MOL   H25723313   1.093   7.065   4.408  2.8344  0.9188  0.9674
   89MOL   H25823314   1.125   6.884   4.429  2.0551 -1.7022  3.5494
   89MOL   H25923315   1.193   7.115   4.612  0.7422  0.8245 -1.6174
   89MOL   H26023316   1.220   6.956   4.658  1.3389  1.0407  0.2974
   89MOL   H26123317   1.315   7.012   4.522  1.4596  0.1305  0.4415
   89MOL   H26223318   0.841   6.923   4.406  3.8883  2.7036  0.1270
   90MOL     C123319   6.535   4.718   2.391  0.3568  0.6898  0.3587
   90MOL     C223320   6.601   4.840   2.344 -1.0481 -0.2906 -0.3316
   90MOL     O323321   6.710   4.870   2.426  0.1686  0.0951 -0.1257
   90MOL     C423322   6.835   4.794   2.408  0.0394  0.2573  0.5043
   90MOL     C523323   6.944   4.861   2.494  0.0635  0.7682 -0.3886
   90MOL     H623324   6.598   4.630   2.381  1.1333  1.1764  0.9821
   90MOL     H723325   6.511   4.718   2.497 -0.3983  3.3071  0.2061
   90MOL     H823326   6.646   4.831   2.245  0.4477  1.4618  0.1586
   90MOL     H923327   6.861   4.797   2.302 -1.9856  1.6856  0.0113
   90MOL    H1023328   6.817   4.694   2.447 -2.0591  1.0686  1.7123
   90MOL    H1123329   6.924   4.843   2.599  2.7035 -1.1415 -0.1387
   90MOL    H1223330   7.046   4.825   2.476 -0.2132  0.1067 -0.6536
   90MOL    H1323331   6.940   4.967   2.472 -1.7005  0.2981 -2.4251
   90MOL    H1423332   6.443   4.696   2.336 -0.3871  2.2714  0.9503
   90MOL    C1523333   6.519   4.968   2.339  0.1639  0.0643 -0.3026
   90MOL    C1623334   6.414   4.965   2.224  0.0031  0.4246 -0.0794
   90MOL    O1723335   6.481   4.904   2.107  0.2645  0.2030 -0.1325
   90MOL    C1823336   6.396   4.834   2.017  0.3322 -0.0835 -0.0232
   90MOL    C1923337   6.482   4.753   1.915 -0.0284  0.4480  0.0786
   90MOL    H2023338   6.578   5.056   2.311 -2.5537  1.5861 -1.3768
   90MOL    H2123339   6.470   4.973   2.435  1.6966 -1.7370  0.6185
   90MOL    H2223340   6.336   4.900   2.264  1.1976 -0.2578  1.1671
   90MOL    H2323341   6.322   4.895   1.964  1.7719 -0.0013 -2.0108
   90MOL    H2423342   6.333   4.762   2.070 -0.1270 -1.5495 -2.4435
   90MOL    H2523343   6.544   4.820   1.857 -0.6420 -1.1563 -2.4970
   90MOL    H2623344   6.426   4.692   1.844  2.8187 -0.8345 -1.1325
   90MOL    H2723345   6.552   4.695   1.975  0.1039 -0.1407 -0.6420
   90MOL    C2823346   6.366   5.101   2.174  0.5525  0.9739 -0.1435
   90MOL    C2923347   6.311   5.190   2.282 -0.2459 -0.0967  0.3335
   90MOL    O3023348   6.189   5.134   2.327  0.0615  0.6261 -0.4369
   90MOL    C3123349   6.173   5.123   2.468 -0.7478 -0.6366 -0.8195
   90MOL    C3223350   6.027   5.085   2.478  0.0687  0.6241 -0.2039
   90MOL    H3323351   6.276   5.084   2.116  1.3169 -0.8137 -0.8157
   90MOL    H3423352   6.444   5.147   2.113  0.2376  0.3535 -1.0107
   90MOL    H3523353   6.379   5.206   2.366  0.2049  1.5354 -0.3421
   90MOL    H3623354   6.188   5.219   2.516 -1.5001 -0.2178 -1.4126
   90MOL    H3723355   6.239   5.045   2.508  0.9607  0.8152 -0.7837
   90MOL    H3823356   5.976   5.158   2.416 -1.6974 -1.5535 -1.3835
   90MOL    H3923357   6.015   4.980   2.453 -0.1616  0.1853  1.7019
   90MOL    H4023358   5.980   5.088   2.576  1.0167  1.4447  0.2312
   90MOL    C4123359   6.268   5.320   2.218 -0.1820 -0.2991 -0.3629
   90MOL    C4223360   6.249   5.447   2.307  0.5227  0.5520 -0.2154
   90MOL    O4323361   6.133   5.511   2.245  0.1359  0.1560  0.3829
   90MOL    C4423362   6.038   5.563   2.342  0.8662  0.1840 -0.5141
   90MOL    C4523363   5.931   5.654   2.275 -0.1725  0.0681 -0.1117
   90MOL    H4623364   6.183   5.313   2.150  0.7820  0.5307 -1.6836
   90MOL    H4723365   6.349   5.352   2.152  1.4801 -0.9827  1.3127
   90MOL    H4823366   6.216   5.412   2.405 -0.4436  0.6755 -0.4870
   90MOL    H4923367   6.088   5.619   2.421  1.1912  0.4321 -0.8933
   90MOL    H5023368   5.982   5.483   2.390  2.7823 -1.7974 -1.5300
   90MOL    H5123369   5.860   5.682   2.353 -1.1580 -0.8820 -0.6391
   90MOL    H5223370   5.978   5.746   2.240 -2.2658  1.5088  0.7758
   90MOL    H5323371   5.872   5.601   2.200  0.9076 -0.7513 -0.4055
   90MOL    C5423372   6.371   5.536   2.329 -0.2555  0.0052  0.3953
   90MOL    C5523373   6.489   5.493   2.422 -0.0522  0.2234  0.2046
   90MOL    O5623374   6.563   5.391   2.352 -0.2745 -0.6762 -0.1691
   90MOL    C5723375   6.676   5.444   2.276  0.6144  0.7723  0.7235
   90MOL    C5823376   6.767   5.334   2.233 -0.5738  0.2582 -0.9964
   90MOL    H5923377   6.331   5.633   2.359 -0.4227  0.1475 -0.2860
   90MOL    H6023378   6.412   5.552   2.229 -1.5639 -0.2757 -0.1965
   90MOL    H6123379   6.559   5.574   2.442 -0.0803  1.1052 -2.9969
   90MOL    H6223380   6.740   5.518   2.324  0.2095  2.3736 -1.1623
   90MOL    H6323381   6.634   5.489   2.186  2.1451  0.5494 -0.1101
   90MOL    H6423382   6.851   5.365   2.170 -1.0423  0.8627 -1.3273
   90MOL    H6523383   6.799   5.270   2.315 -1.4686  0.9354 -0.1104
   90MOL    H6623384   6.725   5.262   2.162 -1.8997 -0.7137  0.7454
   90MOL    C6723385   6.435   5.426   2.551  0.2330  0.6105  0.2936
   90MOL    C6823386   6.534   5.434   2.664  0.1955 -0.4215 -0.6305
   90MOL    O6923387   6.505   5.347   2.765 -0.5270  0.2428 -0.4948
   90MOL    C7023388   6.535   5.204   2.734  0.5219 -0.7637  0.1538
   90MOL    C7123389   6.541   5.137   2.868  0.4490  0.3139 -0.0212
   90MOL    H7223390   6.415   5.321   2.531 -1.1640  0.7032  1.2058
   90MOL    H7323391   6.344   5.480   2.575 -1.0330 -1.2231 -0.2773
   90MOL    H7423392   6.632   5.411   2.621  0.1395 -0.1455 -0.9125
   90MOL    H7523393   6.628   5.183   2.681  0.3946  0.2009 -0.4780
   90MOL    H7623394   6.460   5.159   2.669  2.6184 -2.3135 -1.2856
   90MOL    H7723395   6.510   5.033   2.858  1.8275 -0.1456  0.3889
   90MOL    H7823396   6.635   5.156   2.920  0.9455 -0.8752 -0.4785
   90MOL    H7923397   6.459   5.182   2.925  0.8989  1.5390 -0.3110
   90MOL    C8023398   6.530   5.577   2.734  0.2227  0.1422  0.1880
   90MOL    C8123399   6.606   5.597   2.868 -0.4263 -1.3071  0.2468
   90MOL    O8223400   6.614   5.741   2.886 -0.0256  0.5591  0.2584
   90MOL    C8323401   6.498   5.789   2.951 -0.2266 -0.1102 -1.2367
   90MOL    C8423402   6.496   5.945   2.954  0.0070  0.1535 -0.0170
   90MOL    H8523403   6.425   5.595   2.753  0.2780  0.0145  0.6213
   90MOL    H8623404   6.565   5.651   2.662 -1.5251 -0.1626 -1.0053
   90MOL    H8723405   6.545   5.553   2.947 -0.7125  0.5796  1.0994
   90MOL    H8823406   6.506   5.755   3.054 -1.7511  1.2212 -0.6590
   90MOL    H8923407   6.405   5.761   2.902 -0.7751 -2.3549  0.9952
   90MOL    H9023408   6.598   5.978   2.975  0.1990  0.9421 -2.0524
   90MOL    H9123409   6.469   5.984   2.855  0.4605  1.1491  0.2383
   90MOL    H9223410   6.439   5.995   3.032  0.9411  0.8130  0.2573
   90MOL    C9323411   6.751   5.548   2.868  0.0049 -0.3855  0.0802
   90MOL    C9423412   6.810   5.532   3.007 -0.3906 -0.5444 -0.0915
   90MOL    O9523413   6.945   5.488   2.985  0.2379  0.6804 -0.0517
   90MOL    C9623414   7.049   5.566   3.046 -0.3805  0.5515 -0.9532
   90MOL    C9723415   7.186   5.493   3.025 -0.2634  0.6305  0.0224
   90MOL    H9823416   6.808   5.617   2.807  1.4668  0.0614  1.8909
   90MOL    H9923417   6.761   5.448   2.827  2.9318  0.1848 -0.6851
   90MOL   H10023418   6.797   5.628   3.058 -2.1915 -1.9164  2.1405
   90MOL   H10123419   7.037   5.573   3.154  1.8590  1.2337 -0.7163
   90MOL   H10223420   7.067   5.665   3.003 -0.9241  0.7367 -0.7529
   90MOL   H10323421   7.205   5.447   2.928  0.6286  1.2139 -0.0749
   90MOL   H10423422   7.265   5.565   3.045 -0.4588  1.2858 -1.5090
   90MOL   H10523423   7.203   5.420   3.104  0.9682  1.4469  0.5258
   90MOL   C10623424   6.736   5.425   3.100  0.2715 -0.1784  0.2240
   90MOL   C10723425   6.774   5.429   3.247  0.0035  0.5112 -0.1071
   90MOL   O10823426   6.706   5.321   3.310 -0.0748 -0.6704 -0.0271
   90MOL   C10923427   6.762   5.195   3.306 -0.1006 -0.4632  0.7547
   90MOL   C11023428   6.714   5.114   3.426  0.2871  0.3145  0.3262
   90MOL   H11123429   6.762   5.327   3.059  1.0288 -0.4822  1.4243
   90MOL   H11223430   6.629   5.442   3.087  0.5371 -0.1464 -2.3520
   90MOL   H11323431   6.882   5.423   3.262  0.1816  1.5030 -0.9077
   90MOL   H11423432   6.868   5.209   3.329  0.1405  2.0420 -1.6443
   90MOL   H11523433   6.761   5.140   3.212 -1.3065 -0.3967  0.7271
   90MOL   H11623434   6.731   5.157   3.525 -1.5994  0.1720  0.7211
   90MOL   H11723435   6.607   5.100   3.410  0.5014 -0.4204 -0.5045
   90MOL   H11823436   6.759   5.015   3.429 -0.5751 -0.1461 -1.3860
   90MOL   C11923437   6.719   5.559   3.312  0.4343 -0.1834  0.0028
   90MOL   C12023438   6.736   5.577   3.458  0.4350  0.2539 -0.3113
   90MOL   O12123439   6.656   5.698   3.485 -0.3836 -0.3276  0.1665
   90MOL   C12223440   6.606   5.710   3.619 -0.5564  0.2187  0.0151
   90MOL   C12323441   6.519   5.828   3.622  0.4806 -0.5989  0.4403
   90MOL   H12423442   6.613   5.562   3.285  1.0328  2.0636 -2.3708
   90MOL   H12523443   6.765   5.646   3.264 -0.3314 -0.0672 -0.5412
   90MOL   H12623444   6.693   5.489   3.505  0.8528  0.3166  0.1797
   90MOL   H12723445   6.689   5.721   3.688 -1.1477  0.7071  0.6522
   90MOL   H12823446   6.549   5.618   3.631 -0.2399 -0.0694 -0.6234
   90MOL   H12923447   6.433   5.812   3.556  1.5076 -0.3711 -0.9760
   90MOL   H13023448   6.497   5.855   3.725  0.6103  2.3642 -0.2578
   90MOL   H13123449   6.577   5.910   3.581 -1.1539 -0.0202 -0.7619
   90MOL   C13223450   6.881   5.605   3.506  0.0376  0.3541 -0.0803
   90MOL   C13323451   6.944   5.532   3.619 -0.2776 -0.2827  0.5392
   90MOL   O13423452   6.874   5.553   3.739  0.4730  0.2176 -0.4046
   90MOL   C13523453   6.934   5.522   3.857 -0.4712  0.6890 -0.2458
   90MOL   C13623454   6.828   5.550   3.963 -1.1451  0.3476  0.1248
   90MOL   H13723455   6.895   5.711   3.524  3.3327  0.0452 -0.4450
   90MOL   H13823456   6.939   5.589   3.414 -0.1549 -1.1116  0.0431
   90MOL   H13923457   6.943   5.424   3.606  2.4105 -0.2553 -0.2769
   90MOL   H14023458   7.017   5.592   3.865  1.0701 -0.9240 -1.7696
   90MOL   H14123459   6.971   5.420   3.855  1.1117  1.2588 -0.5884
   90MOL   H14223460   6.818   5.659   3.969  2.2239  0.7182  0.3145
   90MOL   H14323461   6.732   5.511   3.929 -1.2123  0.8998 -0.3457
   90MOL   H14423462   6.846   5.508   4.062 -1.0647  0.1358  0.0211
   90MOL   C14523463   7.096   5.560   3.625  0.3760 -0.0323  0.3571
   90MOL   C14623464   7.185   5.524   3.509  0.4614 -0.0810 -0.2238
   90MOL   O14723465   7.167   5.619   3.406 -0.2895 -0.1828 -0.2943
   90MOL   C14823466   7.272   5.719   3.407  0.1634 -0.5475  0.2416
   90MOL   C14923467   7.257   5.816   3.288 -0.3810 -0.9447  0.0109
   90MOL   H15023468   7.143   5.531   3.719  1.2336  2.4365  0.7277
   90MOL   H15123469   7.105   5.668   3.637  0.2127 -0.0285  0.4556
   90MOL   H15223470   7.292   5.508   3.529 -0.1157 -4.2672  0.0060
   90MOL   H15323471   7.371   5.674   3.394  0.8984  1.3018 -0.7500
   90MOL   H15423472   7.268   5.781   3.496  1.0848  0.2778 -0.2851
   90MOL   H15523473   7.332   5.894   3.293 -1.3084 -0.1211  1.6371
   90MOL   H15623474   7.287   5.762   3.198 -0.1413 -0.6806 -0.0646
   90MOL   H15723475   7.164   5.872   3.278  0.4440  0.6883  1.2837
   90MOL   C15823476   7.152   5.383   3.457  0.6839  0.0867  0.0767
   90MOL   C15923477   7.191   5.272   3.562  0.3415 -0.0013  1.1304
   90MOL   O16023478   7.330   5.292   3.600 -0.5102 -0.4346 -0.3521
   90MOL   C16123479   7.373   5.254   3.735  0.2186  0.0166  0.1041
   90MOL   C16223480   7.530   5.247   3.734  1.0980 -0.0362  0.5655
   90MOL   H16323481   7.212   5.365   3.368 -0.0620 -1.3420 -0.1456
   90MOL   H16423482   7.049   5.369   3.424  0.9368 -0.7203 -0.3984
   90MOL   H16523483   7.125   5.287   3.648  0.6446  0.1424  1.3398
   90MOL   H16623484   7.338   5.156   3.769  0.2757 -1.0671 -2.7793
   90MOL   H16723485   7.334   5.328   3.805  1.2208  1.5325 -0.8966
   90MOL   H16823486   7.579   5.170   3.673  0.0657 -0.9795  0.8998
   90MOL   H16923487   7.580   5.340   3.710  0.1619 -0.1657 -2.1199
   90MOL   H17023488   7.547   5.226   3.840 -0.4216  0.7536  0.9820
   90MOL   C17123489   7.169   5.128   3.519  0.0493 -0.2670 -0.0360
   90MOL   C17223490   7.218   5.085   3.378  0.6300 -0.3724 -0.1920
   90MOL   O17323491   7.108   5.099   3.278 -0.0962  0.6589 -0.0715
   90MOL   C17423492   7.157   5.115   3.140 -0.6198  0.0464 -0.0800
   90MOL   C17523493   7.051   5.186   3.059 -0.0735  0.1093 -0.6803
   90MOL   H17623494   7.061   5.119   3.518 -0.1749  2.0606  0.3793
   90MOL   H17723495   7.202   5.064   3.601  0.8228 -0.8965 -0.8348
   90MOL   H17823496   7.294   5.158   3.350 -1.4926  1.1627 -2.0312
   90MOL   H17923497   7.167   5.010   3.114  0.0720  0.3502 -1.0554
   90MOL   H18023498   7.256   5.160   3.131 -1.3541  1.1683 -2.8552
   90MOL   H18123499   7.022   5.280   3.104 -0.6018  0.7960 -2.4083
   90MOL   H18223500   7.092   5.214   2.961  0.6055 -1.0875 -0.7474
   90MOL   H18323501   6.972   5.113   3.040  0.7199 -0.7186 -0.8252
   90MOL   C18423502   7.255   4.935   3.369  0.9294 -0.1402 -0.5092
   90MOL   C18523503   7.407   4.907   3.364  0.0157 -0.7696 -0.0431
   90MOL   O18623504   7.452   4.972   3.247  0.2855 -0.5013 -0.0024
   90MOL   C18723505   7.585   5.028   3.270  0.5691 -0.4895 -0.0234
   90MOL   C18823506   7.628   5.097   3.135  0.1290  0.0895 -0.0260
   90MOL   H18923507   7.205   4.890   3.284  1.0985 -1.1587 -0.0777
   90MOL   H19023508   7.214   4.875   3.450 -3.6182  0.6319 -2.0839
   90MOL   H19123509   7.443   4.945   3.460 -0.2877 -3.5510  1.2345
   90MOL   H19223510   7.654   4.944   3.283  0.0918 -0.5079  2.4996
   90MOL   H19323511   7.592   5.088   3.360 -0.0058  0.0785 -0.3517
   90MOL   H19423512   7.627   5.034   3.047 -1.9555 -0.0999  0.0970
   90MOL   H19523513   7.565   5.185   3.121  0.0775 -0.0693 -0.7778
   90MOL   H19623514   7.729   5.137   3.141  1.9690 -4.2722 -0.0423
   90MOL   C19723515   7.433   4.760   3.357 -0.3253  0.2462  0.3365
   90MOL   C19823516   7.407   4.686   3.487 -0.3159 -0.2397 -0.0293
   90MOL   O19923517   7.449   4.754   3.603  0.3281  0.3243 -0.5397
   90MOL   C20023518   7.352   4.788   3.694 -0.1527  0.1686  0.3299
   90MOL   C20123519   7.403   4.838   3.831  0.2888 -0.6028 -0.4159
   90MOL   H20223520   7.536   4.755   3.321 -0.5615  1.9076 -0.6009
   90MOL   H20323521   7.373   4.717   3.277  1.4789 -2.5609  0.3980
   90MOL   H20423522   7.300   4.664   3.495 -0.3503 -0.3391 -0.7222
   90MOL   H20523523   7.301   4.695   3.719  0.1107 -0.0766 -0.0445
   90MOL   H20623524   7.281   4.859   3.650 -1.7537 -1.3111  0.4715
   90MOL   H20723525   7.482   4.912   3.824 -2.9847  2.9695 -1.2204
   90MOL   H20823526   7.316   4.875   3.887 -0.5786  0.0207 -2.1410
   90MOL   H20923527   7.430   4.752   3.892  0.1283 -1.5203 -1.6311
   90MOL   C21023528   7.462   4.541   3.480 -0.1886  0.5841  0.4436
   90MOL   C21123529   7.355   4.432   3.506 -0.3768 -0.5062  0.2333
   90MOL   O21223530   7.263   4.445   3.398 -0.7748 -0.0046  0.1247
   90MOL   C21323531   7.214   4.329   3.351  0.4508  0.2287 -0.7978
   90MOL   C21423532   7.128   4.358   3.231  0.1767  0.5115 -0.1228
   90MOL   H21523533   7.553   4.527   3.539 -0.3403 -0.9230  0.3508
   90MOL   H21623534   7.485   4.525   3.375 -0.5699 -0.0529  0.4512
   90MOL   H21723535   7.408   4.336   3.501  0.2585 -0.1073 -0.9683
   90MOL   H21823536   7.162   4.272   3.428 -1.1884 -0.0515 -2.0723
   90MOL   H21923537   7.298   4.264   3.326  2.3645  1.6832  1.6025
   90MOL   H22023538   7.188   4.407   3.154 -0.5287  0.5553 -0.6478
   90MOL   H22123539   7.102   4.262   3.185  1.1793 -0.3210  1.0179
   90MOL   H22223540   7.038   4.413   3.257 -0.2117  1.4006 -3.1286
   90MOL   C22323541   7.296   4.432   3.646 -0.6761  0.5719  0.1284
   90MOL   C22423542   7.236   4.298   3.706  0.4314 -0.2384 -0.4129
   90MOL   O22523543   7.207   4.346   3.838  0.4273 -0.0410  0.6300
   90MOL   C22623544   7.076   4.397   3.867 -0.2266 -0.2347 -0.7828
   90MOL   C22723545   7.063   4.427   4.013  0.0521  0.4553  0.6217
   90MOL   H22823546   7.225   4.514   3.643 -1.3004 -0.0239 -2.8313
   90MOL   H22923547   7.365   4.468   3.722 -0.6015  0.6947  0.0016
   90MOL   H23023548   7.151   4.257   3.651  1.3453 -1.3358 -1.0080
   90MOL   H23123549   7.003   4.319   3.844  0.2389 -0.6026 -0.9946
   90MOL   H23223550   7.047   4.484   3.808  0.1999  0.0025 -0.6438
   90MOL   H23323551   7.123   4.517   4.027 -0.2057  0.4997  1.4908
   90MOL   H23423552   6.961   4.457   4.034 -0.4647 -0.0202 -1.1279
   90MOL   H23523553   7.102   4.347   4.076  0.2533  0.8170  0.9567
   90MOL   C23623554   7.325   4.178   3.726 -0.1980  0.5082 -0.3418
   90MOL   C23723555   7.478   4.213   3.741 -0.4635 -0.2731  0.6236
   90MOL   O23823556   7.555   4.102   3.706 -0.3109 -0.2455  1.1009
   90MOL   C23923557   7.532   4.038   3.581  0.3870  0.0011 -0.0026
   90MOL   C24023558   7.653   3.962   3.548 -0.0116 -0.0161  0.0730
   90MOL   H24123559   7.314   4.119   3.635  2.8010 -0.3021 -0.2263
   90MOL   H24223560   7.299   4.111   3.808  3.3119 -1.5229 -0.7650
   90MOL   H24323561   7.505   4.301   3.683 -0.0197 -0.3424  0.7271
   90MOL   H24423562   7.506   4.117   3.510 -0.4846 -1.7448 -1.6749
   90MOL   H24523563   7.452   3.964   3.586 -1.0998  1.4041 -2.0241
   90MOL   H24623564   7.649   3.946   3.440 -0.4705  2.6875 -0.3520
   90MOL   H24723565   7.747   4.015   3.565  2.3218 -4.5069  1.8559
   90MOL   H24823566   7.653   3.876   3.614 -0.2923 -0.6187 -0.7031
   90MOL   C24923567   7.524   4.252   3.881  0.2616 -0.3545 -0.3330
   90MOL   C25023568   7.671   4.286   3.893 -0.3333 -0.0301 -0.4563
   90MOL   O25123569   7.708   4.299   4.028  0.4332 -0.1721  0.4847
   90MOL   C25223570   0.004   4.344   4.040 -0.5012 -0.6627  0.5577
   90MOL   C25323571   0.039   4.351   4.181  0.3525 -0.4724  0.1570
   90MOL   H25423572   7.501   4.165   3.944 -2.1246  0.8839  0.5666
   90MOL   H25523573   7.458   4.324   3.928  0.9010  1.1209 -1.6653
   90MOL   H25623574   7.735   4.212   3.845  0.5576  0.9903 -0.8688
   90MOL   H25723575   0.017   4.432   3.978  0.2160 -1.3559 -0.2889
   90MOL   H25823576   0.069   4.268   3.997 -0.5641  0.2752 -1.2395
   90MOL   H25923577   0.139   4.392   4.189 -0.2742  0.7784  1.6093
   90MOL   H26023578   7.806   4.416   4.224 -1.4585 -2.2672 -0.2340
   90MOL   H26123579   0.021   4.263   4.244 -0.5706 -1.9479 -2.0852
   90MOL   H26223580   7.683   4.387   3.855  0.6255  0.4137  0.9666
   91MOL     C123581   2.281   0.947   3.875 -1.0034 -0.2985 -0.5172
   91MOL     C223582   2.255   1.010   3.733 -0.3780  0.1232  0.3625
   91MOL     O323583   2.288   0.913   3.634  0.3711  0.0147 -0.2163
   91MOL     C423584   2.183   0.818   3.615 -0.5667 -0.8206 -0.1479
   91MOL     C523585   2.249   0.694   3.552  0.6242 -0.3114 -0.1646
   91MOL     H623586   2.225   0.859   3.906  3.7736 -3.0569  0.6146
   91MOL     H723587   2.385   0.921   3.887 -1.5729 -1.7283  1.3991
   91MOL     H823588   2.151   1.043   3.732 -0.6081 -0.5030 -2.6264
   91MOL     H923589   2.110   0.870   3.553 -1.0184  1.1592  1.9728
   91MOL    H1023590   2.140   0.791   3.712 -4.1895  1.0616 -1.1377
   91MOL    H1123591   2.338   0.675   3.612  0.0736  1.9378  1.4297
   91MOL    H1223592   2.188   0.604   3.548  0.7089 -0.3409 -0.8752
   91MOL    H1323593   2.272   0.723   3.450  0.4568  0.1547 -0.0718
   91MOL    H1423594   2.270   1.026   3.949 -0.6965 -0.9434  0.2123
   91MOL    C1523595   2.343   1.130   3.702 -0.0858 -0.4727  0.8087
   91MOL    C1623596   2.302   1.200   3.568  0.1589  0.1631 -0.2871
   91MOL    O1723597   2.408   1.292   3.544  0.0837 -0.0836 -0.4035
   91MOL    C1823598   2.523   1.258   3.474 -0.8143  0.5295 -1.0055
   91MOL    C1923599   2.602   1.383   3.444 -0.1715 -0.0926 -0.4043
   91MOL    H2023600   2.441   1.086   3.689  0.6005  1.4202 -0.6942
   91MOL    H2123601   2.349   1.201   3.785 -1.0133 -0.5704  0.9678
   91MOL    H2223602   2.306   1.119   3.496  1.2016 -0.3843  0.3800
   91MOL    H2323603   2.489   1.198   3.389 -1.2031 -0.9242  0.1538
   91MOL    H2423604   2.586   1.197   3.538 -1.1128  3.0459  1.8082
   91MOL    H2523605   2.638   1.437   3.532 -0.0713 -0.3497 -0.2867
   91MOL    H2623606   2.540   1.452   3.386 -0.2195 -0.0855 -0.3439
   91MOL    H2723607   2.688   1.351   3.386  0.7292 -1.4792  1.6312
   91MOL    C2823608   2.174   1.276   3.568  0.1789  0.2387 -0.3899
   91MOL    C2923609   2.122   1.320   3.427 -0.1501  0.0335  0.9485
   91MOL    O3023610   2.116   1.468   3.425  0.0717  0.0762  0.0613
   91MOL    C3123611   2.247   1.532   3.438 -0.0859  0.4396 -0.5340
   91MOL    C3223612   2.233   1.665   3.375  0.1214  0.5563 -0.0841
   91MOL    H3323613   2.178   1.359   3.638 -0.6394 -0.1851  0.1589
   91MOL    H3423614   2.100   1.213   3.618  0.0426 -0.0502 -0.9458
   91MOL    H3523615   2.197   1.293   3.354  0.2712  0.2773  1.2901
   91MOL    H3623616   2.318   1.474   3.380 -0.2421 -0.1106 -0.1777
   91MOL    H3723617   2.285   1.532   3.540  0.1686 -0.1981 -0.6280
   91MOL    H3823618   2.166   1.725   3.437  1.7784  2.2321  0.1257
   91MOL    H3923619   2.329   1.717   3.380  0.0929  0.8252 -2.2340
   91MOL    H4023620   2.199   1.650   3.273 -0.7418  0.0316  0.2759
   91MOL    C4123621   1.978   1.279   3.386 -0.0197  0.1575  0.4094
   91MOL    C4223622   1.918   1.342   3.260 -0.2170  0.0025  0.2400
   91MOL    O4323623   1.778   1.316   3.234  0.0499  0.3589 -0.0319
   91MOL    C4423624   1.690   1.397   3.303  0.1805 -0.0305  0.2081
   91MOL    C4523625   1.566   1.305   3.328 -0.3445 -0.5928  0.4868
   91MOL    H4623626   1.919   1.298   3.476  0.3194 -1.4449  0.9879
   91MOL    H4723627   1.978   1.170   3.393  1.4811  0.1221 -0.1628
   91MOL    H4823628   1.942   1.448   3.259  0.5663 -0.1640 -1.3189
   91MOL    H4923629   1.665   1.489   3.251  0.7953 -0.2696 -0.5318
   91MOL    H5023630   1.726   1.428   3.401  0.5122  1.3549 -0.3409
   91MOL    H5123631   1.579   1.217   3.391 -1.4006 -1.5314 -0.5765
   91MOL    H5223632   1.490   1.353   3.389  0.2652 -1.7679  2.2061
   91MOL    H5323633   1.525   1.282   3.230 -0.0739  0.3044  0.1589
   91MOL    C5423634   1.998   1.298   3.133 -0.2581  0.1498  0.2738
   91MOL    C5523635   1.968   1.380   2.996 -0.8911  0.4578 -0.3949
   91MOL    O5623636   2.068   1.347   2.895  0.4055  0.0595  0.0053
   91MOL    C5723637   2.048   1.220   2.832  0.0137  0.6836 -0.7442
   91MOL    C5823638   2.149   1.209   2.721 -0.3814  0.0852 -0.2855
   91MOL    H5923639   1.988   1.192   3.108 -2.1014  0.8139 -1.9069
   91MOL    H6023640   2.105   1.296   3.155 -0.0332 -0.2567 -0.8463
   91MOL    H6123641   1.871   1.349   2.957 -1.5524  1.7744  0.1621
   91MOL    H6223642   1.956   1.214   2.775  0.6832  1.0479 -1.8749
   91MOL    H6323643   2.074   1.136   2.897 -0.4140  1.6497  0.7030
   91MOL    H6423644   2.151   1.300   2.661 -0.3383  1.1584  1.3185
   91MOL    H6523645   2.248   1.192   2.761 -0.0717  0.1883 -0.9977
   91MOL    H6623646   2.132   1.125   2.654  0.2391 -0.5954  0.4076
   91MOL    C6723647   1.974   1.523   3.009  0.5013 -0.3081  0.3484
   91MOL    C6823648   1.977   1.611   2.875  0.5395 -0.6760 -0.3478
   91MOL    O6923649   1.966   1.756   2.885  0.4690 -0.6569  0.2266
   91MOL    C7023650   2.088   1.819   2.931  0.8363  0.3745 -0.1643
   91MOL    C7123651   2.076   1.966   2.958 -0.4705 -0.1655 -0.2764
   91MOL    H7223652   2.052   1.544   3.082  0.0424  1.1959  0.4138
   91MOL    H7323653   1.884   1.554   3.061  1.2464  0.3953  1.2203
   91MOL    H7423654   2.080   1.597   2.841  0.5209  1.5238 -1.4128
   91MOL    H7523655   2.160   1.795   2.852  3.0511 -1.2143  2.2456
   91MOL    H7623656   2.117   1.766   3.022  0.4690  0.8321  0.2206
   91MOL    H7723657   2.177   1.999   2.982 -0.3705  0.1565 -1.1518
   91MOL    H7823658   2.056   2.032   2.874 -0.3643  0.3642  0.1045
   91MOL    H7923659   2.005   1.988   3.038  1.2658  0.4195  1.1292
   91MOL    C8023660   1.872   1.580   2.762  0.6908 -0.0350 -0.0974
   91MOL    C8123661   1.913   1.614   2.616  0.3524 -0.6619 -0.9688
   91MOL    O8223662   1.789   1.618   2.532  0.2945 -0.0055 -0.7117
   91MOL    C8323663   1.763   1.715   2.423 -0.0658  0.5352  0.5925
   91MOL    C8423664   1.622   1.772   2.450 -0.1378  0.1277  0.7416
   91MOL    H8523665   1.774   1.619   2.786 -0.1912 -2.7868  1.0440
   91MOL    H8623666   1.858   1.472   2.756  0.3072  0.0673 -1.0086
   91MOL    H8723667   1.944   1.719   2.616 -0.1892 -0.4942  0.1509
   91MOL    H8823668   1.788   1.668   2.328 -0.3177  1.0640  0.2616
   91MOL    H8923669   1.834   1.797   2.417 -0.9157  1.2185 -0.4998
   91MOL    H9023670   1.611   1.835   2.538  1.7349 -0.4728  1.4356
   91MOL    H9123671   1.586   1.828   2.364 -1.0543 -2.2918 -0.5104
   91MOL    H9223672   1.557   1.688   2.473 -1.3474  1.2781  1.5473
   91MOL    C9323673   2.023   1.519   2.558  0.7084 -0.6627  0.2804
   91MOL    C9423674   2.071   1.552   2.414  0.0422  0.5236 -0.4294
   91MOL    O9523675   2.155   1.448   2.378  0.4706  0.2234 -0.0474
   91MOL    C9623676   2.104   1.361   2.275  0.4670 -0.3352 -0.5176
   91MOL    C9723677   2.173   1.227   2.279 -0.6098 -0.5796  0.0100
   91MOL    H9823678   1.965   1.427   2.566  1.0576 -0.8243  0.9373
   91MOL    H9923679   2.104   1.512   2.630  1.4373 -3.0024 -0.7248
   91MOL   H10023680   1.986   1.546   2.346  0.6830  1.2011 -1.3063
   91MOL   H10123681   2.117   1.388   2.170 -1.1787 -1.9628 -1.1591
   91MOL   H10223682   1.999   1.347   2.300  0.0573  2.2722 -0.6197
   91MOL   H10323683   2.132   1.166   2.360 -1.7126  0.1140 -0.0127
   91MOL   H10423684   2.154   1.165   2.192  0.5048 -0.9446  0.0127
   91MOL   H10523685   2.281   1.233   2.294 -0.7699 -0.6499  1.2870
   91MOL   C10623686   2.144   1.689   2.408  0.6081  0.2798  0.1755
   91MOL   C10723687   2.253   1.732   2.519 -0.2683  0.9540 -0.0515
   91MOL   O10823688   2.295   1.873   2.515 -0.5752 -0.0699 -0.5705
   91MOL   C10923689   2.221   1.954   2.602  0.5306 -0.1978 -0.0225
   91MOL   C11023690   2.242   2.097   2.567  0.2754 -0.1250  0.5246
   91MOL   H11123691   2.055   1.751   2.418 -0.0028 -0.6194  0.4126
   91MOL   H11223692   2.199   1.698   2.314 -0.3933 -4.4415 -1.0067
   91MOL   H11323693   2.195   1.715   2.610 -0.6561  1.9667 -0.1094
   91MOL   H11423694   2.237   1.942   2.710 -0.3024  0.4777  0.1787
   91MOL   H11523695   2.116   1.927   2.592  0.2601  1.5448 -2.0814
   91MOL   H11623696   2.200   2.158   2.647 -0.6661  0.4844 -0.4199
   91MOL   H11723697   2.347   2.125   2.563  0.2642 -0.2448 -0.9233
   91MOL   H11823698   2.194   2.126   2.474  1.4447 -0.3347 -0.1469
   91MOL   C11923699   2.382   1.641   2.520 -0.1458  0.3561  0.8606
   91MOL   C12023700   2.485   1.651   2.636  0.2485 -0.1614 -1.2054
   91MOL   O12123701   2.600   1.580   2.608  0.3389 -0.0013 -0.4699
   91MOL   C12223702   2.698   1.655   2.537 -0.6377 -0.1799  0.1667
   91MOL   C12323703   2.827   1.574   2.508  0.1198 -0.2075 -0.3889
   91MOL   H12423704   2.426   1.658   2.422 -0.3475 -2.7961  0.1565
   91MOL   H12523705   2.336   1.542   2.511  0.2747  0.0864  1.6447
   91MOL   H12623706   2.497   1.757   2.658 -1.0338 -0.0961 -0.7728
   91MOL   H12723707   2.726   1.742   2.597 -2.0660 -1.7114  3.1544
   91MOL   H12823708   2.656   1.681   2.440  0.6437 -0.3273 -0.4338
   91MOL   H12923709   2.908   1.626   2.456  0.2678 -0.5900 -0.5423
   91MOL   H13023710   2.855   1.544   2.609  1.5466  0.1822 -0.6531
   91MOL   H13123711   2.816   1.482   2.452 -0.2791 -1.0891  1.1044
   91MOL   C13223712   2.418   1.594   2.767 -0.0379 -0.8323  0.1994
   91MOL   C13323713   2.518   1.572   2.877  0.4240 -0.6822  0.4955
   91MOL   O13423714   2.460   1.508   2.988 -0.2840 -0.5178 -0.5043
   91MOL   C13523715   2.426   1.371   2.971 -0.4689 -0.1692  0.1327
   91MOL   C13623716   2.406   1.320   3.118 -0.4066 -0.0695  0.2447
   91MOL   H13723717   2.359   1.508   2.734 -0.3697  0.1527 -1.8473
   91MOL   H13823718   2.347   1.672   2.795  0.7770 -0.2318  0.6109
   91MOL   H13923719   2.598   1.509   2.838  0.9010  0.4171 -0.3201
   91MOL   H14023720   2.511   1.321   2.924  0.4501  1.8732 -0.4057
   91MOL   H14123721   2.338   1.358   2.907  0.3245  1.3782 -1.2967
   91MOL   H14223722   2.391   1.213   3.132  1.2985 -0.5205 -1.1973
   91MOL   H14323723   2.493   1.347   3.179 -1.8241  1.0698  1.8036
   91MOL   H14423724   2.319   1.365   3.166  0.8115 -0.5361  3.0193
   91MOL   C14523725   2.565   1.703   2.941 -0.0493  0.0356  0.7048
   91MOL   C14623726   2.697   1.707   3.017 -0.5117  0.3135 -0.4535
   91MOL   O14723727   2.704   1.816   3.110 -0.1999  0.7879  0.3250
   91MOL   C14823728   2.594   1.814   3.201 -0.2860  0.4270  0.1500
   91MOL   C14923729   2.607   1.922   3.310  0.9743  0.0127 -0.2706
   91MOL   H15023730   2.482   1.739   3.001 -0.3043 -0.5631  0.7161
   91MOL   H15123731   2.571   1.778   2.862  0.7289  0.5707  1.2612
   91MOL   H15223732   2.693   1.612   3.071 -0.0230  1.2528  1.2938
   91MOL   H15323733   2.571   1.715   3.241  0.2793  1.1505  2.3440
   91MOL   H15423734   2.500   1.846   3.157 -0.7349 -0.5459  0.3949
   91MOL   H15523735   2.694   1.901   3.373  1.3999 -2.3928 -1.5889
   91MOL   H15623736   2.618   2.023   3.271  0.5280  0.8144  1.6287
   91MOL   H15723737   2.517   1.907   3.370  1.6199 -0.0486  0.7047
   91MOL   C15823738   2.823   1.707   2.925 -0.1057  0.0704  0.6620
   91MOL   C15923739   2.952   1.692   3.004  0.1631 -0.1618  0.2602
   91MOL   O16023740   3.050   1.788   2.950  0.4045  0.2643  0.3363
   91MOL   C16123741   3.064   1.904   3.021  0.1335  0.2784 -0.9295
   91MOL   C16223742   3.194   1.961   2.956 -0.2295 -0.1263 -0.9204
   91MOL   H16323743   2.829   1.809   2.888  1.3401 -1.3036 -3.1095
   91MOL   H16423744   2.818   1.637   2.842  0.3395  0.4811  0.2816
   91MOL   H16523745   2.945   1.717   3.110 -0.8406  2.1556 -0.3326
   91MOL   H16623746   3.081   1.883   3.127 -0.6672 -0.7821 -1.0019
   91MOL   H16723747   2.978   1.968   3.002 -0.2864  0.0095  0.0233
   91MOL   H16823748   3.219   2.052   3.010 -0.3319 -0.7693  0.2160
   91MOL   H16923749   3.281   1.897   2.974 -0.1185  0.4527  0.6663
   91MOL   H17023750   3.195   1.979   2.848 -0.8708  1.9375 -0.5908
   91MOL   C17123751   3.002   1.546   2.984  0.6445 -0.1860 -0.0113
   91MOL   C17223752   3.144   1.523   3.040  0.0966  0.3042 -0.0610
   91MOL   O17323753   3.188   1.402   2.985  0.0099  0.5145 -0.7396
   91MOL   C17423754   3.259   1.418   2.860 -0.3764  0.0285  0.5738
   91MOL   C17523755   3.322   1.280   2.825 -0.4481 -0.5423 -0.8231
   91MOL   H17623756   2.999   1.519   2.879 -1.5141  1.7728 -0.4895
   91MOL   H17723757   2.934   1.475   3.032  1.2698  0.6715  2.1921
   91MOL   H17823758   3.214   1.600   3.007 -0.6003  0.5879 -0.8963
   91MOL   H17923759   3.327   1.502   2.875 -0.3127  0.0818 -0.0249
   91MOL   H18023760   3.203   1.450   2.772  1.4150  0.4450 -0.4494
   91MOL   H18123761   3.246   1.203   2.817 -0.8331 -0.1065 -1.4387
   91MOL   H18223762   3.382   1.287   2.733 -0.9811  0.9942 -1.0712
   91MOL   H18323763   3.380   1.247   2.911 -0.3368 -0.1505 -0.7464
   91MOL   C18423764   3.165   1.522   3.194  0.4172  0.0159  0.0619
   91MOL   C18523765   3.312   1.505   3.230 -0.5108  0.5113  0.1572
   91MOL   O18623766   3.313   1.505   3.373  0.2240  0.5782  0.3728
   91MOL   C18723767   3.317   1.378   3.427 -0.1818  0.3233 -0.1455
   91MOL   C18823768   3.330   1.388   3.582 -0.4126  0.0005  0.4899
   91MOL   H18923769   3.099   1.444   3.234 -1.1053  1.3382  0.2112
   91MOL   H19023770   3.131   1.619   3.230 -1.6984 -0.6554 -0.0432
   91MOL   H19123771   3.341   1.407   3.192 -1.4647  1.0835 -2.1422
   91MOL   H19223772   3.403   1.329   3.383 -1.2748 -1.1561 -0.6945
   91MOL   H19323773   3.231   1.318   3.395  0.8350 -1.0720 -0.2952
   91MOL   H19423774   3.355   1.295   3.635  1.6920 -0.5555 -1.3861
   91MOL   H19523775   3.408   1.454   3.621 -1.5112  2.1560 -0.8880
   91MOL   H19623776   3.235   1.426   3.617 -1.6061 -1.5198 -1.0304
   91MOL   C19723777   3.418   1.605   3.176 -0.2481  0.0636  0.2604
   91MOL   C19823778   3.564   1.605   3.235  0.4523  0.1636 -0.4219
   91MOL   O19923779   3.600   1.471   3.235 -0.2382  0.0145 -0.0353
   91MOL   C20023780   3.671   1.422   3.123  0.0296  0.4903  0.8541
   91MOL   C20123781   3.654   1.275   3.135 -0.2226  0.0644  0.6012
   91MOL   H20223782   3.363   1.699   3.178 -3.0619 -1.5199  0.5984
   91MOL   H20323783   3.425   1.581   3.070 -0.3291 -1.6653  0.6199
   91MOL   H20423784   3.624   1.665   3.166 -0.1359  1.5783  0.2713
   91MOL   H20523785   3.772   1.461   3.138  1.0236 -0.7704 -2.2603
   91MOL   H20623786   3.628   1.457   3.030 -1.9233 -2.2172  0.6956
   91MOL   H20723787   3.703   1.234   3.224 -0.3137 -2.7548 -0.6002
   91MOL   H20823788   3.549   1.248   3.143 -0.3278 -0.0420 -1.1002
   91MOL   H20923789   3.693   1.214   3.054 -1.3194 -1.0814  0.9152
   91MOL   C21023790   3.579   1.676   3.372 -0.4870 -0.7487  0.1214
   91MOL   C21123791   3.731   1.679   3.412  0.2763  0.1612  0.2732
   91MOL   O21223792   3.742   1.752   3.537  0.2914  0.2096 -0.1854
   91MOL   C21323793   3.673   1.688   3.652 -0.3778 -0.2276  0.2962
   91MOL   C21423794   3.737   1.754   3.771  0.4782  0.2959  0.4499
   91MOL   H21523795   3.519   1.625   3.448 -0.4256 -1.6115 -0.4032
   91MOL   H21623796   3.541   1.778   3.377 -1.1437 -1.0030  0.2919
   91MOL   H21723797   3.771   1.580   3.432 -2.2699 -1.1416 -0.9426
   91MOL   H21823798   3.670   1.579   3.656 -0.5977 -0.1335  3.7043
   91MOL   H21923799   3.573   1.728   3.639 -0.2251 -0.3475 -1.4354
   91MOL   H22023800   3.674   1.759   3.859  1.2417  1.6258  0.9354
   91MOL   H22123801   3.839   1.719   3.787 -0.3313 -1.7448  1.3080
   91MOL   H22223802   3.741   1.859   3.741 -0.7811  0.1502 -0.2583
   91MOL   C22323803   3.830   1.761   3.316  0.1827 -0.2100 -0.0321
   91MOL   C22423804   3.978   1.781   3.366  0.4489  0.1791 -0.2070
   91MOL   O22523805   4.048   1.856   3.270 -0.8329 -0.2422  0.1957
   91MOL   C22623806   4.015   2.000   3.259  0.1748  0.1420  0.9066
   91MOL   C22723807   4.034   2.092   3.376 -0.5776  0.4224 -0.4030
   91MOL   H22823808   3.791   1.862   3.298 -0.0715 -0.0697  1.2410
   91MOL   H22923809   3.824   1.720   3.216 -1.5830  0.5004 -0.2343
   91MOL   H23023810   3.967   1.826   3.465 -0.3760  1.3352 -0.8099
   91MOL   H23123811   3.915   2.008   3.216  0.3394 -0.1777  0.4697
   91MOL   H23223812   4.085   2.035   3.183 -1.3109  1.8297  0.2623
   91MOL   H23323813   3.959   2.089   3.456 -1.3914  0.7024 -1.1540
   91MOL   H23423814   4.128   2.058   3.420 -0.5107 -0.8783 -1.5218
   91MOL   H23523815   4.032   2.196   3.344  3.8653  0.9255  0.5969
   91MOL   C23623816   4.052   1.655   3.386  0.6837 -0.5902  0.9776
   91MOL   C23723817   4.191   1.673   3.462 -0.0963 -0.2081 -0.4298
   91MOL   O23823818   4.263   1.553   3.459 -0.0352  0.5923  0.2373
   91MOL   C23923819   4.354   1.538   3.345  0.3325 -0.3679 -0.0032
   91MOL   C24023820   4.442   1.410   3.358  0.6748  0.1070 -0.3180
   91MOL   H24123821   4.063   1.613   3.286 -3.1823 -0.4972  0.4340
   91MOL   H24223822   3.989   1.584   3.441 -0.7522 -1.1238 -1.2515
   91MOL   H24323823   4.245   1.751   3.408  0.2323  0.8319  1.3600
   91MOL   H24423824   4.413   1.629   3.331 -1.0082  0.2987 -1.4485
   91MOL   H24523825   4.295   1.528   3.254 -1.6752 -1.4196  1.3743
   91MOL   H24623826   4.498   1.398   3.265 -1.6531  0.4777 -1.7970
   91MOL   H24723827   4.516   1.419   3.437  1.2255  2.2113 -1.0251
   91MOL   H24823828   4.385   1.318   3.364 -0.9491  1.1206 -0.0399
   91MOL   C24923829   4.188   1.730   3.605 -0.7369  0.2154  0.3234
   91MOL   C25023830   4.318   1.702   3.682  0.1346  0.1289  0.6655
   91MOL   O25123831   4.304   1.757   3.806 -0.0031 -0.1269 -0.0746
   91MOL   C25223832   4.425   1.769   3.872  0.2024  0.5573 -0.0034
   91MOL   C25323833   4.387   1.823   4.015 -0.3328 -0.1241  1.1455
   91MOL   H25423834   4.101   1.691   3.658  0.4720 -0.4697  1.8366
   91MOL   H25523835   4.178   1.839   3.601  0.8398  0.3260 -1.5488
   91MOL   H25623836   4.330   1.596   3.705 -1.0118 -0.7667 -2.7214
   91MOL   H25723837   4.495   1.835   3.822  0.9806 -0.1143  0.1909
   91MOL   H25823838   4.487   1.680   3.881  0.0659  0.3263 -1.3023
   91MOL   H25923839   4.306   1.895   4.017 -0.2675 -0.0452  0.9249
   91MOL   H26023840   4.353   1.735   4.071 -1.5242 -1.2078 -1.2316
   91MOL   H26123841   4.472   1.873   4.062 -0.5488  1.3397 -0.0101
   91MOL   H26223842   4.395   1.744   3.617  0.3996  1.3840  1.7769
   92MOL     C123843   7.018   3.429   2.693  0.0369 -0.6040  0.6641
   92MOL     C223844   6.889   3.370   2.624 -0.0445  0.1788 -0.1495
   92MOL     O323845   6.772   3.432   2.680 -0.2275  0.1211  0.6430
   92MOL     C423846   6.755   3.570   2.669  0.2365 -0.2704  0.1541
   92MOL     C523847   6.614   3.600   2.705  0.8316 -1.8212  0.6169
   92MOL     H623848   7.107   3.376   2.659  0.9236  1.0084  0.4296
   92MOL     H723849   7.034   3.535   2.673  0.0191 -0.8681 -0.7603
   92MOL     H823850   6.887   3.391   2.517  0.6703  0.9968 -0.0080
   92MOL     H923851   6.770   3.582   2.561 -0.1081  0.0070  0.1386
   92MOL    H1023852   6.825   3.613   2.740 -1.8005  1.0768  1.3876
   92MOL    H1123853   6.595   3.582   2.811 -0.1775  0.8291  0.9396
   92MOL    H1223854   6.599   3.707   2.689  0.7574 -2.0398 -0.7891
   92MOL    H1323855   6.533   3.557   2.646  0.4627 -0.0369 -0.2059
   92MOL    H1423856   6.996   3.422   2.800 -0.4061  0.5985  0.6559
   92MOL    C1523857   6.896   3.214   2.638 -0.2269 -0.3950  0.4888
   92MOL    C1623858   6.834   3.142   2.519  0.6492  0.9341  0.2122
   92MOL    O1723859   6.792   3.013   2.559 -0.4442  0.1786  0.2952
   92MOL    C1823860   6.655   3.027   2.603  0.5118 -0.4875 -0.2591
   92MOL    C1923861   6.604   2.898   2.652 -0.1176 -0.2144 -0.2647
   92MOL    H2023862   6.844   3.176   2.726 -0.8501 -0.5122  0.0723
   92MOL    H2123863   6.998   3.182   2.657 -0.2434 -0.4595  0.4658
   92MOL    H2223864   6.757   3.206   2.477  1.4055  1.9363  0.3315
   92MOL    H2323865   6.600   3.066   2.518 -1.3211  1.2838  1.6780
   92MOL    H2423866   6.634   3.104   2.677  3.0789  0.4099 -0.4103
   92MOL    H2523867   6.593   2.830   2.568 -1.1074 -1.1976  0.6515
   92MOL    H2623868   6.515   2.914   2.713  0.2571  0.0463  0.2141
   92MOL    H2723869   6.678   2.857   2.720 -1.8005  0.1502  1.8209
   92MOL    C2823870   6.934   3.112   2.402 -0.0004  0.8955 -0.1196
   92MOL    C2923871   6.889   3.013   2.292  1.0526  0.3409 -0.3800
   92MOL    O3023872   7.002   2.997   2.207  0.4133  0.6408  0.2468
   92MOL    C3123873   7.088   2.888   2.244  0.4681 -0.1071 -0.0990
   92MOL    C3223874   7.237   2.921   2.222  0.0492  0.3345  0.1111
   92MOL    H3323875   7.035   3.092   2.440  0.2915  0.3399 -1.1780
   92MOL    H3423876   6.966   3.207   2.358  1.2098  0.5052 -0.0931
   92MOL    H3523877   6.866   2.918   2.339  1.3712  0.0462 -0.8097
   92MOL    H3623878   7.054   2.802   2.186 -3.3647  0.0324  1.7784
   92MOL    H3723879   7.075   2.863   2.349 -1.9955  1.0977 -0.0787
   92MOL    H3823880   7.296   2.852   2.162  2.1602  2.3862 -0.2381
   92MOL    H3923881   7.231   3.009   2.158  1.5417 -0.6060 -1.3665
   92MOL    H4023882   7.293   2.954   2.309 -0.2044  0.6013  0.1731
   92MOL    C4123883   6.761   3.061   2.220  0.8174 -0.2489 -0.0838
   92MOL    C4223884   6.719   2.984   2.097 -0.3436 -0.0012 -0.6072
   92MOL    O4323885   6.596   3.036   2.051  0.1409 -0.1695 -0.4227
   92MOL    C4423886   6.602   3.136   1.956 -0.1974  0.1967 -0.4029
   92MOL    C4523887   6.460   3.190   1.942  0.3548  0.1221 -0.0447
   92MOL    H4623888   6.780   3.167   2.207  1.7932 -0.2808  0.9836
   92MOL    H4723889   6.682   3.057   2.295  0.9694 -0.2846  0.0750
   92MOL    H4823890   6.798   2.999   2.023 -0.3372  0.0661 -0.5856
   92MOL    H4923891   6.636   3.099   1.860  2.9110 -0.1634  0.7535
   92MOL    H5023892   6.669   3.211   2.000  0.0392 -1.3342  1.9517
   92MOL    H5123893   6.422   3.238   2.032  0.7113 -4.1232  2.4761
   92MOL    H5223894   6.462   3.272   1.870  2.1674 -1.6308 -2.0860
   92MOL    H5323895   6.391   3.118   1.898  1.5984 -2.9127  2.7635
   92MOL    C5423896   6.695   2.835   2.123 -0.2114  0.7401 -0.1847
   92MOL    C5523897   6.690   2.741   1.998 -0.5735 -0.2141  0.3960
   92MOL    O5623898   6.664   2.613   2.059 -0.3559 -0.7258 -0.1835
   92MOL    C5723899   6.531   2.563   2.044  0.2501 -0.0783 -0.0801
   92MOL    C5823900   6.524   2.442   2.131  0.1889  0.2707 -0.0713
   92MOL    H5923901   6.603   2.828   2.183  0.3169  0.6252  0.6234
   92MOL    H6023902   6.774   2.788   2.182  0.1520  0.7417 -0.6757
   92MOL    H6123903   6.621   2.774   1.920  1.8499 -1.3477 -2.3152
   92MOL    H6223904   6.521   2.537   1.939  1.6186  2.4776 -0.8771
   92MOL    H6323905   6.458   2.641   2.062 -0.9585 -0.6049 -2.4968
   92MOL    H6423906   6.619   2.389   2.130 -0.3505 -0.6936 -1.3151
   92MOL    H6523907   6.482   2.457   2.230 -0.4331 -5.1677  0.6501
   92MOL    H6623908   6.454   2.373   2.083 -1.5116  1.2674  0.9002
   92MOL    C6723909   6.827   2.735   1.928 -0.3024  0.2990 -0.5546
   92MOL    C6823910   6.845   2.624   1.830  0.3451 -0.1664  0.7905
   92MOL    O6923911   6.891   2.516   1.915 -0.0295  0.0968  0.1938
   92MOL    C7023912   6.832   2.393   1.873 -0.1831  0.3799  0.3864
   92MOL    C7123913   6.871   2.289   1.970 -0.2285 -0.1990 -0.3163
   92MOL    H7223914   6.900   2.726   2.009 -1.4356 -1.4331  0.3113
   92MOL    H7323915   6.856   2.828   1.880  1.8605 -1.1742 -2.1758
   92MOL    H7423916   6.752   2.612   1.773  1.0316  0.3321 -0.4401
   92MOL    H7523917   6.857   2.375   1.768  1.1166  0.5959  0.6483
   92MOL    H7623918   6.723   2.392   1.881 -0.4670  2.3451 -2.3730
   92MOL    H7723919   6.813   2.197   1.959  0.2728 -0.6894  1.0694
   92MOL    H7823920   6.977   2.274   1.953 -0.0383 -0.0763  0.7222
   92MOL    H7923921   6.855   2.329   2.070  0.9195 -1.2813  0.3130
   92MOL    C8023922   6.967   2.646   1.730  0.1792 -0.0008  0.2103
   92MOL    C8123923   6.940   2.756   1.619 -0.8293 -0.1841  0.0812
   92MOL    O8223924   6.835   2.690   1.550 -0.0824 -0.3485 -0.0907
   92MOL    C8323925   6.744   2.777   1.478  0.7893  0.2402 -0.6224
   92MOL    C8423926   6.621   2.699   1.428  0.2159 -1.0944  0.6382
   92MOL    H8523927   6.994   2.554   1.679  1.4779  0.6214 -0.2641
   92MOL    H8623928   7.058   2.666   1.785  1.2851 -0.1624 -1.5055
   92MOL    H8723929   6.901   2.851   1.655  0.3245  0.4932 -0.3965
   92MOL    H8823930   6.774   2.830   1.388  1.2896 -2.0065 -1.8109
   92MOL    H8923931   6.719   2.856   1.549 -0.7335 -0.8325  0.0591
   92MOL    H9023932   6.535   2.762   1.403 -0.5941 -1.8452  1.5338
   92MOL    H9123933   6.649   2.632   1.347  2.4761  1.5110 -0.8546
   92MOL    H9223934   6.589   2.643   1.515 -0.2482 -1.3195  0.3227
   92MOL    C9323935   7.061   2.779   1.515 -0.6192 -0.2127  0.6639
   92MOL    C9423936   7.157   2.894   1.539 -0.0913  0.0731  0.2483
   92MOL    O9523937   7.216   2.859   1.661 -0.8014  0.3825  0.1920
   92MOL    C9623938   7.339   2.920   1.684 -0.2462  1.0645 -0.1535
   92MOL    C9723939   7.428   2.839   1.776  0.5427  0.8063  0.3009
   92MOL    H9823940   7.016   2.802   1.419  2.3615 -0.8114 -0.9623
   92MOL    H9923941   7.105   2.679   1.504  0.6774  0.4534 -0.2608
   92MOL   H10023942   7.223   2.889   1.452 -0.5853  0.9364 -0.1862
   92MOL   H10123943   7.327   3.008   1.748 -1.8441 -1.1304  2.7124
   92MOL   H10223944   7.398   2.940   1.595 -0.4369 -2.0737 -1.0657
   92MOL   H10323945   7.362   2.818   1.860 -0.7056  1.3582 -0.5257
   92MOL   H10423946   7.460   2.742   1.737  0.5664  0.3755  1.3710
   92MOL   H10523947   7.519   2.895   1.798  0.1197  2.4300 -1.9309
   92MOL   C10623948   7.095   3.035   1.559 -0.5331  0.2265 -0.2401
   92MOL   C10723949   7.009   3.098   1.440 -0.5614 -0.0146 -0.7140
   92MOL   O10823950   7.109   3.129   1.342  0.5187 -0.5110  0.0783
   92MOL   C10923951   7.050   3.129   1.208 -0.0224 -0.1256  0.0801
   92MOL   C11023952   7.156   3.185   1.113 -0.3734  0.5618  0.6837
   92MOL   H11123953   7.166   3.109   1.598  0.7729 -1.4355  0.6112
   92MOL   H11223954   7.030   3.033   1.646  0.5229  1.8666  0.6171
   92MOL   H11323955   6.941   3.018   1.411 -1.3202  0.6007 -0.6431
   92MOL   H11423956   6.970   3.203   1.206  0.8162  0.8208  0.7717
   92MOL   H11523957   7.019   3.030   1.176  3.0376 -0.6809 -1.4053
   92MOL   H11623958   7.242   3.117   1.115  0.0980  1.0850 -0.7751
   92MOL   H11723959   7.123   3.188   1.009 -2.7066 -1.9841  1.2791
   92MOL   H11823960   7.189   3.287   1.133  1.2200  0.4054 -1.0355
   92MOL   C11923961   6.934   3.230   1.475 -0.6066 -0.1457 -0.3913
   92MOL   C12023962   6.801   3.203   1.549 -0.0126 -0.1144  1.2807
   92MOL   O12123963   6.706   3.182   1.435 -0.2671  0.5169  0.1088
   92MOL   C12223964   6.580   3.125   1.464  0.1069 -0.2231 -0.5403
   92MOL   C12323965   6.538   3.050   1.340  0.0025  0.1453 -0.4957
   92MOL   H12423966   6.909   3.287   1.385 -1.4064 -0.5264 -0.4119
   92MOL   H12523967   7.000   3.301   1.525 -0.0756 -3.0435  3.2224
   92MOL   H12623968   6.804   3.109   1.604 -1.9413 -1.6855 -1.1965
   92MOL   H12723969   6.503   3.200   1.480  1.0189  0.5937  0.0422
   92MOL   H12823970   6.581   3.051   1.544 -0.2603 -1.1336 -1.3712
   92MOL   H12923971   6.502   3.124   1.268 -0.1006 -0.6093 -1.2191
   92MOL   H13023972   6.628   2.998   1.307  0.2902  1.3560 -1.6928
   92MOL   H13123973   6.450   2.988   1.353 -1.2585  1.9929 -0.0439
   92MOL   C13223974   6.751   3.322   1.634 -0.0063  0.3603  0.2442
   92MOL   C13323975   6.848   3.385   1.738 -0.0257 -0.0765  0.6532
   92MOL   O13423976   6.886   3.277   1.828 -0.1226 -0.1579 -0.4681
   92MOL   C13523977   7.022   3.280   1.859  0.2409  0.1006  0.0783
   92MOL   C13623978   7.041   3.172   1.962  0.2828 -0.3175 -0.3784
   92MOL   H13723979   6.661   3.295   1.690 -0.6344  2.0438  0.0810
   92MOL   H13823980   6.719   3.399   1.564 -1.1135  0.8871  1.2979
   92MOL   H13923981   6.936   3.422   1.686 -0.2224  1.1465  1.1595
   92MOL   H14023982   7.061   3.377   1.891 -1.5083  1.9088 -2.9966
   92MOL   H14123983   7.078   3.251   1.771 -0.5777 -0.5165 -0.2483
   92MOL   H14223984   7.147   3.163   1.989  0.0545  0.8458  1.0134
   92MOL   H14323985   6.995   3.202   2.056  2.4210  0.3722  0.5026
   92MOL   H14423986   7.008   3.076   1.923  1.5709 -0.9668  0.0929
   92MOL   C14523987   6.781   3.493   1.823  0.0877 -0.0452  0.1018
   92MOL   C14623988   6.752   3.626   1.749 -0.3867 -0.1097  0.4275
   92MOL   O14723989   6.874   3.684   1.698 -0.4663 -0.0918  0.7080
   92MOL   C14823990   6.863   3.755   1.577 -0.0546 -0.6253 -0.0237
   92MOL   C14923991   6.873   3.657   1.467 -0.1113  0.2537  0.7241
   92MOL   H15023992   6.851   3.509   1.905 -0.9167 -3.0077  1.6304
   92MOL   H15123993   6.689   3.455   1.866 -0.1020 -1.0628 -1.1374
   92MOL   H15223994   6.687   3.604   1.664  0.1530 -1.3656  0.3260
   92MOL   H15323995   6.946   3.825   1.574  0.8709 -1.7394 -0.8648
   92MOL   H15423996   6.766   3.803   1.581 -0.2971 -1.0846 -0.3173
   92MOL   H15523997   6.794   3.582   1.469 -0.1666  0.3007  0.2978
   92MOL   H15623998   6.866   3.712   1.373 -1.3189 -0.5461  0.3457
   92MOL   H15723999   6.965   3.599   1.471 -1.9711 -2.8602  0.0584
   92MOL   C15824000   6.678   3.728   1.842 -0.0909  0.2127 -1.1265
   92MOL   C15924001   6.535   3.692   1.890 -0.4675 -0.3506 -0.9814
   92MOL   O16024002   6.460   3.695   1.771  0.0264 -0.6304 -0.1194
   92MOL   C16124003   6.350   3.603   1.761 -0.0231 -0.3919 -0.6966
   92MOL   C16224004   6.248   3.662   1.668  0.2283 -0.5712 -0.1684
   92MOL   H16324005   6.690   3.827   1.799  1.9554  2.0351  3.3135
   92MOL   H16424006   6.737   3.737   1.933 -1.5913 -0.4329 -0.0573
   92MOL   H16524007   6.537   3.587   1.919  0.2210 -0.3012 -0.8305
   92MOL   H16624008   6.306   3.595   1.861  2.2245  1.6228  0.4963
   92MOL   H16724009   6.389   3.505   1.734  3.6104  0.9470 -0.6081
   92MOL   H16824010   6.208   3.755   1.708  0.8301 -0.5610  0.4023
   92MOL   H16924011   6.301   3.686   1.576  0.5179 -2.4613 -0.5063
   92MOL   H17024012   6.166   3.593   1.644 -0.4956  1.0081 -2.3930
   92MOL   C17124013   6.482   3.793   1.996  0.1325  0.2904 -0.4062
   92MOL   C17224014   6.533   3.783   2.146 -0.7930 -0.2220 -0.5795
   92MOL   O17324015   6.514   3.649   2.203  0.5672  0.0410 -0.1415
   92MOL   C17424016   6.633   3.586   2.225 -0.6853  0.7383 -0.7386
   92MOL   C17524017   6.626   3.458   2.316  0.2182  0.2642 -0.1039
   92MOL   H17624018   6.374   3.776   1.998  0.3385 -0.9816  0.8584
   92MOL   H17724019   6.501   3.897   1.968 -0.0014  0.1137 -1.1567
   92MOL   H17824020   6.634   3.824   2.140 -1.8505  2.5043 -0.3151
   92MOL   H17924021   6.683   3.665   2.280  0.3951 -0.8435  0.6092
   92MOL   H18024022   6.679   3.550   2.133 -0.2440 -0.3111 -0.1178
   92MOL   H18124023   6.580   3.371   2.269 -1.4392 -0.0880  2.0912
   92MOL   H18224024   6.723   3.439   2.363  0.7097  2.0527 -0.3335
   92MOL   H18324025   6.567   3.480   2.406  1.1346  0.6781  0.4063
   92MOL   C18424026   6.451   3.882   2.236  0.4913 -0.1490  0.0622
   92MOL   C18524027   6.509   3.921   2.374 -0.2462 -0.7245 -0.7429
   92MOL   O18624028   6.419   3.987   2.466  0.0955 -0.2417  0.1179
   92MOL   C18724029   6.337   3.902   2.534  0.0573 -0.1065  0.2020
   92MOL   C18824030   6.368   3.930   2.680  0.2969 -1.0841  0.2575
   92MOL   H18924031   6.358   3.827   2.250 -0.0135  0.0685 -2.1822
   92MOL   H19024032   6.426   3.976   2.187  0.1315  0.2008  0.9124
   92MOL   H19124033   6.561   3.848   2.436  1.1837  1.3792  0.6018
   92MOL   H19224034   6.348   3.795   2.519  3.9057  0.2488  0.0660
   92MOL   H19324035   6.234   3.924   2.505  0.1849  2.1521  1.3440
   92MOL   H19424036   6.476   3.932   2.694  0.2490 -1.0394  0.6156
   92MOL   H19524037   6.322   4.024   2.713 -0.4385 -1.3876  0.1133
   92MOL   H19624038   6.331   3.859   2.754  0.7216 -1.5733 -0.0017
   92MOL   C19724039   6.625   4.016   2.353 -0.0705  0.2446 -0.2797
   92MOL   C19824040   6.694   4.087   2.475  0.1380 -0.3376 -0.0249
   92MOL   O19924041   6.789   4.175   2.418  0.5703 -0.1761  0.0436
   92MOL   C20024042   6.740   4.312   2.400  0.3447 -0.1618  0.4231
   92MOL   C20124043   6.837   4.383   2.306  0.2747  0.3645 -0.7308
   92MOL   H20224044   6.580   4.100   2.300 -1.1494 -0.9323 -1.2658
   92MOL   H20324045   6.704   3.964   2.299 -1.0879  0.7219 -2.2942
   92MOL   H20424046   6.616   4.138   2.532  1.7973  4.7404 -1.9870
   92MOL   H20524047   6.741   4.374   2.490  0.4272  0.6342 -0.1166
   92MOL   H20624048   6.638   4.308   2.361 -0.6282  0.4162  2.8133
   92MOL   H20724049   6.799   4.484   2.289 -0.5338  0.4613  1.5280
   92MOL   H20824050   6.935   4.383   2.352  0.7608 -0.4257 -1.7388
   92MOL   H20924051   6.848   4.325   2.214  1.3375 -0.0056 -0.3761
   92MOL   C21024052   6.768   3.985   2.554 -0.6400  0.3934  0.2470
   92MOL   C21124053   6.837   4.030   2.682  0.3048 -0.1620  0.2563
   92MOL   O21224054   6.933   3.932   2.705  0.2424 -0.1422 -0.4617
   92MOL   C21324055   7.065   3.975   2.726  0.1406 -0.2208  0.6939
   92MOL   C21424056   7.138   3.842   2.763  0.0113 -0.1349  0.2484
   92MOL   H21524057   6.844   3.947   2.486 -0.3637 -1.6280  1.6422
   92MOL   H21624058   6.706   3.901   2.586 -2.8330  1.4156 -1.1422
   92MOL   H21724059   6.882   4.128   2.667  0.2135  0.1529  1.8713
   92MOL   H21824060   7.064   4.054   2.801  0.6944  0.3169  0.1335
   92MOL   H21924061   7.116   4.028   2.646 -2.4117  1.4372  0.0875
   92MOL   H22024062   7.246   3.859   2.763 -0.0619  0.3930  2.3412
   92MOL   H22124063   7.116   3.810   2.864 -0.4542  0.0691  0.2150
   92MOL   H22224064   7.107   3.752   2.710  2.0481 -0.0637 -1.1206
   92MOL   C22324065   6.740   4.034   2.802  0.0947 -0.5199  0.5571
   92MOL   C22424066   6.784   4.112   2.932  0.2822  0.1933 -0.4038
   92MOL   O22524067   6.750   4.023   3.046  0.2321 -0.6177  0.8362
   92MOL   C22624068   6.853   3.929   3.081  0.6016  0.2240  0.5179
   92MOL   C22724069   6.808   3.818   3.179  0.0989  0.1496  0.1209
   92MOL   H22824070   6.694   3.936   2.817  2.6147 -2.0939 -1.6318
   92MOL   H22924071   6.658   4.094   2.762  0.4047 -0.3874  0.1149
   92MOL   H23024072   6.891   4.129   2.942  0.7464 -1.6491 -1.9348
   92MOL   H23124073   6.929   3.994   3.126  0.7296 -0.3275  1.1097
   92MOL   H23224074   6.895   3.879   2.994 -2.0059  0.1104 -0.7086
   92MOL   H23324075   6.895   3.756   3.203 -0.1242  0.2924  1.3377
   92MOL   H23424076   6.761   3.852   3.271 -2.1932  1.8543 -1.6315
   92MOL   H23524077   6.752   3.742   3.124 -0.6068  0.1146  0.8785
   92MOL   C23624078   6.721   4.250   2.971 -0.3246 -0.2874 -0.3113
   92MOL   C23724079   6.744   4.363   2.873 -0.4281  0.2460  0.1440
   92MOL   O23824080   6.884   4.381   2.866  0.0983  0.4105  0.1435
   92MOL   C23924081   6.953   4.412   2.740  1.0590 -0.1434  0.1943
   92MOL   C24024082   7.008   4.559   2.739 -0.0682 -0.3050 -0.6005
   92MOL   H24124083   6.765   4.286   3.065  0.4416 -1.4349 -0.2210
   92MOL   H24224084   6.617   4.234   2.999 -0.1322  0.6041  0.9843
   92MOL   H24324085   6.706   4.324   2.779 -0.0650 -2.2598  1.0135
   92MOL   H24424086   6.871   4.388   2.672  0.8564 -0.8469  0.6775
   92MOL   H24524087   7.032   4.339   2.725  3.2728  2.8480 -3.4957
   92MOL   H24624088   6.932   4.636   2.726 -0.0350 -0.4364 -1.5474
   92MOL   H24724089   7.070   4.585   2.825  0.2550  1.2586 -1.2936
   92MOL   H24824090   7.079   4.547   2.658  1.1611  0.3791  0.3655
   92MOL   C24924091   6.684   4.495   2.911  0.7004  0.0905 -0.0319
   92MOL   C25024092   6.534   4.492   2.886  0.5468  0.0935  0.1920
   92MOL   O25124093   6.517   4.483   2.745 -0.4049 -0.3392 -0.1506
   92MOL   C25224094   6.384   4.463   2.695 -0.6052 -0.6119 -0.6667
   92MOL   C25324095   6.353   4.312   2.692 -0.0681  0.6498 -0.2494
   92MOL   H25424096   6.723   4.574   2.847 -0.9218  1.1042  0.1943
   92MOL   H25524097   6.697   4.524   3.016 -1.6677  3.8087 -0.6649
   92MOL   H25624098   6.489   4.399   2.921  1.1347 -0.6967 -1.1315
   92MOL   H25724099   6.375   4.524   2.605  0.5222 -1.5158 -1.3990
   92MOL   H25824100   6.315   4.502   2.770  0.5845 -4.3845  2.5570
   92MOL   H25924101   6.256   4.285   2.651  0.7531  1.5437 -2.9035
   92MOL   H26024102   6.431   4.267   2.629  2.0519  3.0040  0.6294
   92MOL   H26124103   6.358   4.271   2.792 -0.3485 -0.1196 -0.5446
   92MOL   H26224104   6.482   4.580   2.923  0.4746  0.0238  0.2578
   93MOL     C124105   4.378   6.890   5.228 -0.5276  0.2021  0.0396
   93MOL     C224106   4.349   7.004   5.135 -0.2495 -0.2183 -0.0962
   93MOL     O324107   4.429   7.120   5.162  0.5434 -0.0059  0.2268
   93MOL     C424108   4.552   7.117   5.092 -0.0437 -0.7579  0.3948
   93MOL     C524109   4.631   7.229   5.156  1.1094  1.1499 -0.6409
   93MOL     H624110   4.367   6.897   5.336  2.2878 -0.5914  0.4182
   93MOL     H724111   4.314   6.805   5.204  1.4802 -1.2846 -0.1924
   93MOL     H824112   4.375   6.980   5.032 -2.0061 -0.6858 -0.4545
   93MOL     H924113   4.529   7.139   4.988  0.2761 -2.0063  0.0476
   93MOL    H1024114   4.607   7.023   5.089 -1.0790 -1.3902  0.9118
   93MOL    H1124115   4.571   7.316   5.181 -1.6478 -0.9900  0.4952
   93MOL    H1224116   4.670   7.181   5.246 -0.8888  1.1092  0.2209
   93MOL    H1324117   4.723   7.249   5.100 -0.3476  1.3166 -3.0602
   93MOL    H1424118   4.483   6.862   5.218 -0.2476  1.3321 -0.2913
   93MOL    C1524119   4.206   7.038   5.166  0.6658  0.2515  0.2260
   93MOL    C1624120   4.155   7.149   5.072  0.0026  0.2285  0.9613
   93MOL    O1724121   4.034   7.217   5.121  0.0124  0.1036 -0.0074
   93MOL    C1824122   4.064   7.317   5.221  0.1667 -0.4312  0.0671
   93MOL    C1924123   3.931   7.338   5.306 -0.2673  0.3265 -0.0995
   93MOL    H2024124   4.186   7.068   5.268 -1.5591  0.5272 -0.2602
   93MOL    H2124125   4.131   6.962   5.142 -1.4727  1.5444  2.5790
   93MOL    H2224126   4.229   7.227   5.056  0.2931 -0.1179  0.5899
   93MOL    H2324127   4.096   7.415   5.185 -1.0950 -0.4000 -1.0044
   93MOL    H2424128   4.135   7.273   5.291  0.7804 -1.0558 -0.9241
   93MOL    H2524129   3.847   7.377   5.248 -2.9032  0.2975  3.5337
   93MOL    H2624130   3.949   7.411   5.385  1.0266 -0.3162  0.2091
   93MOL    H2724131   3.913   7.237   5.342  1.1604 -0.7404 -2.2464
   93MOL    C2824132   4.106   7.085   4.944  0.1616  0.0866  0.6141
   93MOL    C2924133   4.072   7.179   4.819  0.5602  1.0732  0.0644
   93MOL    O3024134   3.996   7.134   4.706 -1.0644 -0.2169  0.2585
   93MOL    C3124135   3.866   7.094   4.737 -0.0919 -0.1895 -0.1812
   93MOL    C3224136   3.771   7.122   4.619 -0.7108 -0.1986 -0.8339
   93MOL    H3324137   4.026   7.014   4.962  0.2176 -0.7895 -2.2541
   93MOL    H3424138   4.189   7.021   4.915  0.6325 -0.1465  2.4386
   93MOL    H3524139   4.021   7.263   4.867  1.4443  2.4402 -1.3107
   93MOL    H3624140   3.824   7.136   4.828  1.6752  0.0072  0.5543
   93MOL    H3724141   3.880   6.986   4.748 -0.6669 -0.5402 -2.6102
   93MOL    H3824142   3.773   7.228   4.596  1.5110 -0.0589 -0.1263
   93MOL    H3924143   3.805   7.063   4.534  0.9277 -1.2587  0.5224
   93MOL    H4024144   3.676   7.075   4.646  0.7619 -2.4415  0.6289
   93MOL    C4124145   4.211   7.228   4.760 -0.1097 -0.0215 -0.4303
   93MOL    C4224146   4.200   7.351   4.663  0.0327  0.1017 -0.6505
   93MOL    O4324147   4.328   7.410   4.642  0.3836 -0.0290 -0.4291
   93MOL    C4424148   4.409   7.338   4.553  0.8495 -0.7752 -0.0608
   93MOL    C4524149   4.553   7.304   4.599  0.0465  0.0395  0.3059
   93MOL    H4624150   4.258   7.145   4.708  0.5073 -2.2187  3.4726
   93MOL    H4724151   4.272   7.251   4.847 -1.6288 -0.5253  0.8059
   93MOL    H4824152   4.157   7.323   4.567 -2.4395  0.3421  0.3469
   93MOL    H4924153   4.405   7.401   4.465 -1.0231 -0.6720  0.0730
   93MOL    H5024154   4.364   7.245   4.517  0.2978 -0.6186  0.2029
   93MOL    H5124155   4.544   7.221   4.669  2.7861 -0.9800 -0.5128
   93MOL    H5224156   4.612   7.257   4.521  1.0125  2.4452 -0.4635
   93MOL    H5324157   4.609   7.390   4.637  0.2469  0.7909 -1.6145
   93MOL    C5424158   4.133   7.475   4.718 -0.6604  0.0699 -0.2800
   93MOL    C5524159   3.977   7.479   4.712 -0.3905  0.7717  0.2713
   93MOL    O5624160   3.926   7.547   4.596  0.2899 -0.0625  0.1893
   93MOL    C5724161   3.957   7.472   4.478 -0.5019  0.1774  0.3341
   93MOL    C5824162   3.843   7.499   4.379  0.4758  0.1722  0.3360
   93MOL    H5924163   4.177   7.567   4.680  0.9678 -0.7465 -0.4073
   93MOL    H6024164   4.172   7.485   4.820 -1.1294  3.1133 -0.3265
   93MOL    H6124165   3.929   7.382   4.721 -0.9031  0.9262 -0.7080
   93MOL    H6224166   3.981   7.368   4.499 -0.2072 -0.3059 -2.2528
   93MOL    H6324167   4.046   7.513   4.430 -0.4381 -0.2634  0.0719
   93MOL    H6424168   3.756   7.437   4.402 -0.2680  1.4750  1.0447
   93MOL    H6524169   3.804   7.600   4.379  0.2583  0.0883  0.2040
   93MOL    H6624170   3.877   7.466   4.280 -0.9234 -0.2486 -0.0161
   93MOL    C6724171   3.908   7.540   4.828  0.1696  0.6579 -0.3146
   93MOL    C6824172   3.754   7.527   4.834 -0.0712 -0.0727  1.0016
   93MOL    O6924173   3.699   7.657   4.851  0.4008 -0.0821 -0.5149
   93MOL    C7024174   3.684   7.742   4.745 -0.5290  0.5338  0.3491
   93MOL    C7124175   3.624   0.032   4.782 -0.2451 -0.0960  0.1322
   93MOL    H7224176   3.937   7.645   4.836  0.9590  0.6088 -2.2299
   93MOL    H7324177   3.944   7.505   4.925  2.4977 -0.2346 -1.4716
   93MOL    H7424178   3.706   7.499   4.740  1.9105  0.4587 -0.1844
   93MOL    H7524179   3.615   7.702   4.671 -0.1119  0.0637  0.2140
   93MOL    H7624180   3.785   7.747   4.704 -0.5950  0.2636  0.1511
   93MOL    H7724181   3.624   0.105   4.701 -0.6307 -1.3049 -0.9580
   93MOL    H7824182   3.516   0.024   4.790 -0.0505 -2.2435  0.8056
   93MOL    H7924183   3.668   0.066   4.877 -2.3738 -1.1940  1.5440
   93MOL    C8024184   3.706   7.427   4.937 -0.2009  0.3597  1.0379
   93MOL    C8124185   3.566   7.382   4.920 -0.3360 -0.0899 -0.0595
   93MOL    O8224186   3.526   7.313   5.041 -0.2313  0.3591  0.0695
   93MOL    C8324187   3.488   7.391   5.157  0.2001 -0.4406  0.4293
   93MOL    C8424188   3.340   7.408   5.160  0.2795 -0.0794  0.2181
   93MOL    H8524189   3.720   7.468   5.037 -0.5036 -0.3102  1.3508
   93MOL    H8624190   3.767   7.339   4.916 -1.7108 -0.2234 -1.0105
   93MOL    H8724191   3.515   7.478   4.916 -1.7518 -0.7744  1.3734
   93MOL    H8824192   3.533   7.489   5.175 -2.9397  1.0598  0.3832
   93MOL    H8924193   3.515   7.342   5.250 -0.7383 -1.2613  0.2704
   93MOL    H9024194   3.319   7.480   5.239 -0.4832 -1.0827  0.9437
   93MOL    H9124195   3.313   7.446   5.061  0.9599 -0.9372 -0.3035
   93MOL    H9224196   3.296   7.309   5.169  4.0323 -1.9014 -0.5014
   93MOL    C9324197   3.534   7.286   4.803 -0.3831  0.0265  0.4136
   93MOL    C9424198   3.382   7.271   4.762  0.0822 -0.4540  0.3096
   93MOL    O9524199   3.376   7.130   4.724  0.0330  0.3269  0.0926
   93MOL    C9624200   3.248   7.074   4.699  0.0364  0.4037 -0.1277
   93MOL    C9724201   3.266   6.924   4.664  0.2068 -0.6391 -0.6259
   93MOL    H9824202   3.582   7.190   4.817 -0.8675 -0.3857 -0.6421
   93MOL    H9924203   3.588   7.313   4.712 -0.4724 -0.2347  0.2819
   93MOL   H10024204   3.320   7.306   4.845 -2.0748 -0.2868 -1.3315
   93MOL   H10124205   3.203   7.116   4.609 -0.0974  0.9599  0.1981
   93MOL   H10224206   3.180   7.087   4.784  2.2708 -0.3790  1.8272
   93MOL   H10324207   3.172   6.875   4.639  0.1525 -1.0901  0.4731
   93MOL   H10424208   3.334   6.913   4.579 -1.1696 -1.9923 -1.5625
   93MOL   H10524209   3.324   6.880   4.745  1.2868 -0.5320 -1.3304
   93MOL   C10624210   3.346   7.360   4.628 -0.4838 -0.0530  0.2443
   93MOL   C10724211   3.354   7.514   4.648  0.4286  0.6123 -0.3636
   93MOL   O10824212   3.239   7.533   4.742 -0.1689 -0.0742  0.0779
   93MOL   C10924213   3.240   7.665   4.796  0.6262  0.2889  0.0055
   93MOL   C11024214   3.124   7.660   4.900  0.3685  0.7909  0.6450
   93MOL   H11124215   3.240   7.346   4.607 -0.5257  0.7026 -0.0920
   93MOL   H11224216   3.406   7.333   4.542 -0.1050  1.1645  0.1135
   93MOL   H11324217   3.444   7.533   4.706 -0.4274 -2.0543  1.9381
   93MOL   H11424218   3.212   7.733   4.716 -1.6678 -1.6803 -0.9432
   93MOL   H11524219   3.336   7.693   4.841  0.9917 -1.1918  0.1885
   93MOL   H11624220   3.129   7.566   4.955  0.7180  0.2510 -0.3018
   93MOL   H11724221   3.140   7.731   4.982 -0.1251  0.6570  0.8589
   93MOL   H11824222   3.024   7.667   4.860 -0.1371  1.0745  1.9330
   93MOL   C11924223   3.347   7.587   4.516  0.3077 -0.3620  0.8294
   93MOL   C12024224   3.215   7.580   4.435  1.1500 -0.1690  0.1180
   93MOL   O12124225   3.195   7.439   4.398  0.7193 -0.0881  0.2930
   93MOL   C12224226   3.071   7.402   4.350 -0.3530  0.3014 -0.3212
   93MOL   C12324227   3.079   7.274   4.270 -0.3525  0.3523  0.4395
   93MOL   H12424228   3.430   7.561   4.450 -1.2462 -1.1640 -0.8799
   93MOL   H12524229   3.362   7.692   4.540  0.2382 -0.3896  0.9931
   93MOL   H12624230   3.136   7.610   4.503  1.4478 -1.4979  1.0819
   93MOL   H12724231   3.024   7.483   4.294  2.0796  1.9389 -0.0591
   93MOL   H12824232   3.009   7.381   4.438 -0.8912  0.4516 -0.6616
   93MOL   H12924233   3.089   7.192   4.341 -1.9417 -1.9498 -1.8759
   93MOL   H13024234   2.988   7.255   4.213 -0.7357  1.6866  0.5861
   93MOL   H13124235   3.161   7.275   4.198 -0.4983 -1.5914  0.2102
   93MOL   C13224236   3.205   7.682   4.319  0.3017  0.2397  0.6853
   93MOL   C13324237   3.145   7.814   4.361 -0.5541 -0.1136 -0.4246
   93MOL   O13424238   3.003   7.787   4.365  0.1291  0.1023  0.0995
   93MOL   C13524239   2.922   0.015   4.461 -0.4674  0.0548 -0.3043
   93MOL   C13624240   2.788   7.796   4.474 -0.0253  0.0538 -0.4455
   93MOL   H13724241   3.150   7.634   4.238  2.6908  0.9722 -1.4530
   93MOL   H13824242   3.306   7.694   4.280  0.3645  1.3333  1.1786
   93MOL   H13924243   3.184   0.004   4.457  1.8696  0.7421 -1.6687
   93MOL   H14024244   2.914   0.119   4.428  0.4336  0.0862 -0.4390
   93MOL   H14124245   2.975   0.004   4.556  1.2775 -2.5360 -1.5143
   93MOL   H14224246   2.810   7.701   4.522  1.8463  0.6253 -0.1370
   93MOL   H14324247   2.717   0.010   4.532  0.2127  0.6991 -0.7898
   93MOL   H14424248   2.744   7.776   4.376 -1.7612  3.5306 -0.4450
   93MOL   C14524249   3.172   0.079   4.254  0.3765 -0.5682  0.5786
   93MOL   C14624250   3.321   0.128   4.242 -0.5550 -0.4841  0.7044
   93MOL   O14724251   3.346   0.204   4.359  0.2344  0.0718  0.3154
   93MOL   C14824252   3.460   0.167   4.437 -0.2103 -0.0997  0.4800
   93MOL   C14924253   3.435   0.253   4.561  0.2094 -0.0541  0.1623
   93MOL   H15024254   3.116   0.168   4.283 -0.6191 -0.7881 -0.6454
   93MOL   H15124255   3.138   0.052   4.154 -0.5617 -2.8405  1.4869
   93MOL   H15224256   3.394   0.047   4.247  0.2788 -0.1983 -4.1973
   93MOL   H15324257   3.554   0.176   4.381 -1.5430  1.1094 -1.6285
   93MOL   H15424258   3.449   0.062   4.464 -0.3392 -0.4711 -0.9640
   93MOL   H15524259   3.403   0.352   4.526  1.2071 -0.1137 -0.9580
   93MOL   H15624260   3.362   0.200   4.621  1.4275 -0.5982  1.1920
   93MOL   H15724261   3.523   0.273   4.623 -1.7507  2.4378  2.2617
   93MOL   C15824262   3.352   0.207   4.112  0.1482  0.0204  0.1930
   93MOL   C15924263   3.504   0.223   4.084  0.4742 -0.3526 -0.3933
   93MOL   O16024264   3.522   0.319   3.979 -0.8371 -0.2698 -0.4058
   93MOL   C16124265   3.529   0.458   4.015  0.2403  0.4630 -0.4668
   93MOL   C16224266   3.491   0.543   3.892  0.2339  1.0385 -0.0026
   93MOL   H16324267   3.314   0.307   4.129 -4.3510 -1.4687 -0.5540
   93MOL   H16424268   3.307   0.164   4.023  0.3010 -0.4728  0.3536
   93MOL   H16524269   3.554   0.265   4.171 -0.4788 -0.4455  0.2051
   93MOL   H16624270   3.626   0.491   4.052  0.1894  0.8758 -0.7041
   93MOL   H16724271   3.449   0.450   4.089  2.1461  0.5094  1.6425
   93MOL   H16824272   3.405   0.502   3.838  0.4815 -0.2847  0.5921
   93MOL   H16924273   3.465   0.648   3.910  0.5857  1.1991 -0.4454
   93MOL   H17024274   3.573   0.528   3.823  0.1941 -2.1922  0.5508
   93MOL   C17124275   3.575   0.092   4.034 -0.3861  0.5592  0.3312
   93MOL   C17224276   3.730   0.111   4.022  0.0290 -0.3556 -0.0755
   93MOL   O17324277   3.776   0.022   3.929  0.1417 -0.2472  0.1828
   93MOL   C17424278   3.886   0.068   3.846 -0.1222  0.0355 -0.7911
   93MOL   C17524279   3.915   7.792   3.748 -0.1094 -0.7536  0.0814
   93MOL   H17624280   3.539   0.055   3.938 -0.5516  0.7429  0.3228
   93MOL   H17724281   3.565   0.011   4.106 -2.4108 -1.0839 -1.6958
   93MOL   H17824282   3.750   0.211   3.982 -0.1156 -1.0253 -1.8459
   93MOL   H17924283   3.979   0.099   3.893 -0.5300 -0.4915  0.3696
   93MOL   H18024284   3.863   0.157   3.788 -0.8579  0.8682  0.7708
   93MOL   H18124285   3.832   7.788   3.678  0.8101  2.0021 -1.2389
   93MOL   H18224286   4.004   7.805   3.686 -0.2548  0.1823  0.0545
   93MOL   H18324287   3.906   7.693   3.793  1.6033 -0.8485  0.2549
   93MOL   C18424288   3.801   0.079   4.161 -0.1051  0.0274  0.3030
   93MOL   C18524289   3.948   0.137   4.178  0.3210  0.5537 -0.2367
   93MOL   O18624290   3.989   0.104   4.313  0.1777  0.1606  0.5567
   93MOL   C18724291   4.077   7.833   4.317 -0.0479  0.1716 -0.0448
   93MOL   C18824292   4.097   7.810   4.467 -0.1904 -0.2144 -0.3514
   93MOL   H18924293   3.792   7.818   4.189  0.3351 -0.1540 -0.2096
   93MOL   H19024294   3.739   0.133   4.233 -1.1458  0.2386 -0.7325
   93MOL   H19124295   4.019   0.085   4.115  0.4318 -0.3277  0.6002
   93MOL   H19224296   4.164   0.003   4.253 -0.3689  0.1591 -0.4822
   93MOL   H19324297   4.018   7.757   4.267 -3.1561  2.5633 -0.1885
   93MOL   H19424298   4.143   0.057   4.509 -1.6292 -0.5454  1.9907
   93MOL   H19524299   4.003   7.800   4.520 -0.1297  0.3775 -0.1252
   93MOL   H19624300   4.156   7.720   4.485 -1.4657 -0.7685  1.1071
   93MOL   C19724301   3.961   0.295   4.151  0.2211 -0.3661 -0.4131
   93MOL   C19824302   4.100   0.365   4.146  0.4241  0.2023  0.2938
   93MOL   O19924303   4.167   0.306   4.031  0.0769 -0.4392 -0.2203
   93MOL   C20024304   4.127   0.362   3.909  0.6810 -0.6376  0.2096
   93MOL   C20124305   4.203   0.305   3.788 -0.4245 -0.1305 -0.2814
   93MOL   H20224306   3.905   0.339   4.234 -0.8958 -2.0886 -0.2237
   93MOL   H20324307   3.912   0.302   4.054 -0.1834 -0.3957 -0.2138
   93MOL   H20424308   4.081   0.472   4.134 -3.1867 -0.5884 -1.6444
   93MOL   H20524309   4.141   0.470   3.907  1.7307 -0.7866 -1.9489
   93MOL   H20624310   4.024   0.352   3.876  0.8049  0.8199 -0.6643
   93MOL   H20724311   4.182   0.353   3.692 -0.6514 -0.3321 -0.3333
   93MOL   H20824312   4.311   0.314   3.803 -0.9541  0.4224  3.8511
   93MOL   H20924313   4.183   0.198   3.782  1.0637 -0.5330  1.4563
   93MOL   C21024314   4.181   0.319   4.270  0.1126  0.2154 -0.1291
   93MOL   C21124315   4.294   0.421   4.309 -0.4085 -0.4063  0.0511
   93MOL   O21224316   4.219   0.541   4.347 -0.4152 -0.6766  0.7022
   93MOL   C21324317   4.215   0.560   4.484 -0.9227 -0.0471 -0.6717
   93MOL   C21424318   4.149   0.692   4.521 -0.4340 -0.4999  0.7071
   93MOL   H21524319   4.225   0.221   4.249  0.4253  0.4391 -0.5374
   93MOL   H21624320   4.107   0.308   4.349 -0.5686  0.3991 -0.7332
   93MOL   H21724321   4.358   0.367   4.379 -2.3184 -0.1946  2.0184
   93MOL   H21824322   4.308   0.544   4.537 -1.1897  0.1704 -0.1349
   93MOL   H21924323   4.151   0.483   4.526 -0.9096  0.9478  1.2137
   93MOL   H22024324   4.066   0.710   4.453 -0.8697  0.7738  1.5617
   93MOL   H22124325   4.108   0.698   4.622 -1.0225 -0.4500  0.4648
   93MOL   H22224326   4.225   0.763   4.491  0.4291 -1.4668  0.5640
   93MOL   C22324327   4.383   0.460   4.185 -0.3401  0.2716  0.0930
   93MOL   C22424328   4.507   0.548   4.205 -0.0598  0.3798  0.1273
   93MOL   O22524329   4.564   0.583   4.078  0.0557 -0.3805 -0.5367
   93MOL   C22624330   4.535   0.719   4.039 -0.3794 -0.1312  0.1434
   93MOL   C22724331   4.611   0.745   3.907  0.3104 -0.3066 -0.2828
   93MOL   H22824332   4.317   0.513   4.117 -0.5420 -0.9625 -0.6976
   93MOL   H22924333   4.422   0.374   4.130  2.6722  0.6679  1.4515
   93MOL   H23024334   4.471   0.644   4.244 -2.1125  0.9084 -2.9155
   93MOL   H23124335   4.553   0.794   4.116 -1.9323  0.5066 -0.0940
   93MOL   H23224336   4.429   0.739   4.022 -0.1188 -0.1240 -1.5455
   93MOL   H23324337   4.602   0.848   3.872  1.2170  0.1199  0.6940
   93MOL   H23424338   4.719   0.731   3.920  0.3852  1.0669  0.7599
   93MOL   H23524339   4.579   0.686   3.821  1.0503 -0.2015 -0.6389
   93MOL   C23624340   4.624   0.475   4.277 -0.1251 -0.1608  0.7142
   93MOL   C23724341   4.619   0.486   4.425 -0.1458  0.0919  0.0266
   93MOL   O23824342   4.620   0.631   4.451 -0.1453 -0.1578  0.4055
   93MOL   C23924343   4.632   0.664   4.590  0.0948 -0.7329 -0.4069
   93MOL   C24024344   4.563   0.802   4.609 -0.4139 -0.0379  0.2888
   93MOL   H24124345   4.717   0.510   4.233  0.2027 -0.2165  1.3560
   93MOL   H24224346   4.628   0.374   4.236  1.9599 -0.8740  2.5795
   93MOL   H24324347   4.529   0.438   4.464  0.7674 -2.1557 -0.5695
   93MOL   H24424348   4.738   0.664   4.615  0.1787 -0.2498 -0.7463
   93MOL   H24524349   4.586   0.588   4.653 -0.2765 -0.2686 -0.1115
   93MOL   H24624350   4.627   0.882   4.573 -3.3481  2.6172  0.7313
   93MOL   H24724351   4.471   0.806   4.551 -1.2934  0.1645  1.6630
   93MOL   H24824352   4.549   0.833   4.713 -0.8665  3.8995 -0.8721
   93MOL   C24924353   4.741   0.413   4.493  0.5469 -0.3268  1.0487
   93MOL   C25024354   4.747   0.265   4.479  0.4410 -0.5103  0.3025
   93MOL   O25124355   4.776   0.212   4.344 -0.0656 -0.1431  0.0496
   93MOL   C25224356   4.909   0.227   4.299 -0.3383  0.3294 -0.6364
   93MOL   C25324357   4.914   0.165   4.155  0.1695  0.0213  0.1502
   93MOL   H25424358   4.741   0.444   4.597 -3.0702  1.9806  0.4351
   93MOL   H25524359   4.833   0.452   4.448 -1.8131  2.6499 -1.4049
   93MOL   H25624360   4.823   0.225   4.546  2.7273  1.4308 -1.0491
   93MOL   H25724361   4.983   0.181   4.364 -1.4406  1.2102  1.2915
   93MOL   H25824362   4.932   0.333   4.292  3.5307 -0.3041  1.4114
   93MOL   H25924363   4.825   0.197   4.100  0.2652  0.1107  0.0497
   93MOL   H26024364   5.008   0.186   4.103 -0.7380 -1.0523 -1.9986
   93MOL   H26124365   4.900   0.058   4.135  0.3278  0.1217 -0.5380
   93MOL   H26224366   4.655   0.221   4.516  0.0082  1.3649  1.4639
   94MOL     C124367   2.721   4.887   3.740  0.3315  0.5694  0.7951
   94MOL     C224368   2.813   4.998   3.693 -0.4339  0.0140  0.4021
   94MOL     O324369   2.817   5.002   3.552 -0.0140  0.0569 -0.0849
   94MOL     C424370   2.699   5.047   3.492 -0.2815  0.2462 -0.5338
   94MOL     C524371   2.734   5.056   3.341 -0.2479 -0.1383 -0.7802
   94MOL     H624372   2.614   4.901   3.729  0.1902  1.3210  2.8741
   94MOL     H724373   2.735   4.797   3.679 -0.4881 -0.9436  2.7796
   94MOL     H824374   2.760   5.090   3.719  0.2729 -0.2049  2.7244
   94MOL     H924375   2.671   5.144   3.533  0.5916 -0.2519  1.2805
   94MOL    H1024376   2.611   4.984   3.504  0.1641 -0.0550  1.1868
   94MOL    H1124377   2.773   4.959   3.310 -1.0914 -1.2091  1.4165
   94MOL    H1224378   2.648   5.075   3.277 -0.2963 -1.5020 -1.1184
   94MOL    H1324379   2.800   5.137   3.309  0.8736 -1.6529 -2.3388
   94MOL    H1424380   2.736   4.867   3.846 -0.2230  1.0679  0.9693
   94MOL    C1524381   2.954   5.005   3.762 -0.0139  0.2261 -0.0380
   94MOL    C1624382   3.059   4.902   3.721 -0.0276  0.3984 -0.2810
   94MOL    O1724383   3.113   4.858   3.849 -0.0846 -0.1530  0.0266
   94MOL    C1824384   3.118   4.714   3.858  0.2367  0.0931 -0.3913
   94MOL    C1924385   3.216   4.690   3.981  0.3815 -0.2303  0.0893
   94MOL    H2024386   2.940   4.984   3.868  1.9476 -2.3175 -0.2608
   94MOL    H2124387   2.984   5.110   3.754 -0.5753  0.4458  0.6721
   94MOL    H2224388   3.001   4.822   3.676  0.1262  0.8211 -1.2538
   94MOL    H2324389   3.163   4.675   3.767  1.8914  2.6307 -0.7191
   94MOL    H2424390   3.029   4.651   3.868 -1.0952  2.1431  0.9595
   94MOL    H2524391   3.172   4.728   4.074 -1.4788  1.1049 -1.2978
   94MOL    H2624392   3.309   4.746   3.972 -0.4307  1.1078 -0.1005
   94MOL    H2724393   3.235   4.583   3.993  1.8056  0.2197  2.0721
   94MOL    C2824394   3.172   4.951   3.625  0.3936 -0.1628  0.7580
   94MOL    C2924395   3.240   4.858   3.528 -0.1785 -0.4827  0.7265
   94MOL    O3024396   3.337   4.773   3.591 -0.0354 -0.1760  1.2604
   94MOL    C3124397   3.371   4.649   3.524 -0.0336  0.1597  0.1295
   94MOL    C3224398   3.450   4.570   3.617 -0.6190 -0.2029 -0.0137
   94MOL    H3324399   3.240   5.009   3.688  0.1965  1.2129 -0.2753
   94MOL    H3424400   3.120   5.027   3.566  0.9035 -0.1854  0.2746
   94MOL    H3524401   3.171   4.791   3.477  1.4622 -2.9780  1.7173
   94MOL    H3624402   3.416   4.639   3.425 -0.9402 -0.8242 -0.1964
   94MOL    H3724403   3.277   4.594   3.522  1.9156 -3.4197  1.9537
   94MOL    H3824404   3.546   4.620   3.628 -0.8610  0.8778 -2.4931
   94MOL    H3924405   3.412   4.571   3.719  1.6223  0.3753  0.8356
   94MOL    H4024406   3.466   4.467   3.584  0.1737 -0.1966  0.3627
   94MOL    C4124407   3.312   4.924   3.403  0.3433 -0.3883 -0.2143
   94MOL    C4224408   3.207   4.974   3.296 -0.3380  0.0253 -0.4339
   94MOL    O4324409   3.179   4.874   3.203 -0.2735  0.0615 -0.1730
   94MOL    C4424410   3.038   4.856   3.190  0.4151  0.1158  0.4939
   94MOL    C4524411   3.019   4.731   3.102 -0.0115  0.0105  0.1808
   94MOL    H4624412   3.397   4.865   3.368 -1.3204 -3.2004  0.3386
   94MOL    H4724413   3.368   5.012   3.438  2.0822 -1.6635  0.3023
   94MOL    H4824414   3.118   5.001   3.354 -0.0984  0.2856 -0.1823
   94MOL    H4924415   3.000   4.949   3.147  1.2855  0.8590  1.2972
   94MOL    H5024416   3.009   4.833   3.292 -2.0364 -0.0155 -0.2187
   94MOL    H5124417   2.988   4.642   3.157 -2.0051 -0.0208 -0.9380
   94MOL    H5224418   2.934   4.751   3.037 -1.1912 -0.4858  1.5545
   94MOL    H5324419   3.110   4.697   3.051 -0.6543 -0.0831 -0.9160
   94MOL    C5424420   3.250   5.092   3.216 -0.4321 -0.3678  0.1312
   94MOL    C5524421   3.242   5.233   3.287 -0.3481  0.3905 -0.0406
   94MOL    O5624422   3.109   5.247   3.341 -0.0490 -0.0356 -0.1632
   94MOL    C5724423   3.115   5.322   3.464  0.6351  0.0605 -0.3457
   94MOL    C5824424   2.978   5.334   3.532 -0.4465  0.3723  0.6810
   94MOL    H5924425   3.195   5.104   3.123 -1.7288  0.2638  0.9702
   94MOL    H6024426   3.346   5.075   3.167 -0.8042 -0.6857 -0.4896
   94MOL    H6124427   3.315   5.249   3.367  0.7664  0.1140 -0.9891
   94MOL    H6224428   3.154   5.423   3.455  4.2126 -1.2760 -0.7328
   94MOL    H6324429   3.179   5.268   3.534  0.1168 -2.6452 -1.9060
   94MOL    H6424430   2.918   5.391   3.460  0.8793 -0.9791 -1.5327
   94MOL    H6524431   2.932   5.235   3.540  0.9498 -0.1558  2.4260
   94MOL    H6624432   2.981   5.392   3.625 -0.7849 -0.4096  1.1867
   94MOL    C6724433   3.269   5.360   3.196  0.4400  0.0948 -0.2727
   94MOL    C6824434   3.416   5.386   3.156  0.4828  0.3547 -0.3169
   94MOL    O6924435   3.508   5.408   3.260  0.2873 -0.2194 -0.3848
   94MOL    C7024436   3.631   5.343   3.242 -0.0675 -0.2000  0.1154
   94MOL    C7124437   3.729   5.392   3.344  0.1442  0.4396 -0.2425
   94MOL    H7224438   3.212   5.447   3.230  1.6663  1.1575 -0.8675
   94MOL    H7324439   3.225   5.339   3.099 -1.7973  1.1115  0.4908
   94MOL    H7424440   3.448   5.299   3.099 -0.2576 -0.2786  0.2195
   94MOL    H7524441   3.662   5.363   3.140  0.6162  1.4666  0.6314
   94MOL    H7624442   3.620   5.237   3.264 -1.7674 -0.3042 -1.1548
   94MOL    H7724443   3.689   5.383   3.445  0.3281  0.3782 -0.1753
   94MOL    H7824444   3.817   5.329   3.349 -0.8552 -0.8710  1.1882
   94MOL    H7924445   3.765   5.493   3.325 -0.4270  1.1068  2.0846
   94MOL    C8024446   3.433   5.502   3.056  0.5082 -0.4218 -0.8391
   94MOL    C8124447   3.404   5.650   3.110  0.2369 -0.0327  0.4484
   94MOL    O8224448   3.262   5.666   3.117  0.1779 -0.5665 -0.1946
   94MOL    C8324449   3.209   5.769   3.209  0.1146 -0.2220  0.0350
   94MOL    C8424450   3.067   5.738   3.257  0.7579  0.1490  0.8122
   94MOL    H8524451   3.374   5.487   2.965 -0.5530  2.5074 -0.6882
   94MOL    H8624452   3.536   5.496   3.022  0.9995  1.8941  0.2109
   94MOL    H8724453   3.454   5.659   3.207  0.5163  3.6778  0.0510
   94MOL    H8824454   3.222   5.868   3.165  2.7078 -0.6534 -0.2260
   94MOL    H8924455   3.268   5.770   3.301  0.1768  0.4856 -0.0077
   94MOL    H9024456   3.003   5.775   3.177  0.8736  1.9636  1.5310
   94MOL    H9124457   3.060   5.630   3.269  0.5441 -0.1095 -1.4957
   94MOL    H9224458   3.053   5.795   3.349  0.5552  0.9960  0.2628
   94MOL    C9324459   3.474   5.759   3.019  0.1593  0.1867 -0.4266
   94MOL    C9424460   3.615   5.781   3.072 -0.2037  0.1920  0.4866
   94MOL    O9524461   3.589   5.866   3.184 -0.2641  0.2465  0.4327
   94MOL    C9624462   3.658   5.849   3.309  0.4448 -0.3916  0.7803
   94MOL    C9724463   3.612   5.971   3.398 -0.3100 -0.3325  0.2444
   94MOL    H9824464   3.421   5.854   3.018 -1.2209 -0.5857 -0.9336
   94MOL    H9924465   3.470   5.731   2.914  1.6475  2.0248 -1.0115
   94MOL   H10024466   3.656   5.684   3.099 -3.5198 -0.9846  1.5368
   94MOL   H10124467   3.765   5.856   3.291  0.4272  0.0506  0.8306
   94MOL   H10224468   3.640   5.755   3.361  0.2031 -0.7620  0.0355
   94MOL   H10324469   3.671   6.057   3.366 -1.0330 -0.8606 -2.6368
   94MOL   H10424470   3.506   5.995   3.387  0.0111  0.9950 -0.0224
   94MOL   H10524471   3.633   5.956   3.504 -0.5192  1.5012  0.5499
   94MOL   C10624472   3.707   5.852   2.970 -0.3456 -0.6803 -0.4847
   94MOL   C10724473   3.701   6.014   2.977 -0.2233 -0.3615 -0.5654
   94MOL   O10824474   3.598   6.050   2.895 -0.4323  0.0618  0.0619
   94MOL   C10924475   3.503   6.144   2.943  0.0600  0.3577 -0.2209
   94MOL   C11024476   3.412   6.179   2.831 -0.2871 -0.0287 -0.5635
   94MOL   H11124477   3.698   5.812   2.869  1.0899 -1.0995 -0.4491
   94MOL   H11224478   3.805   5.821   3.007 -0.7858  0.3355  1.6093
   94MOL   H11324479   3.686   6.045   3.080 -0.1195  1.2908 -1.0326
   94MOL   H11424480   3.552   6.229   2.990 -0.7157  0.5460  0.2416
   94MOL   H11524481   3.444   6.092   3.018  1.8933 -1.2534  0.1637
   94MOL   H11624482   3.329   6.247   2.851 -1.3384 -0.6875 -2.4969
   94MOL   H11724483   3.479   6.221   2.756 -1.6492 -1.2254 -2.4856
   94MOL   H11824484   3.376   6.093   2.775 -1.4056 -0.4423  0.7721
   94MOL   C11924485   3.835   6.074   2.928 -0.0442 -0.3237  0.0686
   94MOL   C12024486   3.922   6.122   3.050  0.1418 -0.3643 -0.1797
   94MOL   O12124487   4.012   6.209   2.987  0.2947  0.1809 -0.0122
   94MOL   C12224488   4.009   6.345   3.017 -0.2025  0.4899  0.3506
   94MOL   C12324489   4.156   6.395   2.996 -0.0629  0.0508 -0.7518
   94MOL   H12424490   3.802   6.153   2.861 -0.5769 -1.3216 -0.8575
   94MOL   H12524491   3.896   6.003   2.872 -0.7520 -0.1432 -0.9300
   94MOL   H12624492   3.858   6.173   3.122  2.0315 -0.6676  1.7458
   94MOL   H12724493   3.985   6.363   3.122 -0.0750 -2.6909  0.9874
   94MOL   H12824494   3.935   6.401   2.960 -2.5462  0.0300  2.8163
   94MOL   H12924495   4.177   6.389   2.889  1.8233  1.1224 -0.4639
   94MOL   H13024496   4.151   6.503   3.007 -1.5380  0.1458 -2.1812
   94MOL   H13124497   4.231   6.344   3.056  0.5814  1.9402  0.0793
   94MOL   C13224498   4.003   6.005   3.120  0.9101  0.3049  0.4898
   94MOL   C13324499   4.094   6.057   3.239  1.4634 -0.2911  0.0735
   94MOL   O13424500   4.180   5.952   3.292 -0.3234  0.0094  0.0546
   94MOL   C13524501   4.266   5.886   3.207  0.1435 -0.7821  0.9182
   94MOL   C13624502   4.333   5.789   3.291  0.8785 -0.4731 -0.2229
   94MOL   H13724503   4.064   5.965   3.040  2.8938  1.3163  1.4643
   94MOL   H13824504   3.948   5.919   3.159 -0.6663  0.3013 -1.6154
   94MOL   H13924505   4.159   6.138   3.206  0.4462  0.5583  0.1437
   94MOL   H14024506   4.328   5.953   3.149 -1.1719  1.2051  1.7730
   94MOL   H14124507   4.209   5.830   3.133  2.5338 -1.7058 -0.2802
   94MOL   H14224508   4.384   5.833   3.377  1.2363  0.1179 -0.7366
   94MOL   H14324509   4.253   5.739   3.345 -0.8867  2.3957 -0.0886
   94MOL   H14424510   4.397   5.723   3.232  1.3283 -1.1424  0.9701
   94MOL   C14524511   4.020   6.133   3.353  0.2984 -0.3205 -0.2694
   94MOL   C14624512   4.107   6.184   3.468 -0.4352 -0.0004  0.5520
   94MOL   O14724513   4.052   6.271   3.563  0.1725 -0.1496 -0.1242
   94MOL   C14824514   3.940   6.226   3.633 -0.3573 -0.0203 -0.6550
   94MOL   C14924515   3.935   6.297   3.767  0.3224  0.6001 -0.1771
   94MOL   H15024516   3.950   6.061   3.394  1.5329 -1.1715  0.4075
   94MOL   H15124517   3.962   6.211   3.304 -0.8345 -1.2542 -0.4388
   94MOL   H15224518   4.137   6.099   3.530 -0.0854  0.2001  0.6627
   94MOL   H15324519   3.939   6.118   3.648  0.6818 -0.0833 -0.9854
   94MOL   H15424520   3.853   6.257   3.575 -1.0625 -1.8782 -0.6315
   94MOL   H15524521   4.009   6.261   3.838 -1.4411 -1.6035  0.6055
   94MOL   H15624522   3.933   6.405   3.746  0.7029  0.5715 -0.3552
   94MOL   H15724523   3.843   6.269   3.818  0.6981 -1.3597 -0.5593
   94MOL   C15824524   4.243   6.248   3.425 -0.1284 -0.0414 -0.0582
   94MOL   C15924525   4.354   6.263   3.534 -0.4881  0.2721  0.7198
   94MOL   O16024526   4.474   6.324   3.491 -0.4483 -0.5023  0.2122
   94MOL   C16124527   4.467   6.451   3.434  0.4121 -0.3928  1.2273
   94MOL   C16224528   4.459   6.454   3.277  0.6417 -0.2795 -0.2741
   94MOL   H16324529   4.218   6.338   3.368  2.3340  0.1069 -0.9385
   94MOL   H16424530   4.296   6.183   3.355 -1.4280 -0.2085 -0.9141
   94MOL   H16524531   4.312   6.309   3.624 -1.1509  2.7059 -0.7855
   94MOL   H16624532   4.551   6.508   3.473 -0.3218  0.7184  1.2088
   94MOL   H16724533   4.378   6.505   3.467  0.6620  0.4573  0.5112
   94MOL   H16824534   4.466   6.557   3.243 -1.6750 -0.0209 -0.0427
   94MOL   H16924535   4.537   6.389   3.237 -0.2026 -1.5867  0.1619
   94MOL   H17024536   4.358   6.418   3.255 -0.0762  0.5081  1.6658
   94MOL   C17124537   4.401   6.126   3.583  0.4190  0.2698 -0.2262
   94MOL   C17224538   4.498   6.122   3.706  0.0849 -0.8519 -0.4099
   94MOL   O17324539   4.520   5.987   3.752  0.2431  0.2844 -0.2447
   94MOL   C17424540   4.571   5.896   3.657 -0.1888  0.9260 -0.5637
   94MOL   C17524541   4.651   5.794   3.737 -0.0867  0.0687  0.3678
   94MOL   H17624542   4.449   6.081   3.496 -0.8653 -2.3612  0.3896
   94MOL   H17724543   4.315   6.065   3.610  0.3138  0.8629  0.8204
   94MOL   H17824544   4.593   6.155   3.666 -0.7835  0.5264 -1.3766
   94MOL   H17924545   4.644   5.947   3.594  0.7567 -1.4794 -1.4728
   94MOL   H18024546   4.490   5.853   3.600 -0.2607  0.4258 -0.0959
   94MOL   H18124547   4.576   5.762   3.810  0.8886  0.0351  1.3582
   94MOL   H18224548   4.671   5.706   3.676  0.6887  0.0107  0.7025
   94MOL   H18324549   4.747   5.827   3.775 -1.3626  3.0924  1.1321
   94MOL   C18424550   4.466   6.197   3.835  0.0987 -0.0460 -1.3765
   94MOL   C18524551   4.321   6.182   3.898  0.3588  0.9268 -0.2638
   94MOL   O18624552   4.305   6.280   3.996 -0.0911 -0.4864 -0.1079
   94MOL   C18724553   4.242   6.401   3.953 -0.1291  0.2997 -0.2383
   94MOL   C18824554   4.286   6.519   4.033  0.0794 -0.6349  0.2027
   94MOL   H18924555   4.491   6.302   3.819 -0.2908  0.0078 -1.6533
   94MOL   H19024556   4.529   6.170   3.919  2.1930 -0.4344 -3.0400
   94MOL   H19124557   4.256   6.193   3.812  2.1917  2.2547 -1.5205
   94MOL   H19224558   4.135   6.395   3.972  0.4378 -1.1457  2.7508
   94MOL   H19324559   4.271   6.415   3.849  3.5961 -0.0515  0.6940
   94MOL   H19424560   4.301   6.490   4.137 -1.5622 -1.9481  0.0855
   94MOL   H19524561   4.378   6.570   4.002 -0.8887  2.0429  1.5199
   94MOL   H19624562   4.210   6.597   4.031  1.3209  0.5853 -0.0580
   94MOL   C19724563   4.305   6.045   3.976 -1.0133 -0.3059 -0.6034
   94MOL   C19824564   4.164   5.993   3.999  0.4885  0.4394  0.2555
   94MOL   O19924565   4.156   5.896   4.105 -0.6532  0.6210  0.1987
   94MOL   C20024566   4.171   5.946   4.242  0.0526 -0.3900  0.3887
   94MOL   C20124567   4.155   5.827   4.333 -0.4290  0.3411 -0.1415
   94MOL   H20224568   4.356   6.066   4.070 -1.0531  0.4550 -0.7537
   94MOL   H20324569   4.365   5.968   3.928 -1.8303 -1.1785 -0.2419
   94MOL   H20424570   4.100   6.078   4.023 -1.6154 -0.7572 -0.9591
   94MOL   H20524571   4.105   6.030   4.265 -1.4003 -0.5611 -2.9247
   94MOL   H20624572   4.268   5.995   4.259 -0.0264  0.4021 -1.3099
   94MOL   H20724573   4.168   5.861   4.436  0.5009  0.0129 -0.1342
   94MOL   H20824574   4.055   5.786   4.324  0.3685 -1.6014 -0.6069
   94MOL   H20924575   4.236   5.754   4.321 -1.7407 -0.9690 -1.1391
   94MOL   C21024576   4.115   5.926   3.864  0.1033 -0.2900 -0.3538
   94MOL   C21124577   3.981   5.846   3.865 -0.3424 -0.6115 -0.9427
   94MOL   O21224578   3.946   5.838   3.726  0.0216 -0.1269  0.3615
   94MOL   C21324579   4.011   5.729   3.665 -0.5326  0.3349  1.2456
   94MOL   C21424580   3.982   5.726   3.510 -0.0763  0.3896  0.1947
   94MOL   H21524581   4.195   5.863   3.826 -1.4938 -0.9871 -2.6892
   94MOL   H21624582   4.108   5.994   3.780 -0.5711 -2.0243 -1.7235
   94MOL   H21724583   3.997   5.749   3.914  2.0379  0.3894  0.3215
   94MOL   H21824584   3.975   5.635   3.707  1.9432 -0.3234  1.9647
   94MOL   H21924585   4.117   5.737   3.690  0.2727  0.4797 -1.9847
   94MOL   H22024586   4.019   5.636   3.460 -1.7474 -1.3671  1.9975
   94MOL   H22124587   3.877   5.751   3.492  0.2495  0.3534 -1.9215
   94MOL   H22224588   4.032   5.813   3.469 -2.0168  0.8551 -1.2716
   94MOL   C22324589   3.874   5.929   3.931  0.3712  0.3318 -0.4979
   94MOL   C22424590   3.741   5.859   3.952  1.3059  0.1378  0.3697
   94MOL   O22524591   3.756   5.732   4.023 -0.1089  0.2858  0.0414
   94MOL   C22624592   3.818   5.737   4.149  0.0263  1.0620  0.4172
   94MOL   C22724593   3.833   5.585   4.184  0.3301 -0.6722 -0.1559
   94MOL   H22824594   3.854   6.018   3.870  0.4854  0.2329 -0.6797
   94MOL   H22924595   3.913   5.979   4.019  0.0246 -3.6211  2.0336
   94MOL   H23024596   3.675   5.912   4.021 -1.2392 -1.7836 -0.5177
   94MOL   H23124597   3.759   5.789   4.224 -0.5880 -0.1477  0.7829
   94MOL   H23224598   3.923   5.767   4.152  1.1126 -2.5565  1.8308
   94MOL   H23324599   3.862   5.568   4.287 -1.6251 -4.1973 -0.1134
   94MOL   H23424600   3.743   5.525   4.171 -0.8015  1.1010 -0.7619
   94MOL   H23524601   3.915   5.540   4.128  1.0030 -0.9622  1.0628
   94MOL   C23624602   3.659   5.846   3.826 -0.7718 -0.0857  0.7700
   94MOL   C23724603   3.504   5.843   3.841 -0.1422 -0.6183 -0.2925
   94MOL   O23824604   3.452   5.787   3.716  0.4960  0.1921  0.7893
   94MOL   C23924605   3.429   5.645   3.724 -0.0976 -0.4744  0.0639
   94MOL   C24024606   3.342   5.599   3.598  0.2768  0.5767  0.8021
   94MOL   H24124607   3.687   5.757   3.769 -0.4909  1.1780 -1.0925
   94MOL   H24224608   3.689   5.931   3.765  3.4796  0.3644  3.3180
   94MOL   H24324609   3.478   5.778   3.925  0.0853  0.9072  0.9794
   94MOL   H24424610   3.372   5.613   3.811  0.4686 -0.1851  0.5459
   94MOL   H24524611   3.527   5.600   3.737  0.4076  0.6181  0.1439
   94MOL   H24624612   3.387   5.592   3.499 -1.0839  1.7671  0.0976
   94MOL   H24724613   3.317   5.497   3.628  0.8426  0.4009  0.6787
   94MOL   H24824614   3.253   5.661   3.591  0.6302  0.8137 -2.1086
   94MOL   C24924615   3.443   5.985   3.862  0.0594  0.0364  0.6234
   94MOL   C25024616   3.493   6.092   3.771 -0.3277 -0.2476  0.0250
   94MOL   O25124617   3.426   6.215   3.791 -0.1745 -0.0191 -0.4509
   94MOL   C25224618   3.478   6.331   3.728  0.8425 -0.7187 -0.0100
   94MOL   C25324619   3.395   6.445   3.787  0.3481  0.7561 -0.1724
   94MOL   H25424620   3.468   6.017   3.963 -0.1273  2.5448 -0.0697
   94MOL   H25524621   3.335   5.976   3.854  0.5269 -3.9153 -2.2591
   94MOL   H25624622   3.600   6.112   3.765 -0.5593  1.1170  0.3142
   94MOL   H25724623   3.454   6.324   3.622 -2.8046  2.3088  0.4865
   94MOL   H25824624   3.586   6.335   3.739  0.7631  2.1128  0.1578
   94MOL   H25924625   3.306   6.469   3.729  0.2654 -0.9172 -0.7645
   94MOL   H26024626   3.366   6.425   3.890  0.1188  1.3433 -0.1195
   94MOL   H26124627   3.470   6.524   3.786  0.8856  0.2516  0.3327
   94MOL   H26224628   3.465   6.062   3.670 -3.0462  0.8850  0.4056
   95MOL     C124629   0.463   3.691   3.836  0.1127  0.1046 -0.2211
   95MOL     C224630   0.366   3.705   3.949  0.0573  0.5836 -0.4102
   95MOL     O324631   0.379   3.835   4.005  0.2092 -0.3043 -0.0663
   95MOL     C424632   0.256   3.902   4.039 -0.2053 -0.1019  0.7852
   95MOL     C524633   0.292   4.041   4.098  0.1933 -0.2118  0.2321
   95MOL     H624634   0.560   3.738   3.850  0.7434 -1.9175  2.5492
   95MOL     H724635   0.471   3.586   3.809  1.8137  0.0803  0.3497
   95MOL     H824636   0.268   3.682   3.907  0.7672  0.7360 -2.1876
   95MOL     H924637   0.193   3.850   4.111  0.6945 -4.2337 -1.3138
   95MOL    H1024638   0.203   3.925   3.947 -1.9856 -0.0563  1.8146
   95MOL    H1124639   0.354   4.103   4.033  1.0916 -0.7433  0.5623
   95MOL    H1224640   0.205   4.103   4.119 -1.0397 -1.9051  0.2601
   95MOL    H1324641   0.349   4.033   4.191 -0.4614 -1.7152  0.5212
   95MOL    H1424642   0.422   3.741   3.748  0.0370  1.4367  0.5486
   95MOL    C1524643   0.395   3.610   4.070  0.2399 -0.1311 -0.2640
   95MOL    C1624644   0.389   3.453   4.041 -0.2358 -0.2441  0.4188
   95MOL    O1724645   0.254   3.441   3.992 -0.5731  0.1411 -0.1732
   95MOL    C1824646   0.197   3.310   3.959 -0.0125 -0.4856  0.1248
   95MOL    C1924647   0.059   3.324   3.884  0.0115  0.5194 -0.5809
   95MOL    H2024648   0.318   3.631   4.144  0.0830  0.3810 -0.5727
   95MOL    H2124649   0.492   3.638   4.112 -0.1865  1.2766 -0.1844
   95MOL    H2224650   0.465   3.414   3.973  0.5291  0.3681  0.9074
   95MOL    H2324651   0.185   3.254   4.051  1.4378  2.1857  2.0172
   95MOL    H2424652   0.267   3.252   3.900 -0.5855  0.7682 -1.8471
   95MOL    H2524653   0.070   3.393   3.800 -1.8754  0.7284 -0.6658
   95MOL    H2624654   7.835   3.364   3.959  0.3673 -0.3164  0.2000
   95MOL    H2724655   0.025   3.226   3.848 -0.8341  0.6009 -0.0046
   95MOL    C2824656   0.399   3.380   4.172 -0.2712 -0.1381 -0.9585
   95MOL    C2924657   0.538   3.361   4.238 -0.2445 -0.2172 -0.2903
   95MOL    O3024658   0.591   3.233   4.202 -0.0041  0.2412  0.1408
   95MOL    C3124659   0.686   3.227   4.095  0.2148 -0.2638  0.2839
   95MOL    C3224660   0.744   3.085   4.091 -0.0471  0.0654 -0.3006
   95MOL    H3324661   0.358   3.279   4.170  2.6111 -1.3953  0.7524
   95MOL    H3424662   0.334   3.438   4.237  1.4521  0.5709  0.1560
   95MOL    H3524663   0.615   3.435   4.213  0.5552 -0.6208  0.9537
   95MOL    H3624664   0.766   3.296   4.122 -0.1540 -0.0067  0.7325
   95MOL    H3724665   0.637   3.254   4.002  0.2797  1.0691  0.6127
   95MOL    H3824666   0.661   3.017   4.072  2.5288 -2.8406 -1.6442
   95MOL    H3924667   0.825   3.074   4.018  0.3009  0.1764  0.0680
   95MOL    H4024668   0.798   3.056   4.181 -1.3111 -0.1999  0.3724
   95MOL    C4124669   0.512   3.370   4.397  0.1660 -0.0118  1.5443
   95MOL    C4224670   0.492   3.508   4.457 -0.0026 -0.1559 -1.0425
   95MOL    O4324671   0.602   3.588   4.416 -0.0242  0.3549 -0.1924
   95MOL    C4424672   0.579   3.730   4.409 -0.1076  1.1531  0.2628
   95MOL    C4524673   0.709   3.807   4.389 -0.4130  0.2271 -0.1957
   95MOL    H4624674   0.599   3.316   4.433  1.9096  0.9860 -1.0176
   95MOL    H4724675   0.427   3.304   4.414 -0.2229  0.1728  0.3346
   95MOL    H4824676   0.400   3.555   4.424 -0.0792  1.3551  1.1870
   95MOL    H4924677   0.539   3.758   4.506  3.6792  0.2254  2.1990
   95MOL    H5024678   0.506   3.758   4.333 -1.9283 -2.2832  0.6690
   95MOL    H5124679   0.764   3.763   4.306 -0.9763  1.9091 -1.4895
   95MOL    H5224680   0.676   3.911   4.379  1.9737  1.2102  1.6440
   95MOL    H5324681   0.768   3.795   4.479  0.8937 -2.1818 -1.3407
   95MOL    C5424682   0.486   3.501   4.612 -0.1871 -0.1852 -0.3934
   95MOL    C5524683   0.375   3.411   4.677 -0.0806  0.2982  0.0325
   95MOL    O5624684   0.272   3.483   4.737 -0.3740  0.7675  0.3416
   95MOL    C5724685   0.189   3.553   4.644 -0.3114 -0.5972 -0.3777
   95MOL    C5824686   0.060   3.577   4.714 -0.1279 -0.3435 -0.1323
   95MOL    H5924687   0.480   3.599   4.660 -2.2131  0.3293 -1.6517
   95MOL    H6024688   0.590   3.479   4.635  0.5998  1.8810 -1.8467
   95MOL    H6124689   0.330   3.335   4.613 -1.2025  1.0623 -0.1003
   95MOL    H6224690   0.164   3.499   4.553 -2.9833 -0.9010  0.5080
   95MOL    H6324691   0.240   3.645   4.616 -1.1459 -0.4526 -1.4190
   95MOL    H6424692   7.837   3.493   4.732  0.0003 -0.2166  0.9912
   95MOL    H6524693   0.080   3.617   4.814 -0.0295 -0.4035 -0.1295
   95MOL    H6624694   7.838   3.649   4.664 -1.7437 -0.5320  1.6304
   95MOL    C6724695   0.435   3.329   4.791  0.7908  0.5100 -0.1351
   95MOL    C6824696   0.543   3.222   4.749  0.4849 -0.2081 -1.2293
   95MOL    O6924697   0.471   3.124   4.680 -0.5381 -0.1685 -0.7042
   95MOL    C7024698   0.538   3.044   4.587 -0.4790  0.0774  0.5186
   95MOL    C7124699   0.450   2.991   4.481  0.5224 -0.4077  0.0460
   95MOL    H7224700   0.351   3.278   4.838  1.7658  0.4950  1.6379
   95MOL    H7324701   0.472   3.394   4.870 -2.6504  0.7378  1.3745
   95MOL    H7424702   0.611   3.279   4.685  2.4071  0.2368  1.1334
   95MOL    H7524703   0.594   2.972   4.646  0.5594  0.0701 -0.4509
   95MOL    H7624704   0.620   3.104   4.548  1.3852 -2.5300  0.2707
   95MOL    H7724705   0.358   2.951   4.523 -0.8019  0.5798 -1.8424
   95MOL    H7824706   0.431   3.070   4.409 -1.8917  0.6839  1.8199
   95MOL    H7924707   0.501   2.907   4.432  3.9499  2.8182 -2.2417
   95MOL    C8024708   0.621   3.154   4.862  0.2245 -0.1836  0.3740
   95MOL    C8124709   0.693   3.254   4.960  0.4002  0.0245  0.2412
   95MOL    O8224710   0.787   3.323   4.876  0.1469  0.5840  0.6674
   95MOL    C8324711   0.790   3.454   4.919 -0.1464 -0.5340 -1.3594
   95MOL    C8424712   0.897   3.525   4.837  0.1550 -0.8114 -0.3334
   95MOL    H8524713   0.695   3.088   4.819  1.8258  3.6181 -3.0166
   95MOL    H8624714   0.557   3.088   4.921 -2.8668  0.7107 -1.8063
   95MOL    H8724715   0.620   3.323   5.001 -0.6534  0.6898 -2.6284
   95MOL    H8824716   0.819   3.447   5.023  1.3435 -1.9962 -1.8568
   95MOL    H8924717   0.693   3.505   4.913  1.5961  2.8643 -1.8648
   95MOL    H9024718   0.993   3.483   4.867  0.4490  0.9970  1.3555
   95MOL    H9124719   0.874   3.522   4.730 -2.3449 -0.2118  0.1701
   95MOL    H9224720   0.894   3.626   4.878  2.0572 -1.1635  0.7104
   95MOL    C9324721   0.773   3.177   5.075  0.8741  0.0170 -0.3949
   95MOL    C9424722   0.688   3.082   5.174 -0.2107  0.5915 -0.5143
   95MOL    O9524723   0.561   3.143   5.183 -0.5777 -0.6282 -0.5553
   95MOL    C9624724   0.454   3.055   5.201 -0.5734 -0.1884 -0.2360
   95MOL    C9724725   0.324   3.106   5.137 -0.2194  0.4078 -0.1716
   95MOL    H9824726   0.829   3.250   5.133 -0.9610  1.6269 -0.6090
   95MOL    H9924727   0.840   3.112   5.020 -0.0182 -1.8727  0.6847
   95MOL   H10024728   0.667   2.980   5.139 -3.2691  1.7754 -2.2967
   95MOL   H10124729   0.439   3.030   5.306  0.0622  0.4290  0.0059
   95MOL   H10224730   0.462   2.957   5.154  0.3571 -0.4134  0.3802
   95MOL   H10324731   0.342   3.126   5.031  1.4612  1.3900  0.2611
   95MOL   H10424732   0.236   3.044   5.148  0.0190 -0.0580 -0.8438
   95MOL   H10524733   0.293   3.201   5.181  3.3152  1.4804  0.2417
   95MOL   C10624734   0.737   3.056   5.316  0.4806 -0.5434  0.4608
   95MOL   C10724735   0.874   2.988   5.338  0.0254  0.3764  0.2370
   95MOL   O10824736   0.868   2.843   5.329 -0.5451 -0.2351 -0.6664
   95MOL   C10924737   0.920   2.790   5.207  0.1266 -0.0875 -0.0972
   95MOL   C11024738   1.067   2.777   5.199 -0.2847 -0.5781  0.2972
   95MOL   H11124739   0.667   3.004   5.382 -0.2832  0.1981  0.2453
   95MOL   H11224740   0.755   3.153   5.362 -0.2728 -0.5579  0.7966
   95MOL   H11324741   0.944   3.031   5.267  0.2345  2.2356  1.5463
   95MOL   H11424742   0.896   2.850   5.119  1.0956 -0.2105 -0.4518
   95MOL   H11524743   0.864   2.699   5.190 -0.1285 -0.2756  1.6264
   95MOL   H11624744   1.098   2.737   5.296  1.3261  1.7914  0.7860
   95MOL   H11724745   1.090   2.702   5.123  1.2820 -1.3479  1.5052
   95MOL   H11824746   1.125   2.867   5.178  1.0168 -1.6828 -0.9515
   95MOL   C11924747   0.941   3.027   5.477  0.2061 -1.1998  0.2616
   95MOL   C12024748   1.039   3.147   5.491 -0.0801 -0.4447 -0.2340
   95MOL   O12124749   0.985   3.277   5.453 -0.2916  0.6254  0.2476
   95MOL   C12224750   0.894   3.323   5.551  0.5140 -0.3687  0.3883
   95MOL   C12324751   0.829   3.447   5.498  0.1042  0.1577  0.1531
   95MOL   H12424752   0.997   2.940   5.509  0.2389 -2.1959 -2.3486
   95MOL   H12524753   0.861   3.050   5.547  0.6509 -2.5643  1.2385
   95MOL   H12624754   1.074   3.160   5.593  1.2587 -2.1911 -0.4565
   95MOL   H12724755   0.943   3.359   5.641  2.0527  0.6696 -0.8257
   95MOL   H12824756   0.816   3.252   5.578  0.7054 -1.3434 -1.5138
   95MOL   H12924757   0.917   3.499   5.461  0.2441 -1.1134 -1.3370
   95MOL   H13024758   0.773   3.440   5.406  0.1158 -1.5502  0.2656
   95MOL   H13124759   0.780   3.504   5.578 -1.2393 -1.3278  0.4014
   95MOL   C13224760   1.174   3.123   5.411 -0.3505 -0.3728  0.1773
   95MOL   C13324761   1.293   3.204   5.464 -0.3765 -0.3392  0.4688
   95MOL   O13424762   1.401   3.203   5.376 -0.2591  0.1535  0.0829
   95MOL   C13524763   1.383   3.260   5.244  0.0653 -1.0236 -1.0413
   95MOL   C13624764   1.520   3.295   5.182 -0.0474 -0.2172 -0.0502
   95MOL   H13724765   1.159   3.140   5.304 -0.8937  1.6179  0.5477
   95MOL   H13824766   1.199   3.017   5.420  2.3950  0.3528  1.4283
   95MOL   H13924767   1.257   3.307   5.468  0.0868 -0.1867  0.7364
   95MOL   H14024768   1.343   3.360   5.263  0.5261 -1.0848  0.3006
   95MOL   H14124769   1.330   3.192   5.178  0.1097 -0.5966 -1.5213
   95MOL   H14224770   1.574   3.364   5.246 -0.9206  0.1182  0.3420
   95MOL   H14324771   1.584   3.210   5.161  1.0240  0.1346  1.6962
   95MOL   H14424772   1.515   3.332   5.080  0.5792  0.0026  0.0004
   95MOL   C14524773   1.348   3.157   5.596  0.1053  0.1960 -0.0055
   95MOL   C14624774   1.408   3.267   5.685  0.3265 -0.6394  0.3380
   95MOL   O14724775   1.473   3.207   5.797  0.1819  0.3773  0.3488
   95MOL   C14824776   1.599   3.144   5.771 -0.3527  0.4134 -0.1982
   95MOL   C14924777   1.631   3.066   5.901  0.3401  0.1606  0.4509
   95MOL   H15024778   1.419   3.076   5.581  1.2549  1.2804 -0.4635
   95MOL   H15124779   1.272   3.103   5.652 -1.4729  2.3375  0.0017
   95MOL   H15224780   1.475   3.331   5.627 -0.4470 -0.1680 -0.0501
   95MOL   H15324781   1.679   3.215   5.752 -0.2517 -0.0331 -1.4951
   95MOL   H15424782   1.614   3.076   5.687 -0.1527  0.4439 -0.1865
   95MOL   H15524783   1.652   3.130   5.986  0.3709 -0.4651  0.9174
   95MOL   H15624784   1.559   2.990   5.928 -0.5817  0.7006 -0.4547
   95MOL   H15724785   1.730   3.020   5.893  0.9226  1.2560  1.3884
   95MOL   C15824786   1.300   3.362   5.750 -0.4947 -0.5242  0.9183
   95MOL   C15924787   1.354   3.490   5.811 -0.8635  0.1817  0.1860
   95MOL   O16024788   1.444   3.549   5.718  0.3212  0.9338 -0.0910
   95MOL   C16124789   1.367   3.628   5.618 -0.1252  0.1086  0.2162
   95MOL   C16224790   1.448   3.627   5.489 -0.2145 -0.6008 -0.2625
   95MOL   H16324791   1.242   3.295   5.813 -1.8880  0.2037  0.4261
   95MOL   H16424792   1.238   3.385   5.663 -1.8275 -1.0107  1.7263
   95MOL   H16524793   1.281   3.566   5.841 -1.2677 -0.4025  0.6954
   95MOL   H16624794   1.350   3.725   5.665  0.1522 -0.0096  0.5664
   95MOL   H16724795   1.272   3.579   5.599  0.5614 -1.0611 -0.2363
   95MOL   H16824796   1.474   3.528   5.453 -1.4253 -0.8507 -0.4863
   95MOL   H16924797   1.394   3.673   5.406 -0.9764 -0.7021  0.1706
   95MOL   H17024798   1.546   3.672   5.502 -0.9712  0.9180  0.3955
   95MOL   C17124799   1.438   3.475   5.945 -0.5215 -0.3834  0.7392
   95MOL   C17224800   1.374   3.384   6.050  0.6481  0.6678  0.0542
   95MOL   O17324801   1.286   3.464   6.128 -0.1552  0.3492 -0.5169
   95MOL   C17424802   1.154   3.406   6.126 -0.3338  0.4800  0.3508
   95MOL   C17524803   1.075   3.476   6.237 -0.4199 -0.8407  0.4486
   95MOL   H17624804   1.459   3.574   5.986  0.3038  0.3782 -1.4233
   95MOL   H17724805   1.542   3.449   5.928 -0.2676 -1.1046  3.1671
   95MOL   H17824806   1.334   3.296   6.000 -0.3284 -1.2400  3.9656
   95MOL   H17924807   1.169   3.299   6.144  0.6218  0.8790  2.0278
   95MOL   H18024808   1.109   3.414   6.027  1.5228  0.8614 -0.4819
   95MOL   H18124809   1.064   3.584   6.222 -0.7348 -0.9581 -0.1682
   95MOL   H18224810   0.974   3.435   6.234 -0.1497 -1.4823 -0.0264
   95MOL   H18324811   1.127   3.466   6.333 -0.9771  0.5228  0.9127
   95MOL   C18424812   1.484   3.339   6.149 -0.0703  0.4651  0.2744
   95MOL   C18524813   1.450   3.241   6.263 -0.6272  0.0243 -0.0697
   95MOL   O18624814   1.556   3.217   6.355 -0.3891 -0.3235  0.3655
   95MOL   C18724815   1.556   3.299   6.465 -0.1095  0.1529  1.1544
   95MOL   C18824816   1.677   3.268   6.540  0.5172  0.9398  0.6001
   95MOL   H18924817   1.527   3.429   6.192 -1.9169  2.0069 -1.0246
   95MOL   H19024818   1.575   3.305   6.100 -0.4599 -1.9169  1.1196
   95MOL   H19124819   1.375   3.285   6.328  1.5946 -0.2501  2.8044
   95MOL   H19224820   1.465   3.267   6.516 -0.0959 -1.4125  0.2371
   95MOL   H19324821   1.550   3.406   6.442 -3.3420  0.1408  1.7172
   95MOL   H19424822   1.664   3.167   6.580  0.3392  0.2845 -1.0959
   95MOL   H19524823   1.764   3.270   6.474  0.0827 -0.4402 -0.0393
   95MOL   H19624824   1.683   3.348   6.614  1.0888  2.4145 -1.0180
   95MOL   C19724825   1.414   3.101   6.205  0.4861  0.4029  0.0204
   95MOL   C19824826   1.392   2.982   6.306  0.2515  0.3719 -0.8487
   95MOL   O19924827   1.314   3.015   6.421 -0.4242 -0.3942 -0.0454
   95MOL   C20024828   1.178   3.051   6.400 -0.0273  0.7185  0.2641
   95MOL   C20124829   1.113   3.035   6.537  0.4942 -0.1928  0.0208
   95MOL   H20224830   1.491   3.064   6.138  2.2044  1.4755  1.3486
   95MOL   H20324831   1.329   3.124   6.142 -0.0743 -0.3071  0.5147
   95MOL   H20424832   1.335   2.909   6.248 -1.2522 -0.5778  1.7117
   95MOL   H20524833   1.119   2.998   6.325  0.5059 -0.0084  0.3593
   95MOL   H20624834   1.179   3.156   6.369 -1.3681  1.1942  1.7458
   95MOL   H20724835   1.089   2.929   6.538  0.4432 -0.1997 -1.5923
   95MOL   H20824836   1.175   3.056   6.624  1.9483 -1.7069 -0.6268
   95MOL   H20924837   1.023   3.096   6.545  0.7898  0.3761 -0.9480
   95MOL   C21024838   1.521   2.924   6.365 -0.0334 -0.3297 -0.5694
   95MOL   C21124839   1.521   2.769   6.346  0.9174  0.0709 -0.5072
   95MOL   O21224840   1.613   2.719   6.438 -0.2030 -0.2397 -0.0452
   95MOL   C21324841   1.579   2.714   6.576  0.1906  0.2142 -0.1670
   95MOL   C21424842   1.703   2.751   6.650  0.2683 -0.8093  0.1380
   95MOL   H21524843   1.538   2.953   6.469  0.4214 -0.9099 -0.4754
   95MOL   H21624844   1.602   2.973   6.311 -0.3969  1.3104  0.3683
   95MOL   H21724845   1.420   2.735   6.371  0.1259  2.0178 -1.0198
   95MOL   H21824846   1.538   2.618   6.608 -1.2711  0.3061 -1.7133
   95MOL   H21924847   1.498   2.783   6.599 -1.1601 -1.7115  0.9382
   95MOL   H22024848   1.744   2.848   6.624  0.0260 -0.5888  0.5569
   95MOL   H22124849   1.679   2.754   6.757 -0.0858 -1.1238  0.0702
   95MOL   H22224850   1.783   2.679   6.632  0.6151  0.2188 -2.6695
   95MOL   C22324851   1.570   2.718   6.206 -0.4912 -1.2117  0.1888
   95MOL   C22424852   1.585   2.565   6.182 -0.3294 -0.7118  0.0801
   95MOL   O22524853   1.654   2.548   6.052 -0.2524  0.4301  0.0604
   95MOL   C22624854   1.795   2.526   6.062  0.1268  0.4667  0.2824
   95MOL   C22724855   1.864   2.503   5.923  0.0171  0.0346 -0.3295
   95MOL   H22824856   1.668   2.760   6.186 -0.6304 -1.4403 -1.0276
   95MOL   H22924857   1.493   2.763   6.143 -0.3072  0.4220  1.1200
   95MOL   H23024858   1.646   2.522   6.262  1.9034 -0.9774 -1.7456
   95MOL   H23124859   1.825   2.445   6.129 -1.6955 -1.8240 -1.5391
   95MOL   H23224860   1.831   2.617   6.110  0.1756 -0.1154  1.3663
   95MOL   H23324861   1.820   2.408   5.894 -0.1188 -0.6514  2.0035
   95MOL   H23424862   1.844   2.585   5.855 -0.9583 -0.3399 -0.4978
   95MOL   H23524863   1.972   2.486   5.930  0.1938  1.4798  0.6735
   95MOL   C23624864   1.448   2.498   6.158 -0.3119  0.5105  0.0946
   95MOL   C23724865   1.472   2.348   6.120 -0.8532 -0.5323  0.1988
   95MOL   O23824866   1.340   2.293   6.113  0.0017  0.1623 -0.6315
   95MOL   C23924867   1.312   2.220   5.996  0.1486 -0.0565 -0.3666
   95MOL   C24024868   1.157   2.216   5.961  0.1010  0.5095  0.5666
   95MOL   H24124869   1.407   2.559   6.078 -1.8377  1.0645  1.2620
   95MOL   H24224870   1.379   2.519   6.240 -1.1208 -1.5344 -0.0387
   95MOL   H24324871   1.520   2.345   6.022 -3.9503  0.6282 -1.4191
   95MOL   H24424872   1.345   2.120   6.023  1.5075  0.7342  0.9521
   95MOL   H24524873   1.375   2.243   5.910  2.5198  0.8414  1.5649
   95MOL   H24624874   1.115   2.316   5.971  1.7805  1.4820 -1.7132
   95MOL   H24724875   1.133   2.180   5.861 -1.6857  1.7561  0.5126
   95MOL   H24824876   1.093   2.158   6.027  0.4969 -2.0540 -1.2551
   95MOL   C24924877   1.559   2.275   6.226  0.7315  0.0859 -0.0751
   95MOL   C25024878   1.518   2.292   6.373  0.1798  0.0700  0.0522
   95MOL   O25124879   1.595   2.201   6.446 -0.0216  0.1287  0.2591
   95MOL   C25224880   1.584   2.230   6.583  0.4790  0.3359 -0.2666
   95MOL   C25324881   1.693   2.148   6.656  0.3256 -0.4911  0.1135
   95MOL   H25424882   1.664   2.297   6.206  1.2271 -1.6019  0.5671
   95MOL   H25524883   1.555   2.167   6.214  0.3640 -0.3739  3.4623
   95MOL   H25624884   1.525   2.395   6.409 -0.2242 -0.0106  0.3705
   95MOL   H25724885   1.486   2.196   6.615 -0.2481  2.6297  0.0498
   95MOL   H25824886   1.580   2.335   6.612 -2.9104 -0.0961  1.0474
   95MOL   H25924887   1.789   2.158   6.606  0.8484 -0.0132  1.2138
   95MOL   H26024888   1.699   2.188   6.757  0.9493  0.8219 -0.4399
   95MOL   H26124889   1.642   2.052   6.665 -2.9539  1.2294  0.7846
   95MOL   H26224890   1.411   2.274   6.384  0.4099 -1.3294  0.0333
   96MOL     C124891   5.706   0.946   3.739 -0.0507  0.2554 -0.4080
   96MOL     C224892   5.676   1.088   3.685  0.1468 -0.2560  0.2002
   96MOL     O324893   5.659   1.077   3.543 -0.1044 -0.5016 -0.5038
   96MOL     C424894   5.529   1.019   3.514 -0.0141  0.1936 -0.1451
   96MOL     C524895   5.496   1.027   3.362  0.5281  0.0851  0.1492
   96MOL     H624896   5.782   0.902   3.675 -0.4430  1.3311 -1.6294
   96MOL     H724897   5.736   0.945   3.844  0.2786  0.9533 -0.4961
   96MOL     H824898   5.595   1.131   3.743  1.6712  0.2288  2.0334
   96MOL     H924899   5.447   1.064   3.572  0.2915  0.5535  0.0112
   96MOL    H1024900   5.537   0.916   3.550  1.6815  0.5231  0.4582
   96MOL    H1124901   5.461   1.124   3.327 -1.3289 -0.9121 -0.8517
   96MOL    H1224902   5.582   0.990   3.306  0.0368 -0.2031 -0.4275
   96MOL    H1324903   5.410   0.964   3.339 -0.2375  0.9458  0.5951
   96MOL    H1424904   5.615   0.888   3.723  0.4975 -1.0383  1.0374
   96MOL    C1524905   5.794   1.185   3.700 -0.2073 -0.7687 -1.0505
   96MOL    C1624906   5.794   1.267   3.834  0.1605  0.2619  0.2271
   96MOL    O1724907   5.668   1.318   3.876 -0.2167 -0.0749 -0.3303
   96MOL    C1824908   5.603   1.405   3.788  0.1549 -0.1367  0.8784
   96MOL    C1924909   5.461   1.442   3.832  0.0971  0.5844  0.5651
   96MOL    H2024910   5.786   1.259   3.621 -2.1572 -0.6291 -0.7451
   96MOL    H2124911   5.892   1.140   3.686  0.3529  0.9218 -2.8648
   96MOL    H2224912   5.828   1.185   3.897 -0.9650  0.3397  0.9599
   96MOL    H2324913   5.593   1.356   3.691 -1.7806  1.1344  0.4168
   96MOL    H2424914   5.663   1.496   3.784  0.8939 -0.6268  0.6235
   96MOL    H2524915   5.422   1.499   3.747 -0.1391  1.8315  1.5004
   96MOL    H2624916   5.461   1.510   3.917  0.7097 -0.3463  1.3162
   96MOL    H2724917   5.395   1.357   3.849  1.5351 -0.7419 -0.3901
   96MOL    C2824918   5.899   1.385   3.844 -1.2381  0.2920  0.1880
   96MOL    C2924919   5.931   1.433   3.991 -0.3832  0.3729 -0.2615
   96MOL    O3024920   6.012   1.551   3.993  0.8307  0.5926  0.2019
   96MOL    C3124921   5.946   1.676   3.968  0.1921 -0.0380 -0.3919
   96MOL    C3224922   6.035   1.796   3.991  0.4917 -0.7150 -0.1557
   96MOL    H3324923   5.867   1.470   3.783 -0.2331  1.1679  0.8561
   96MOL    H3424924   5.996   1.349   3.809 -0.6747  2.0281 -0.1142
   96MOL    H3524925   5.840   1.460   4.044 -0.9884 -0.8757 -0.6517
   96MOL    H3624926   5.860   1.692   4.033  0.2149 -0.7483 -0.1875
   96MOL    H3724927   5.905   1.677   3.867  2.9483  0.6626 -1.5259
   96MOL    H3824928   5.966   1.880   3.988  2.0066  0.6657  1.8903
   96MOL    H3924929   6.068   1.810   4.094  0.7043  0.6258 -0.3994
   96MOL    H4024930   6.115   1.806   3.919  0.9512  1.0532  0.5536
   96MOL    C4124931   6.010   1.334   4.073  0.1643 -0.6211 -0.2719
   96MOL    C4224932   5.989   1.349   4.221 -0.5297 -0.1190 -0.1485
   96MOL    O4324933   6.075   1.252   4.273  0.0386  0.0607 -0.3431
   96MOL    C4424934   6.205   1.291   4.311 -0.2276  0.1997 -0.2729
   96MOL    C4524935   6.281   1.171   4.365 -0.4263 -0.6593 -0.2919
   96MOL    H4624936   6.115   1.347   4.048  0.2137  0.0139  0.2710
   96MOL    H4724937   5.977   1.232   4.053  2.7979 -1.7541  0.9363
   96MOL    H4824938   6.016   1.448   4.258 -0.0324 -0.9684  1.8157
   96MOL    H4924939   6.197   1.379   4.374 -2.5370 -0.2857  0.1529
   96MOL    H5024940   6.258   1.318   4.220 -0.6513  1.1970 -0.2226
   96MOL    H5124941   6.265   1.093   4.291  2.8401  0.2107 -1.9945
   96MOL    H5224942   6.390   1.170   4.357 -0.3432 -0.3929  0.7640
   96MOL    H5324943   6.239   1.123   4.454  0.6940 -1.9999 -0.4643
   96MOL    C5424944   5.848   1.310   4.272  1.2836  0.3772  0.2616
   96MOL    C5524945   5.841   1.326   4.424  0.5020 -0.6344 -0.1424
   96MOL    O5624946   5.827   1.198   4.479  0.4224 -0.3558 -0.2588
   96MOL    C5724947   5.947   1.131   4.510 -0.0986  0.1082 -0.3977
   96MOL    C5824948   5.912   1.008   4.594 -0.1617 -0.1465 -0.6101
   96MOL    H5924949   5.824   1.210   4.237 -0.5322  0.8419  0.1360
   96MOL    H6024950   5.768   1.365   4.222 -0.4264 -2.1564  0.1638
   96MOL    H6124951   5.940   1.362   4.454 -0.5661  1.5893  0.8101
   96MOL    H6224952   6.023   1.195   4.553  0.8133 -0.5368 -1.0116
   96MOL    H6324953   5.993   1.084   4.422  0.4389  0.9309 -0.5623
   96MOL    H6424954   5.998   0.956   4.637 -1.1659  0.5026  2.3310
   96MOL    H6524955   5.849   1.037   4.678  0.7385 -0.5589  0.2241
   96MOL    H6624956   5.856   0.936   4.535 -0.1810 -0.2084 -0.5142
   96MOL    C6724957   5.722   1.421   4.456  0.6512 -0.0939  0.3209
   96MOL    C6824958   5.710   1.561   4.388  0.3118 -0.0661  0.0560
   96MOL    O6924959   5.744   1.673   4.472 -0.1886 -0.1604 -0.0308
   96MOL    C7024960   5.892   1.687   4.484  0.4078 -0.3833  0.5162
   96MOL    C7124961   5.960   1.751   4.364 -0.0061 -0.4018  0.0004
   96MOL    H7224962   5.703   1.433   4.563  1.3294  0.9619  0.3319
   96MOL    H7324963   5.638   1.367   4.413 -0.5828  2.6450 -0.7769
   96MOL    H7424964   5.766   1.579   4.296 -1.6829  1.0303 -0.9839
   96MOL    H7524965   5.938   1.596   4.523  0.8500  0.8281  2.9339
   96MOL    H7624966   5.918   1.754   4.566 -1.2934  0.9399  0.0107
   96MOL    H7724967   5.933   1.856   4.359  0.1608 -0.4138 -1.7447
   96MOL    H7824968   6.069   1.754   4.368 -0.0005 -0.2193 -0.2422
   96MOL    H7924969   5.927   1.705   4.270  0.7780  0.7774 -0.8650
   96MOL    C8024970   5.555   1.586   4.348  0.1490  0.3968  0.2787
   96MOL    C8124971   5.518   1.732   4.307 -0.2857  1.0751  0.1127
   96MOL    O8224972   5.377   1.743   4.300  0.1379 -0.3199 -0.6726
   96MOL    C8324973   5.314   1.751   4.426 -0.1398  0.0548  0.1462
   96MOL    C8424974   5.177   1.805   4.396  1.0455  0.3827  0.1748
   96MOL    H8524975   5.488   1.544   4.423 -0.1222 -0.2312 -0.3062
   96MOL    H8624976   5.521   1.519   4.269  0.4538 -1.2726  1.5335
   96MOL    H8724977   5.564   1.801   4.379  1.9589 -0.4106  0.1502
   96MOL    H8824978   5.369   1.818   4.492 -1.0112 -1.0990  2.1192
   96MOL    H8924979   5.310   1.654   4.476 -0.2884 -0.2062 -0.3737
   96MOL    H9024980   5.132   1.756   4.309  1.4417 -1.1423  0.8115
   96MOL    H9124981   5.126   1.787   4.491  0.0589 -0.2552 -0.4653
   96MOL    H9224982   5.183   1.912   4.377  0.9269  0.1998 -0.9306
   96MOL    C9324983   5.579   1.764   4.165 -0.0907 -0.1138  1.7444
   96MOL    C9424984   5.545   1.896   4.097 -0.8262 -0.5171 -0.2485
   96MOL    O9524985   5.613   1.895   3.970  0.1087  0.0949  0.3134
   96MOL    C9624986   5.524   1.894   3.856 -0.1530 -0.1923  0.1281
   96MOL    C9724987   5.606   1.868   3.734 -0.3814  0.6268  0.2135
   96MOL    H9824988   5.537   1.686   4.101  0.5714  0.4817  0.5671
   96MOL    H9924989   5.685   1.741   4.164 -0.0805 -0.0581 -0.6126
   96MOL   H10024990   5.437   1.906   4.083 -0.7237  0.1564 -0.5471
   96MOL   H10124991   5.478   1.992   3.850  1.5797  0.6164 -0.1801
   96MOL   H10224992   5.445   1.819   3.860 -0.2865 -0.0898 -0.5343
   96MOL   H10324993   5.528   1.891   3.661 -1.2158  0.0238  0.9070
   96MOL   H10424994   5.683   1.946   3.730  1.4979 -1.2233 -1.2115
   96MOL   H10524995   5.639   1.764   3.733 -2.1788  0.0294  1.1712
   96MOL   C10624996   5.610   2.010   4.178 -0.0142  0.2156  0.1611
   96MOL   C10724997   5.540   2.151   4.153 -0.2405 -0.1965  0.0642
   96MOL   O10824998   5.614   2.249   4.209 -0.0106  0.0650  0.2924
   96MOL   C10924999   5.706   2.321   4.124  0.7558  0.0295 -0.1050
   96MOL   C11025000   5.735   2.443   4.205 -0.1928 -0.7832 -0.0411
   96MOL   H11125001   5.716   2.029   4.167 -0.1660  0.4778 -0.9194
   96MOL   H11225002   5.593   1.987   4.283 -2.9792  0.4721 -0.1912
   96MOL   H11325003   5.534   2.165   4.045  0.4631 -0.2012  0.0230
   96MOL   H11425004   5.653   2.348   4.033 -1.9740  1.5031  1.8347
   96MOL   H11525005   5.791   2.254   4.111 -0.0910 -1.4995  2.0278
   96MOL   H11625006   5.641   2.487   4.240  0.0980  1.4009 -1.9283
   96MOL   H11725007   5.792   2.422   4.296  0.2603  0.1474 -0.0998
   96MOL   H11825008   5.796   2.510   4.145  0.2464  0.3884  1.6510
   96MOL   C11925009   5.404   2.171   4.223  0.1617  0.1424 -0.4178
   96MOL   C12025010   5.342   2.313   4.232  0.3681  0.2595  0.3889
   96MOL   O12125011   5.227   2.307   4.314 -0.9072 -0.1267  0.0755
   96MOL   C12225012   5.249   2.361   4.440  0.4616 -1.2244  0.1904
   96MOL   C12325013   5.112   2.386   4.505  0.4925  0.2375 -1.2470
   96MOL   H12425014   5.421   2.138   4.326  0.7723  1.2266 -0.1575
   96MOL   H12525015   5.333   2.109   4.169 -0.9957 -1.0222  2.3521
   96MOL   H12625016   5.414   2.381   4.276  2.3172 -1.2873 -0.3492
   96MOL   H12725017   5.292   2.461   4.441 -2.2279 -0.0243  2.7377
   96MOL   H12825018   5.319   2.292   4.485 -0.9152 -1.4758  2.0128
   96MOL   H12925019   5.050   2.453   4.446  0.5791  0.4566 -1.0914
   96MOL   H13025020   5.061   2.290   4.518 -1.2471  1.4554  1.3970
   96MOL   H13125021   5.124   2.422   4.607  0.2593 -1.6838 -0.5224
   96MOL   C13225022   5.310   2.364   4.085 -0.8757 -0.0775  0.5608
   96MOL   C13325023   5.255   2.508   4.078 -0.6644 -0.5286  0.1009
   96MOL   O13425024   5.227   2.546   3.942  0.0121 -0.5063 -0.5950
   96MOL   C13525025   5.103   2.492   3.890 -0.5223  0.3197 -0.0806
   96MOL   C13625026   5.085   2.559   3.759 -0.0716 -0.1429  0.1821
   96MOL   H13725027   5.246   2.290   4.037  0.6006 -1.8079  1.1985
   96MOL   H13825028   5.402   2.356   4.028  0.6084 -2.2822  3.1377
   96MOL   H13925029   5.165   2.509   4.139  0.0005 -0.4795  1.0823
   96MOL   H14025030   5.028   2.528   3.961  0.0343 -0.6278  0.9873
   96MOL   H14125031   5.107   2.385   3.870 -1.5176  0.4779 -1.1960
   96MOL   H14225032   5.173   2.542   3.697 -1.6123 -0.5157 -1.9338
   96MOL   H14325033   4.999   2.519   3.706  2.0866  0.1209 -3.7124
   96MOL   H14425034   5.063   2.666   3.759  0.1633 -0.0485  2.9438
   96MOL   C14525035   5.350   2.610   4.141 -0.0801  0.3072 -0.2750
   96MOL   C14625036   5.318   2.759   4.141  0.9874  0.8330 -0.8149
   96MOL   O14725037   5.428   2.835   4.192 -0.6123 -0.1852  0.5380
   96MOL   C14825038   5.451   2.961   4.132 -0.2605  0.3867 -0.0964
   96MOL   C14925039   5.509   2.959   3.990 -0.0030 -0.0878 -0.4549
   96MOL   H15025040   5.449   2.604   4.095 -0.8112 -0.7911 -1.7423
   96MOL   H15125041   5.361   2.587   4.247 -0.4129  2.5325  0.2665
   96MOL   H15225042   5.308   2.793   4.038 -0.0941 -0.1378 -1.0387
   96MOL   H15325043   5.514   3.015   4.202 -1.9077  0.8760  1.0412
   96MOL   H15425044   5.357   3.016   4.141 -1.4432 -1.8469  1.5253
   96MOL   H15525045   5.470   2.893   3.913 -0.5910 -0.0027 -0.2333
   96MOL   H15625046   5.512   3.057   3.942  3.1692  0.9388  1.7055
   96MOL   H15725047   5.614   2.933   3.998 -0.1148 -0.9176 -1.5567
   96MOL   C15825048   5.186   2.801   4.206  0.2875 -0.0978  0.7581
   96MOL   C15925049   5.196   2.854   4.348 -0.4640 -0.4412  0.6623
   96MOL   O16025050   5.273   2.763   4.418 -0.0423  0.8106 -0.2214
   96MOL   C16125051   5.368   2.824   4.515 -0.3335  0.3651  0.2826
   96MOL   C16225052   5.460   2.714   4.566  0.6303 -0.0344  0.3458
   96MOL   H16325053   5.110   2.724   4.193  0.9881 -0.6494 -0.1544
   96MOL   H16425054   5.154   2.884   4.143  1.2268 -0.8076 -0.6907
   96MOL   H16525055   5.251   2.948   4.348  0.6106 -1.0359  2.3428
   96MOL   H16625056   5.326   2.874   4.602  1.4976 -0.5929  1.7565
   96MOL   H16725057   5.418   2.909   4.468 -0.3936 -0.1769 -0.7795
   96MOL   H16825058   5.386   2.644   4.605  0.3914 -2.4168 -4.0297
   96MOL   H16925059   5.512   2.659   4.487 -2.3390  0.2241 -1.8530
   96MOL   H17025060   5.519   2.745   4.652  1.0326 -2.0120  0.8255
   96MOL   C17125061   5.069   2.871   4.419  0.4267  0.2097  0.4699
   96MOL   C17225062   4.965   2.962   4.351 -0.6369 -0.0320  0.4141
   96MOL   O17325063   5.010   3.097   4.372  0.3146  0.0827  0.0825
   96MOL   C17425064   5.048   3.170   4.260  0.5241  0.0514 -0.2293
   96MOL   C17525065   4.916   3.214   4.188 -0.4246 -0.4708 -0.7694
   96MOL   H17625066   5.082   2.880   4.527  0.2394  0.7282  0.4497
   96MOL   H17725067   5.036   2.767   4.416 -0.0682  0.4111 -2.8833
   96MOL   H17825068   4.949   2.928   4.249 -2.6907 -0.1288  0.7361
   96MOL   H17925069   5.118   3.123   4.191  1.0303 -0.9652  0.9556
   96MOL   H18025070   5.101   3.257   4.299  1.6935 -1.2423  1.0779
   96MOL   H18125071   4.932   3.292   4.114 -1.4999  2.2830  1.8142
   96MOL   H18225072   4.858   3.135   4.141 -0.1512 -1.7137  0.9027
   96MOL   H18325073   4.845   3.261   4.256  0.0731 -2.3861  1.1643
   96MOL   C18425074   4.824   2.941   4.411  1.3070  0.7860  0.3327
   96MOL   C18525075   4.742   2.812   4.371  0.0361  0.2402  0.3937
   96MOL   O18625076   4.712   2.816   4.231 -0.4355 -0.4332 -0.2735
   96MOL   C18725077   4.660   2.687   4.188  0.2860  0.3373  0.4777
   96MOL   C18825078   4.779   2.600   4.142 -0.3292  0.1683  0.3426
   96MOL   H18925079   4.756   3.018   4.377 -0.7510 -1.5702 -1.1025
   96MOL   H19025080   4.816   2.950   4.520 -1.4067  0.0540  0.2324
   96MOL   H19125081   4.814   2.731   4.378  0.8584  0.9602  0.3308
   96MOL   H19225082   4.594   2.706   4.103  3.0933  2.0699 -1.3716
   96MOL   H19325083   4.598   2.628   4.256  0.7944 -2.5842 -1.5100
   96MOL   H19425084   4.873   2.654   4.155 -1.6068  2.5379  0.1686
   96MOL   H19525085   4.789   2.507   4.198 -0.7569 -1.0174 -1.5012
   96MOL   H19625086   4.771   2.569   4.038 -1.9180 -0.9846  0.7986
   96MOL   C19725087   4.629   2.787   4.480 -0.1022  0.5980 -0.2931
   96MOL   C19825088   4.660   2.699   4.600 -0.3986 -0.1068  0.5501
   96MOL   O19925089   4.689   2.563   4.548  0.0111  0.7968  0.4536
   96MOL   C20025090   4.754   2.473   4.633  0.6609  0.0595  0.5960
   96MOL   C20125091   4.754   2.345   4.545 -0.3183 -0.3024  0.0433
   96MOL   H20225092   4.536   2.739   4.451 -0.8184  1.7849  0.0343
   96MOL   H20325093   4.595   2.883   4.516  0.0182 -0.3013  2.3302
   96MOL   H20425094   4.759   2.725   4.639  0.7344 -1.8442 -1.1011
   96MOL   H20525095   4.714   2.464   4.734 -2.3660 -0.0762 -0.5734
   96MOL   H20625096   4.854   2.514   4.643  0.5888  0.6936 -1.1154
   96MOL   H20725097   4.802   2.371   4.450 -1.3693 -3.0873 -1.3251
   96MOL   H20825098   4.808   2.258   4.581 -0.5867 -0.7657 -0.6373
   96MOL   H20925099   4.647   2.327   4.529 -0.2614 -0.2657 -0.3848
   96MOL   C21025100   4.557   2.700   4.716  0.0301 -0.1863 -0.1854
   96MOL   C21125101   4.520   2.831   4.782 -0.7113 -0.1065  1.0243
   96MOL   O21225102   4.648   2.880   4.825 -0.5960  0.4670  0.1580
   96MOL   C21325103   4.660   3.014   4.874  0.1626 -0.3604 -0.2624
   96MOL   C21425104   4.595   3.114   4.780 -0.5626  0.0104  0.1208
   96MOL   H21525105   4.580   2.626   4.793 -0.4887  0.3045  0.4502
   96MOL   H21625106   4.466   2.667   4.666  1.0922  0.3495 -2.5299
   96MOL   H21725107   4.481   2.892   4.700  2.4635  1.8999  0.9055
   96MOL   H21825108   4.764   3.041   4.894 -1.2355  3.3364  2.5554
   96MOL   H21925109   4.615   3.020   4.973  1.0492  2.3302  0.0284
   96MOL   H22025110   4.649   3.106   4.686  0.4688  0.2332  0.6820
   96MOL   H22125111   4.492   3.099   4.747 -0.7316 -0.2547  0.7465
   96MOL   H22225112   4.599   3.214   4.822  0.7433 -0.5494  1.3703
   96MOL   C22325113   4.428   2.811   4.903 -0.3562  0.2058 -0.1321
   96MOL   C22425114   4.281   2.795   4.859 -0.0994  0.5747 -1.3912
   96MOL   O22525115   4.245   2.928   4.831  0.5241  0.2693  0.4567
   96MOL   C22625116   4.187   2.969   4.711 -0.0070 -0.0163 -0.0800
   96MOL   C22725117   4.112   3.100   4.716 -0.5730 -0.7351  0.3126
   96MOL   H22825118   4.427   2.902   4.964  2.2056  0.9940 -1.2042
   96MOL   H22925119   4.471   2.729   4.960  0.9946  0.0491 -1.3637
   96MOL   H23025120   4.272   2.730   4.772 -1.8796 -0.0439 -0.7730
   96MOL   H23125121   4.117   2.892   4.679 -0.1684  0.1569 -0.1442
   96MOL   H23225122   4.255   2.972   4.625  1.0037 -0.3930  0.6922
   96MOL   H23325123   4.053   3.112   4.625 -0.2680  0.9373  0.3230
   96MOL   H23425124   4.043   3.094   4.801  2.1508 -0.7401  2.5833
   96MOL   H23525125   4.173   3.189   4.727  0.2838 -1.2741 -0.0300
   96MOL   C23625126   4.192   2.753   4.973 -0.2481 -0.4838 -0.2612
   96MOL   C23725127   4.213   2.604   5.008  0.1255 -0.1014  0.1180
   96MOL   O23825128   4.168   2.518   4.905  0.1434  0.6993  0.0967
   96MOL   C23925129   4.260   2.420   4.871  0.0916  0.0773 -0.1562
   96MOL   C24025130   4.201   2.360   4.741 -0.9617 -0.4321  0.1676
   96MOL   H24125131   4.088   2.776   4.947 -0.4585 -1.7835 -0.6064
   96MOL   H24225132   4.208   2.822   5.056  2.0685 -0.4726 -0.6780
   96MOL   H24325133   4.319   2.598   5.030  0.2034 -0.0932 -0.2571
   96MOL   H24425134   4.260   2.340   4.945  1.7055  0.4220  0.2227
   96MOL   H24525135   4.360   2.457   4.852  0.2018 -1.1015 -1.9971
   96MOL   H24625136   4.129   2.435   4.708 -0.8956 -0.0142  0.9510
   96MOL   H24725137   4.281   2.345   4.668 -1.4321  4.0462 -1.4001
   96MOL   H24825138   4.137   2.276   4.769 -0.6091 -0.0224  2.3397
   96MOL   C24925139   4.148   2.559   5.136  0.5086  0.6376  0.1283
   96MOL   C25025140   4.198   2.635   5.262  0.4305 -0.1174  0.0612
   96MOL   O25125141   4.176   2.564   5.381  0.5305  0.3324  0.4895
   96MOL   C25225142   4.047   2.585   5.436  0.0297 -0.0509  0.3756
   96MOL   C25325143   4.031   2.524   5.574  0.1068  0.1555  0.5673
   96MOL   H25425144   4.161   2.452   5.146 -1.6961  0.3342 -0.0740
   96MOL   H25525145   4.040   2.563   5.136  0.5619  3.2442  2.3729
   96MOL   H25625146   4.305   2.655   5.267  0.3624  0.5158 -1.0062
   96MOL   H25725147   3.970   2.537   5.376 -0.2148 -1.2115  1.6053
   96MOL   H25825148   4.037   2.694   5.436  0.4914 -0.0086  0.4162
   96MOL   H25925149   4.112   2.561   5.637  0.5921  1.2753 -0.6970
   96MOL   H26025150   3.934   2.560   5.610 -0.8749 -1.7617 -0.1263
   96MOL   H26125151   4.020   2.416   5.564  0.4783  0.0057  1.6654
   96MOL   H26225152   4.153   2.734   5.263  1.3649  0.3065  0.1309
   97MOL     C125153   1.047   2.685   3.316  0.4721 -0.0503 -0.1156
   97MOL     C225154   1.082   2.812   3.234  0.2958  0.3738 -0.0585
   97MOL     O325155   1.143   2.904   3.322  0.3231 -0.5805 -0.2131
   97MOL     C425156   1.282   2.875   3.340  0.0374 -0.2716  0.7701
   97MOL     C525157   1.346   2.977   3.430 -0.1895 -0.5363  0.7958
   97MOL     H625158   0.993   2.712   3.407 -0.8170  0.9676 -1.1654
   97MOL     H725159   0.983   2.625   3.251 -0.4123 -0.4406  1.1004
   97MOL     H825160   1.150   2.791   3.151 -1.2791 -2.1442 -0.7602
   97MOL     H925161   1.342   2.869   3.250 -0.9542  1.0235  0.0104
   97MOL    H1025162   1.299   2.778   3.387  0.4966 -0.1636  0.8277
   97MOL    H1125163   1.356   3.070   3.373  1.1805 -1.5792 -0.7027
   97MOL    H1225164   1.291   2.992   3.523  0.1855  0.7505  0.8179
   97MOL    H1325165   1.451   2.950   3.444  0.0113 -1.5552 -2.2808
   97MOL    H1425166   1.121   2.612   3.348  1.0059  1.0029  1.0733
   97MOL    C1525167   0.959   2.882   3.162 -0.3498 -0.0636  0.1534
   97MOL    C1625168   1.004   2.987   3.058  0.4139 -0.0124 -0.1407
   97MOL    O1725169   1.103   2.931   2.979 -0.0379  0.3807  0.4051
   97MOL    C1825170   1.052   2.896   2.857  0.0946  0.9225  0.6887
   97MOL    C1925171   1.156   2.816   2.777 -0.0023 -0.4675  0.0816
   97MOL    H2025172   0.886   2.932   3.226 -1.2052  2.4913 -2.7089
   97MOL    H2125173   0.912   2.792   3.124  1.2201 -0.1749 -1.6072
   97MOL    H2225174   0.910   3.010   3.007 -0.0543 -2.9067 -0.6767
   97MOL    H2325175   1.027   2.983   2.796 -2.0722  1.4930  2.3143
   97MOL    H2425176   0.963   2.836   2.875 -0.0351  0.6671 -0.6895
   97MOL    H2525177   1.191   2.725   2.827 -0.3581  0.4895  2.1389
   97MOL    H2625178   1.232   2.891   2.758 -0.5836 -0.2471 -1.4063
   97MOL    H2725179   1.106   2.791   2.683  0.0147  0.1517 -0.0930
   97MOL    C2825180   1.064   3.116   3.123 -0.3521  0.6309 -0.1863
   97MOL    C2925181   1.086   3.235   3.020 -0.2505  0.3174  0.2723
   97MOL    O3025182   1.197   3.315   3.062  0.4204 -0.2325  0.3041
   97MOL    C3125183   1.321   3.285   3.004 -0.5057  0.3561 -0.0033
   97MOL    C3225184   1.391   3.173   3.078  0.5878 -0.0997 -0.2373
   97MOL    H3325185   1.157   3.094   3.175  1.1320 -1.3124 -3.5230
   97MOL    H3425186   1.006   3.154   3.207  1.1104 -0.5272  1.3796
   97MOL    H3525187   1.103   3.192   2.921 -2.1844 -1.2450  0.5917
   97MOL    H3625188   1.374   3.379   3.017 -1.3594  0.7045  0.9715
   97MOL    H3725189   1.320   3.271   2.896 -0.9843  0.8850 -0.0719
   97MOL    H3825190   1.356   3.076   3.044 -1.8377  0.7504 -0.2326
   97MOL    H3925191   1.499   3.186   3.089  0.2525  1.0259  1.9367
   97MOL    H4025192   1.361   3.190   3.181  0.2373 -2.5952  0.1005
   97MOL    C4125193   0.973   3.338   3.008 -1.2880 -0.0503 -0.0052
   97MOL    C4225194   0.842   3.304   2.930  0.1929 -0.2651  0.4721
   97MOL    O4325195   0.766   3.201   2.983 -0.2034  0.4201  0.0704
   97MOL    C4425196   0.692   3.234   3.100  0.2783  0.5066 -0.3286
   97MOL    C4525197   0.636   3.103   3.160  0.3382 -0.3708 -0.4015
   97MOL    H4625198   1.024   3.424   2.965 -0.3548  0.5125  2.1834
   97MOL    H4725199   0.950   3.365   3.111 -3.2453 -1.8978  0.0906
   97MOL    H4825200   0.780   3.392   2.947 -1.9767 -1.8560  0.9766
   97MOL    H4925201   0.605   3.292   3.071  0.1886  1.5175  1.8969
   97MOL    H5025202   0.745   3.284   3.181  0.4652  0.0208 -0.1463
   97MOL    H5125203   0.715   3.034   3.187  1.8319  1.7865  0.8590
   97MOL    H5225204   0.577   3.124   3.249  0.8116 -0.2747 -0.1089
   97MOL    H5325205   0.573   3.043   3.094 -0.1154 -1.3683  0.9323
   97MOL    C5425206   0.853   3.292   2.771  0.7730  0.4672  0.3083
   97MOL    C5525207   0.714   3.313   2.705  0.2007  0.2726  0.3404
   97MOL    O5625208   0.632   3.200   2.713 -0.0489 -0.0293 -0.3734
   97MOL    C5725209   0.491   3.221   2.721  0.1260  0.6173  0.6736
   97MOL    C5825210   0.440   3.086   2.774 -0.2923  0.7236 -0.4328
   97MOL    H5925211   0.905   3.202   2.738 -0.9530 -0.3586 -0.1979
   97MOL    H6025212   0.924   3.371   2.749 -0.8466  1.5487 -1.0919
   97MOL    H6125213   0.664   3.395   2.757 -0.9883 -1.3436  1.7610
   97MOL    H6225214   0.453   3.229   2.620  0.4715  0.1247  0.5014
   97MOL    H6325215   0.460   3.300   2.789 -2.1247  0.4977 -0.1805
   97MOL    H6425216   0.477   3.006   2.710  1.7063  0.3203  1.2154
   97MOL    H6525217   0.480   3.062   2.872  0.9985 -0.0292 -1.1386
   97MOL    H6625218   0.332   3.071   2.773 -0.2010 -0.3805  2.1667
   97MOL    C6725219   0.731   3.347   2.559 -0.0667 -0.6885  0.3457
   97MOL    C6825220   0.790   3.481   2.515 -0.3684 -0.6525  0.8735
   97MOL    O6925221   0.725   3.580   2.592  0.3602  0.2175 -0.8404
   97MOL    C7025222   0.775   3.714   2.590 -0.0335  0.0929 -0.5298
   97MOL    C7125223   0.692   3.789   2.700  0.0753  0.2215  0.0993
   97MOL    H7225224   0.631   3.347   2.515  0.8880  1.8469 -1.9777
   97MOL    H7325225   0.788   3.263   2.519  3.2154  1.7058 -0.2050
   97MOL    H7425226   0.898   3.482   2.532  0.0897  0.6798 -1.9884
   97MOL    H7525227   0.764   3.762   2.493  2.2186  0.6514 -0.5358
   97MOL    H7625228   0.877   3.718   2.627 -0.6785  0.0646  1.2939
   97MOL    H7725229   0.586   3.784   2.676  0.1646 -1.3335 -0.0661
   97MOL    H7825230   0.700   3.748   2.801 -1.5721 -0.0476  0.1280
   97MOL    H7925231   0.724   3.893   2.707  0.1443  0.1310  1.1623
   97MOL    C8025232   0.792   3.510   2.358  0.3393  0.6565  0.5255
   97MOL    C8125233   0.886   3.406   2.280 -0.5821  0.0986 -0.3845
   97MOL    O8225234   1.022   3.430   2.320 -0.7015  0.5453  0.2175
   97MOL    C8325235   1.118   3.324   2.301 -0.0911  0.4385 -0.5668
   97MOL    C8425236   1.253   3.379   2.324 -0.3715  0.0178  0.0225
   97MOL    H8525237   0.825   3.614   2.355  0.8277  0.4391 -2.3330
   97MOL    H8625238   0.693   3.506   2.313  1.5891 -1.9599 -2.1864
   97MOL    H8725239   0.864   3.302   2.303 -1.6827  0.8248  2.0018
   97MOL    H8825240   1.117   3.280   2.201  2.0560 -1.9124  0.3830
   97MOL    H8925241   1.111   3.251   2.381  1.7328  1.5502  0.6498
   97MOL    H9025242   1.327   3.299   2.317  0.3391  0.6536  0.2619
   97MOL    H9125243   1.285   3.440   2.240  0.5281  1.8221  1.6404
   97MOL    H9225244   1.260   3.434   2.418  0.5577 -0.9090  0.5041
   97MOL    C9325245   0.878   3.408   2.121 -0.5386 -0.6612 -0.1123
   97MOL    C9425246   0.735   3.362   2.076  0.3691  0.0381  0.8013
   97MOL    O9525247   0.740   3.226   2.097 -0.8064  0.1911 -0.5147
   97MOL    C9625248   0.621   3.164   2.143  0.0241 -0.0352 -0.2872
   97MOL    C9725249   0.645   3.016   2.163  0.4035  0.2030  0.5707
   97MOL    H9825250   0.961   3.357   2.072  0.7003  1.2640 -0.1175
   97MOL    H9925251   0.904   3.504   2.075  1.3122 -1.1159 -0.0897
   97MOL   H10025252   0.654   3.394   2.142  0.6054  1.2654  0.5139
   97MOL   H10125253   0.536   3.181   2.078  0.7923 -0.4764 -1.4298
   97MOL   H10225254   0.593   3.210   2.238  1.5121  3.2322 -1.3768
   97MOL   H10325255   0.723   2.996   2.236  0.3068  0.6698  0.8108
   97MOL   H10425256   0.553   2.965   2.190  0.7456 -1.2116 -0.8726
   97MOL   H10525257   0.663   2.975   2.064  2.4555 -0.4545  1.1890
   97MOL   C10625258   0.711   3.386   1.931 -0.2097  0.4922 -0.0559
   97MOL   C10725259   0.565   3.407   1.883 -0.2237  0.2992 -0.8399
   97MOL   O10825260   0.553   3.322   1.764  0.3270  0.0769 -0.0110
   97MOL   C10925261   0.496   3.195   1.798  1.3958 -0.2003  0.7695
   97MOL   C11025262   0.475   3.121   1.665 -0.1831 -0.3296  0.7631
   97MOL   H11125263   0.758   3.305   1.876  0.8542  0.4148  0.9457
   97MOL   H11225264   0.771   3.472   1.901  0.7254 -0.1155  0.0607
   97MOL   H11325265   0.500   3.372   1.963  1.2235 -0.3335  0.0751
   97MOL   H11425266   0.398   3.192   1.844  0.3527 -1.4478 -1.4334
   97MOL   H11525267   0.571   3.139   1.854  0.9923 -0.3929  1.1135
   97MOL   H11625268   0.382   3.148   1.615 -0.2691 -3.5531 -0.9816
   97MOL   H11725269   0.554   3.132   1.591 -2.4656 -0.4671 -1.8031
   97MOL   H11825270   0.461   3.016   1.692  0.0465 -1.4160 -3.0498
   97MOL   C11925271   0.543   3.556   1.844 -0.0281  1.1049 -0.0334
   97MOL   C12025272   0.535   3.658   1.954  0.0396 -0.6539  0.7816
   97MOL   O12125273   0.661   3.666   2.013 -0.7268 -0.2823  0.1986
   97MOL   C12225274   0.721   3.792   1.996 -0.0429  0.4393  0.2790
   97MOL   C12325275   0.847   3.796   2.074  0.0426 -0.3419  0.3246
   97MOL   H12425276   0.452   3.569   1.784  1.2008 -0.3502 -2.2678
   97MOL   H12525277   0.617   3.587   1.771 -0.1524  2.9254  0.5763
   97MOL   H12625278   0.501   3.757   1.921  0.0879 -1.2630 -1.1731
   97MOL   H12725279   0.652   3.875   2.015 -1.5568 -0.7077 -0.1566
   97MOL   H12825280   0.749   3.789   1.891  0.1249  2.2335  0.2483
   97MOL   H12925281   0.908   3.713   2.039 -2.0318 -0.6245 -2.7178
   97MOL   H13025282   0.894   3.893   2.057 -1.2679  0.6200  2.0139
   97MOL   H13125283   0.828   3.795   2.182  0.2842 -1.1742  0.3620
   97MOL   C13225284   0.443   3.618   2.069  0.0477 -1.2244 -0.7478
   97MOL   C13325285   0.430   3.717   2.184 -0.2270  0.0244  1.2234
   97MOL   O13425286   0.346   3.644   2.269  0.0930  0.1854  0.2584
   97MOL   C13525287   0.406   3.617   2.399  0.3587 -0.1876 -0.6378
   97MOL   C13625288   0.329   3.501   2.472 -0.4052  0.0644 -0.4258
   97MOL   H13725289   0.478   3.521   2.105 -0.2203 -0.8677  0.4890
   97MOL   H13825290   0.342   3.602   2.031 -0.1234  0.9532 -1.2693
   97MOL   H13925291   0.526   3.744   2.227  0.2053  2.0112 -0.8927
   97MOL   H14025292   0.395   3.708   2.457 -0.7622 -1.2099  0.7915
   97MOL   H14125293   0.512   3.591   2.393  0.5705  0.5448 -0.0924
   97MOL   H14225294   0.231   3.534   2.505 -0.5284 -0.0262 -0.6946
   97MOL   H14325295   0.312   3.416   2.405  1.6761 -0.3009 -0.5406
   97MOL   H14425296   0.401   3.474   2.550 -0.8094 -1.1513 -0.4535
   97MOL   C14525297   0.368   3.861   2.160 -0.3859 -0.6193 -0.5498
   97MOL   C14625298   0.387   3.968   2.274 -0.1212 -0.1891 -0.0353
   97MOL   O14725299   0.311   4.081   2.233 -0.3484 -0.2939 -0.4165
   97MOL   C14825300   0.216   4.131   2.335  0.2545  0.2153  0.2129
   97MOL   C14925301   0.169   4.274   2.308 -0.5035 -0.4439  0.6646
   97MOL   H15025302   0.264   3.844   2.134 -1.0946 -1.0370  2.3726
   97MOL   H15125303   0.426   3.899   2.076  0.2843  1.0921  0.6607
   97MOL   H15225304   0.348   3.924   2.366 -2.2007  0.4369 -0.5958
   97MOL   H15325305   0.260   4.126   2.434  0.2448 -2.3881  0.1333
   97MOL   H15425306   0.125   4.071   2.335 -0.4400  1.1858 -2.5763
   97MOL   H15525307   0.121   4.272   2.210 -1.4842  1.9841  1.0572
   97MOL   H15625308   0.102   4.317   2.382  0.3136 -0.0714  1.1971
   97MOL   H15725309   0.254   4.339   2.286 -0.0870 -1.4117 -0.6597
   97MOL   C15825310   0.536   4.008   2.292 -0.6455 -0.6515  0.2080
   97MOL   C15925311   0.573   4.130   2.377  0.4782 -0.4918 -0.3822
   97MOL   O16025312   0.714   4.150   2.354 -0.2554 -0.2592  0.0359
   97MOL   C16125313   0.759   4.225   2.238 -0.9395 -0.9245  0.4673
   97MOL   C16225314   0.915   4.226   2.232 -0.5275  0.1740 -0.0624
   97MOL   H16325315   0.570   4.026   2.191  1.3347  1.9834  1.3019
   97MOL   H16425316   0.593   3.926   2.337  2.0168  1.0550  0.0516
   97MOL   H16525317   0.517   4.216   2.340  1.4410  0.1182 -0.4383
   97MOL   H16625318   0.711   4.323   2.239 -3.8423 -2.2791 -0.0215
   97MOL   H16725319   0.721   4.186   2.144 -0.9229  0.7999 -0.2754
   97MOL   H16825320   0.952   4.283   2.146  2.5323 -0.2168  0.9450
   97MOL   H16925321   0.945   4.263   2.330 -1.5423 -1.3307  0.8428
   97MOL   H17025322   0.957   4.126   2.225 -0.7292  0.1188 -0.5047
   97MOL   C17125323   0.545   4.110   2.532  0.8255 -0.1070  0.8736
   97MOL   C17225324   0.552   4.227   2.622  0.7064 -0.1268  0.2453
   97MOL   O17325325   0.451   4.314   2.567 -0.3206  0.0340 -0.2452
   97MOL   C17425326   0.382   4.403   2.662 -0.4427  0.5402 -0.5558
   97MOL   C17525327   0.272   4.339   2.752 -0.3071  0.2199  0.5113
   97MOL   H17625328   0.622   4.036   2.555 -0.6119 -2.2588 -0.9640
   97MOL   H17725329   0.453   4.053   2.545  0.6021  0.1647  0.5040
   97MOL   H17825330   0.519   4.188   2.718 -0.8069  1.2301  0.2881
   97MOL   H17925331   0.329   4.479   2.604 -1.0804 -0.7530 -1.6852
   97MOL   H18025332   0.448   4.457   2.730  0.7270  0.9612 -2.0044
   97MOL   H18125333   0.325   4.266   2.813  2.2320  1.3577 -0.2826
   97MOL   H18225334   0.229   4.425   2.803  1.0610  1.6242 -0.6599
   97MOL   H18325335   0.206   4.288   2.681 -0.1233  0.8614 -0.1315
   97MOL   C18425336   0.695   4.296   2.632  0.6609  0.1661  0.1482
   97MOL   C18525337   0.783   4.205   2.721  0.6870 -0.6204  0.0873
   97MOL   O18625338   0.769   4.241   2.855 -0.3813  0.0351 -0.2730
   97MOL   C18725339   0.714   4.136   2.931 -0.0742 -0.1346 -0.2906
   97MOL   C18825340   0.708   4.182   3.072 -0.3925 -0.4169 -0.4617
   97MOL   H18925341   0.690   4.390   2.688  2.8081 -0.1047  0.8245
   97MOL   H19025342   0.742   4.319   2.536  3.0130 -0.5219  1.1154
   97MOL   H19125343   0.767   4.101   2.694 -0.3080 -0.9546  1.8984
   97MOL   H19225344   0.760   4.037   2.925 -1.5557 -0.8607  0.0259
   97MOL   H19325345   0.615   4.109   2.897 -0.4113  0.3026  0.3342
   97MOL   H19425346   0.643   4.268   3.084  0.0348 -0.0851 -0.5278
   97MOL   H19525347   0.666   4.102   3.133  0.3146  1.6616  2.8890
   97MOL   H19625348   0.807   4.210   3.109 -0.3523  1.2770 -1.8010
   97MOL   C19725349   0.931   4.227   2.670 -0.3308  0.1704 -0.2969
   97MOL   C19825350   1.028   4.162   2.770  0.4156 -0.0344 -0.6362
   97MOL   O19925351   1.160   4.184   2.720  0.6200  0.2988 -0.2776
   97MOL   C20025352   1.210   4.314   2.757  0.5334  0.1823  0.7066
   97MOL   C20125353   1.358   4.319   2.760 -0.3799 -0.1554 -0.3752
   97MOL   H20225354   0.952   4.334   2.668 -1.2802  0.3757  0.1297
   97MOL   H20325355   0.945   4.199   2.566 -0.7277  1.0942 -0.6104
   97MOL   H20425356   1.012   4.203   2.869 -0.8979 -0.9277 -0.4729
   97MOL   H20525357   1.180   4.330   2.860 -0.7156 -2.3674  0.7994
   97MOL   H20625358   1.156   4.387   2.696  1.4826  0.4193  0.1426
   97MOL   H20725359   1.408   4.233   2.804  0.8822  0.4988 -0.5063
   97MOL   H20825360   1.389   4.335   2.656  1.9735 -0.8229  0.1989
   97MOL   H20925361   1.383   4.409   2.816  1.7055 -0.6642 -0.4771
   97MOL   C21025362   1.018   4.006   2.769  0.3345  0.7070 -0.1762
   97MOL   C21125363   1.109   3.934   2.861 -0.1722  0.6804  0.1398
   97MOL   O21225364   1.089   3.799   2.824 -0.4557  0.0464  0.3436
   97MOL   C21325365   1.188   3.752   2.737  0.3673  0.0515  0.7414
   97MOL   C21425366   1.194   3.605   2.708  0.0629  0.1005 -0.2935
   97MOL   H21525367   1.029   3.970   2.667 -1.8638 -2.0865  0.5401
   97MOL   H21625368   0.923   3.962   2.797 -0.5691  2.2727 -0.6846
   97MOL   H21725369   1.210   3.965   2.837 -0.5783  2.6555  0.9436
   97MOL   H21825370   1.288   3.785   2.766  0.3796  0.0886  0.6579
   97MOL   H21925371   1.166   3.804   2.644 -0.1504  1.5696  1.7026
   97MOL   H22025372   1.235   3.549   2.792 -0.7007 -2.3098 -1.4858
   97MOL   H22125373   1.103   3.562   2.666  1.1236 -1.2135 -1.2947
   97MOL   H22225374   1.265   3.593   2.626  0.5404  0.5071  0.0585
   97MOL   C22325375   1.091   3.939   3.018 -1.0791 -0.1666 -0.3379
   97MOL   C22425376   1.225   3.909   3.088  0.6990 -0.4405  0.5477
   97MOL   O22525377   1.203   3.873   3.223 -0.2443  0.0077 -0.3450
   97MOL   C22625378   1.162   3.736   3.239 -0.0469  0.4081 -0.4161
   97MOL   C22725379   1.137   3.704   3.386 -0.6289 -0.3476 -0.0679
   97MOL   H22825380   1.007   3.878   3.052  1.1413 -2.5353  1.0774
   97MOL   H22925381   1.054   4.040   3.038 -0.0983 -0.3228  2.5315
   97MOL   H23025382   1.279   3.830   3.036  1.1682  0.6982 -0.7268
   97MOL   H23125383   1.227   3.667   3.185  1.1376 -0.0848  1.5944
   97MOL   H23225384   1.068   3.722   3.187 -1.3930 -1.9944  2.5463
   97MOL   H23325385   1.212   3.765   3.437 -0.5047 -1.0550  0.6103
   97MOL   H23425386   1.045   3.744   3.428 -1.3581 -1.4328 -0.6092
   97MOL   H23525387   1.151   3.598   3.408  1.8030 -0.4570 -1.9508
   97MOL   C23625388   1.316   4.040   3.095  0.2487  0.3525  0.0827
   97MOL   C23725389   1.464   4.001   3.138  0.4189  0.0491 -0.0124
   97MOL   O23825390   1.509   4.114   3.217  0.0539  0.8311 -0.5103
   97MOL   C23925391   1.534   4.098   3.352  0.5906 -0.3028  0.4908
   97MOL   C24025392   1.530   4.227   3.418  0.0645 -0.4528 -0.5078
   97MOL   H24125393   1.288   4.114   3.170  1.8214  0.0226  1.0190
   97MOL   H24225394   1.319   4.093   3.000 -0.1448 -0.8497 -0.6006
   97MOL   H24325395   1.475   3.909   3.196 -0.5881 -0.5246 -0.6979
   97MOL   H24425396   1.633   4.053   3.362  0.4272 -0.4993  1.2705
   97MOL   H24525397   1.462   4.028   3.394  0.8235  0.7917  2.8292
   97MOL   H24625398   1.592   4.311   3.385  0.1936  0.4380  1.8847
   97MOL   H24725399   1.429   4.267   3.419  0.4574  0.5580  0.8278
   97MOL   H24825400   1.554   4.215   3.524  1.1984 -0.5659 -0.7627
   97MOL   C24925401   1.559   3.995   3.023 -0.3071  0.2283 -0.1953
   97MOL   C25025402   1.696   3.928   3.048  0.8199 -0.7889 -0.2512
   97MOL   O25125403   1.749   3.899   2.917  0.3029  0.5616 -0.4462
   97MOL   C25225404   1.886   3.854   2.920  0.0618  0.0539  0.4549
   97MOL   C25325405   1.890   3.697   2.914  0.4111  0.1544 -0.0504
   97MOL   H25425406   1.569   4.099   2.990  0.1466  0.3234  0.2310
   97MOL   H25525407   1.517   3.939   2.939  0.4925 -1.1799  0.3230
   97MOL   H25625408   1.762   3.993   3.105 -3.4032  2.2063  1.4070
   97MOL   H25725409   1.953   3.897   2.994  0.4415  0.7465 -0.2819
   97MOL   H25825410   1.932   3.867   2.822 -1.4312  1.4600 -0.0698
   97MOL   H25925411   1.836   3.670   2.824 -0.9090  0.6989  0.5532
   97MOL   H26025412   1.991   3.659   2.927  0.0303 -1.4794 -1.7555
   97MOL   H26125413   1.835   3.657   2.999 -0.3645 -1.3104 -1.2255
   97MOL   H26225414   1.690   3.835   3.105  0.7449  0.5478  2.0050
   98MOL     C125415   0.276   0.599   0.989  0.3659 -0.0935 -0.7795
   98MOL     C225416   0.388   0.660   1.075  0.0312 -0.5201  0.0341
   98MOL     O325417   0.499   0.670   0.988 -0.2645 -0.2188 -0.0127
   98MOL     C425418   0.491   0.778   0.894  0.0345  0.6680 -0.7278
   98MOL     C525419   0.529   0.909   0.963 -0.0799 -0.2618  0.2786
   98MOL     H625420   0.197   0.560   1.052  1.4190 -1.1292 -0.0641
   98MOL     H725421   0.232   0.681   0.932 -0.2995 -0.3643 -0.6564
   98MOL     H825422   0.352   0.754   1.117  1.3920  1.4796 -3.0960
   98MOL     H925423   0.392   0.782   0.848  0.3135  0.3007 -1.3560
   98MOL    H1025424   0.565   0.753   0.818 -0.3400  0.8153 -1.1445
   98MOL    H1125425   0.619   0.885   1.020 -0.4494 -0.2248  0.8774
   98MOL    H1225426   0.553   0.981   0.885 -1.1588 -2.1737 -1.8908
   98MOL    H1325427   0.450   0.953   1.024  0.7536 -0.5076  1.5647
   98MOL    H1425428   0.317   0.519   0.927  1.2235  0.9895 -1.6439
   98MOL    C1525429   0.438   0.576   1.192 -0.2132 -0.1356  0.1748
   98MOL    C1625430   0.329   0.554   1.300  0.8971 -0.5306  0.4163
   98MOL    O1725431   0.307   0.683   1.361 -0.0137  0.0171 -0.3581
   98MOL    C1825432   0.167   0.718   1.367 -0.0250  0.5364 -0.0256
   98MOL    C1925433   0.122   0.853   1.428 -0.6519  0.8777 -0.7001
   98MOL    H2025434   0.519   0.633   1.236 -0.3712 -0.8536  1.4507
   98MOL    H2125435   0.479   0.483   1.151  1.5783  0.8371 -0.2735
   98MOL    H2225436   0.236   0.510   1.262  1.2617 -0.0456 -1.0638
   98MOL    H2325437   0.118   0.652   1.439  0.9007  0.5720  0.6389
   98MOL    H2425438   0.125   0.704   1.267  0.7551  1.3960 -0.4712
   98MOL    H2525439   0.151   0.943   1.374  1.1027 -0.1457 -1.5123
   98MOL    H2625440   0.159   0.854   1.530  1.7109 -0.1191 -1.4821
   98MOL    H2725441   0.013   0.853   1.431 -0.7423 -2.0733 -1.8698
   98MOL    C2825442   0.373   0.467   1.415 -0.4029  0.5387  0.1270
   98MOL    C2925443   0.387   0.319   1.378  0.6934 -0.0491  0.3259
   98MOL    O3025444   0.252   0.281   1.341 -0.1480 -0.2410 -0.2859
   98MOL    C3125445   0.235   0.178   1.253 -0.1325  0.3584 -0.0533
   98MOL    C3225446   0.248   0.220   1.101 -0.3024  0.4150  0.3817
   98MOL    H3325447   0.309   0.479   1.503 -0.7701 -0.2527 -0.0239
   98MOL    H3425448   0.462   0.514   1.457  0.9706 -1.4269 -0.5208
   98MOL    H3525449   0.459   0.307   1.298  1.3343  1.0736  0.7309
   98MOL    H3625450   0.131   0.157   1.279  0.0704  0.5572  0.9366
   98MOL    H3725451   0.297   0.095   1.286 -4.3044 -3.4319 -1.2746
   98MOL    H3825452   0.345   0.270   1.095 -1.5248  2.9177  1.0118
   98MOL    H3925453   0.241   0.128   1.042  0.9255  0.0798  0.7492
   98MOL    H4025454   0.171   0.293   1.073  1.9285  1.7711 -2.5395
   98MOL    C4125455   0.433   0.244   1.507  0.2517 -0.1655 -0.3333
   98MOL    C4225456   0.574   0.275   1.555  0.4606  0.2966 -0.4369
   98MOL    O4325457   0.664   0.255   1.447 -0.0873  0.6644 -0.0690
   98MOL    C4425458   0.738   0.357   1.393  0.5745 -0.0250  0.5778
   98MOL    C4525459   0.823   0.307   1.272 -0.4252  0.0648  0.5357
   98MOL    H4625460   0.416   0.137   1.496 -0.1550 -0.1780  0.4065
   98MOL    H4725461   0.356   0.271   1.578 -2.4055 -0.0029 -3.1731
   98MOL    H4825462   0.568   0.380   1.584 -0.4052  0.6166 -1.7276
   98MOL    H4925463   0.795   0.395   1.477  0.4078 -1.0772  1.1652
   98MOL    H5025464   0.667   0.437   1.372  2.4808  1.9566  1.4693
   98MOL    H5125465   0.866   0.387   1.212  0.3190  0.2843  1.3399
   98MOL    H5225466   0.892   0.227   1.298 -1.5964 -0.9596  0.5295
   98MOL    H5325467   0.758   0.264   1.196 -0.2530 -1.0325  0.9924
   98MOL    C5425468   0.621   0.178   1.671 -0.4173 -0.3426 -0.5717
   98MOL    C5525469   0.554   0.199   1.809  0.1313  0.6201 -0.3320
   98MOL    O5625470   0.561   0.336   1.844  0.4696  0.2125 -0.1155
   98MOL    C5725471   0.467   0.384   1.938 -0.7817 -1.2190 -0.1684
   98MOL    C5825472   0.537   0.455   2.045 -0.2858 -1.0399 -0.0094
   98MOL    H5925473   0.726   0.193   1.694 -0.1739 -1.6213 -0.8339
   98MOL    H6025474   0.606   0.079   1.628  0.9021 -1.0702  0.6150
   98MOL    H6125475   0.447   0.187   1.799  0.0689  2.4901 -2.2410
   98MOL    H6225476   0.406   0.307   1.986 -0.9640 -0.7695  0.3255
   98MOL    H6325477   0.398   0.452   1.889  0.2988  0.0178 -0.0006
   98MOL    H6425478   0.467   0.490   2.120  1.4850 -0.7555  1.5402
   98MOL    H6525479   0.598   0.387   2.103  0.1468 -1.5693 -1.0636
   98MOL    H6625480   0.608   0.528   2.005 -1.0315 -1.3715 -2.0048
   98MOL    C6725481   0.610   0.104   1.920  0.0853 -0.3085 -0.5885
   98MOL    C6825482   0.594   7.795   1.905 -0.2485 -0.7279 -0.0217
   98MOL    O6925483   0.464   7.756   1.932 -0.3483 -0.1408  0.3720
   98MOL    C7025484   0.413   7.666   1.838 -0.1552  0.3899 -0.8194
   98MOL    C7125485   0.288   7.585   1.892  0.0223 -0.0693  0.6762
   98MOL    H7225486   0.571   0.135   2.017  1.8411  3.0444 -0.8665
   98MOL    H7325487   0.717   0.116   1.903  0.1169  2.0972  1.0528
   98MOL    H7425488   0.625   7.760   1.807 -0.3573 -0.9325  0.0171
   98MOL    H7525489   0.495   7.600   1.808 -0.6094 -0.2801 -0.5992
   98MOL    H7625490   0.379   7.724   1.752 -0.1235  0.2673 -0.9159
   98MOL    H7725491   0.206   7.654   1.913  1.1551  1.1917  0.9736
   98MOL    H7825492   0.254   7.499   1.834 -1.2785  1.8409 -1.4853
   98MOL    H7925493   0.312   7.537   1.987  1.3905 -0.5881  0.0850
   98MOL    C8025494   0.690   7.730   2.000  0.7044 -0.4602 -0.3731
   98MOL    C8125495   0.712   7.573   1.998 -0.2622 -0.0419  0.3591
   98MOL    O8225496   0.732   7.520   1.872  0.7682 -0.8791  0.0904
   98MOL    C8325497   0.869   7.475   1.843 -0.0575  0.1599 -0.4167
   98MOL    C8425498   0.892   7.445   1.699  0.3924  0.3446 -0.0063
   98MOL    H8525499   0.659   7.762   2.100 -2.3218  0.3288 -1.5328
   98MOL    H8625500   0.792   7.763   1.978  0.5285  0.8214  0.6899
   98MOL    H8725501   0.804   7.553   2.054 -0.1559 -1.5238 -0.3373
   98MOL    H8825502   0.880   7.381   1.896  2.4288 -0.4081 -1.8466
   98MOL    H8925503   0.938   7.555   1.867 -2.0546  1.4859  1.0509
   98MOL    H9025504   0.817   7.374   1.663 -1.1894  1.3848  1.1415
   98MOL    H9125505   0.900   7.538   1.644  1.9373  0.6671  0.7586
   98MOL    H9225506   0.984   7.387   1.691  1.4761  1.9902  0.4848
   98MOL    C9325507   0.608   7.501   2.079 -0.0404  0.0302 -0.0120
   98MOL    C9425508   0.653   7.361   2.122 -0.0207  0.0064  0.2738
   98MOL    O9525509   0.574   7.265   2.070  0.3568  0.3381 -0.4236
   98MOL    C9625510   0.570   7.252   1.929 -0.3388  0.0902  0.1484
   98MOL    C9725511   0.470   7.142   1.886  0.6585 -1.2334 -0.2703
   98MOL    H9825512   0.517   7.510   2.019 -0.9362 -4.1083  0.5634
   98MOL    H9925513   0.577   7.546   2.174 -1.8791  0.5998 -0.8655
   98MOL   H10025514   0.757   7.333   2.104 -0.0945  1.1317 -2.0939
   98MOL   H10125515   0.669   7.226   1.893 -0.6659 -1.1752  0.1472
   98MOL   H10225516   0.558   7.347   1.876  2.3355 -0.8049 -2.2202
   98MOL   H10325517   0.453   7.141   1.778  0.8924 -2.1530 -0.3039
   98MOL   H10425518   0.496   7.040   1.914  1.5957 -0.6233  1.1131
   98MOL   H10525519   0.371   7.168   1.926 -0.4631 -0.3051 -3.4981
   98MOL   C10625520   0.648   7.332   2.276 -0.2405  0.5608 -0.6086
   98MOL   C10725521   0.718   7.429   2.375  0.4702  0.2822  0.1515
   98MOL   O10825522   0.853   7.447   2.327  0.2571  0.1274 -0.9371
   98MOL   C10925523   0.916   7.570   2.343  0.1550 -0.0910 -0.1154
   98MOL   C11025524   1.065   7.536   2.329 -1.0495  0.5964 -0.3369
   98MOL   H11125525   0.692   7.232   2.271 -0.2361  0.6441 -2.3561
   98MOL   H11225526   0.545   7.324   2.310  0.2295 -2.6578  0.2950
   98MOL   H11325527   0.666   7.524   2.362  2.1397  0.9270 -2.1587
   98MOL   H11425528   0.902   7.610   2.443  0.2818 -1.4361  0.4565
   98MOL   H11525529   0.869   7.644   2.277 -0.8024 -1.5115 -1.0752
   98MOL   H11625530   1.126   7.625   2.343 -0.6094  0.7870 -3.1725
   98MOL   H11725531   1.095   7.464   2.406 -0.7707  0.0722 -0.9326
   98MOL   H11825532   1.089   7.486   2.235 -0.7414  0.1820 -0.0407
   98MOL   C11925533   0.717   7.389   2.531  0.4494  0.0890 -0.2908
   98MOL   C12025534   0.586   7.443   2.609  0.1715 -0.3874 -0.4099
   98MOL   O12125535   0.475   7.393   2.533 -0.4679  0.2020  0.2474
   98MOL   C12225536   0.385   7.321   2.612  0.3808 -0.5635  0.2947
   98MOL   C12325537   0.442   7.182   2.637  0.2424  0.2607 -0.2557
   98MOL   H12425538   0.813   7.419   2.574  0.4462  2.7686 -2.0582
   98MOL   H12525539   0.716   7.280   2.525 -0.4105  0.0824  0.0266
   98MOL   H12625540   0.586   7.396   2.707  0.2423  2.4606  1.0049
   98MOL   H12725541   0.287   7.314   2.565  0.4396  0.8175 -0.0622
   98MOL   H12825542   0.375   7.384   2.700  0.8876 -0.0689  0.0001
   98MOL   H12925543   0.370   7.115   2.684 -0.0112  1.0977  0.5549
   98MOL   H13025544   0.474   7.140   2.542  0.8721 -2.6571  1.1970
   98MOL   H13125545   0.536   7.182   2.693 -0.1948 -2.4073  0.5508
   98MOL   C13225546   0.576   7.593   2.634 -0.0195  0.6329  0.7634
   98MOL   C13325547   0.684   7.652   2.724 -0.1190 -0.2033  0.0904
   98MOL   O13425548   0.690   7.579   2.848 -0.2320 -0.2046 -0.4848
   98MOL   C13525549   0.585   7.579   2.932  0.3995 -0.7841 -0.0896
   98MOL   C13625550   0.615   7.465   3.029  0.8632  0.1191  0.9237
   98MOL   H13725551   0.480   7.623   2.677 -0.2208  1.1439 -0.0351
   98MOL   H13825552   0.575   7.640   2.536 -1.7478 -1.6048 -0.3403
   98MOL   H13925553   0.771   7.623   2.665 -1.1796  0.9950 -2.0987
   98MOL   H14025554   0.485   7.567   2.890 -0.2065  0.6685  0.8909
   98MOL   H14125555   0.584   7.670   2.992  1.7945 -1.6045  1.1941
   98MOL   H14225556   0.657   7.379   2.978  1.1568 -0.1374  1.5948
   98MOL   H14325557   0.690   7.494   3.102  0.3362  1.0234  1.1293
   98MOL   H14425558   0.527   7.440   3.089 -0.2318 -0.1987 -0.7578
   98MOL   C14525559   0.677   7.802   2.759 -0.3240 -1.0395  0.0233
   98MOL   C14625560   0.814   0.012   2.801 -0.1307 -0.1162  0.3345
   98MOL   O14725561   0.810   0.156   2.848 -0.1822  0.2904  0.2163
   98MOL   C14825562   0.800   0.172   2.985 -0.6612  0.0473 -0.1545
   98MOL   C14925563   0.665   0.127   3.034 -0.1130  0.0124  0.0896
   98MOL   H15025564   0.596   7.831   2.826  0.9697  0.9707  0.7596
   98MOL   H15125565   0.658   0.015   2.668  4.0735  1.7801  0.7343
   98MOL   H15225566   0.861   7.798   2.881 -0.4674 -0.0408  0.5914
   98MOL   H15325567   0.822   0.278   2.999 -3.9847  0.8867 -1.0075
   98MOL   H15425568   0.876   0.115   3.039 -0.6533  0.3968  0.2101
   98MOL   H15525569   0.581   0.162   2.975 -0.5253  0.9667  1.2228
   98MOL   H15625570   0.667   0.019   3.049 -0.0969 -0.0751 -0.5329
   98MOL   H15725571   0.654   0.169   3.134  0.9985 -0.4704  0.4228
   98MOL   C15825572   0.934   0.008   2.701  0.7440  0.3962 -0.7830
   98MOL   C15925573   0.923   0.110   2.582  0.1001  0.3092 -0.0893
   98MOL   O16025574   0.818   0.074   2.498 -0.1665 -0.2308  0.4372
   98MOL   C16125575   0.725   0.178   2.474 -0.3090 -0.0198 -0.0941
   98MOL   C16225576   0.637   0.121   2.365 -0.5564 -0.2279  0.0146
   98MOL   H16325577   0.970   7.754   2.669 -0.6291 -0.3640 -0.0840
   98MOL   H16425578   1.021   0.040   2.759 -0.0300  0.0509  0.5927
   98MOL   H16525579   0.912   0.211   2.621  0.1938  0.5024 -0.5638
   98MOL   H16625580   0.749   0.278   2.437  0.4530  0.5319  1.8387
   98MOL   H16725581   0.666   0.202   2.563  0.7023  0.0057  0.5745
   98MOL   H16825582   0.600   0.023   2.397 -0.3710  0.1999  1.5919
   98MOL   H16925583   0.556   0.188   2.336 -2.0014 -1.4259  1.1857
   98MOL   H17025584   0.697   0.109   2.275 -1.0463  1.2522 -0.5141
   98MOL   C17125585   1.053   0.100   2.500  0.4945  1.2081 -0.0394
   98MOL   C17225586   1.065   0.194   2.382 -0.2255  0.3832  0.2600
   98MOL   O17325587   1.110   0.106   2.276  0.0777  0.5075 -0.2587
   98MOL   C17425588   1.034   0.103   2.153 -0.0280  0.4185 -0.8892
   98MOL   C17525589   1.089   7.838   2.060 -0.7292 -0.3203 -0.1262
   98MOL   H17625590   1.051   7.841   2.461 -0.0738  0.7260  1.2337
   98MOL   H17725591   1.149   0.096   2.550 -0.8359 -1.3208  2.4458
   98MOL   H17825592   0.968   0.229   2.349 -0.5068 -0.2101  0.4563
   98MOL   H17925593   1.043   0.203   2.109 -1.3316 -0.8537 -4.1774
   98MOL   H18025594   0.927   0.083   2.160  0.3077 -1.6943 -1.4427
   98MOL   H18125595   1.196   7.837   2.042 -0.8413 -1.4188 -0.7814
   98MOL   H18225596   1.064   7.751   2.121 -0.3506 -0.7598 -0.5940
   98MOL   H18325597   1.032   7.826   1.968 -1.3024  1.5557 -0.0181
   98MOL   C18425598   1.168   0.309   2.397 -0.6752  0.1120  0.0374
   98MOL   C18525599   1.111   0.452   2.413  0.0925  1.0223  0.3933
   98MOL   O18625600   1.023   0.469   2.304 -0.1983 -0.0369  0.6251
   98MOL   C18725601   0.903   0.547   2.332 -0.0779  0.3131 -0.0646
   98MOL   C18825602   0.825   0.542   2.203  0.3067  0.2635  0.2810
   98MOL   H18925603   1.226   0.308   2.304 -1.3667 -3.1121 -0.4050
   98MOL   H19025604   1.239   0.295   2.478 -2.0598 -2.8096  0.7957
   98MOL   H19125605   1.063   0.453   2.511 -0.4370 -1.2224  0.1742
   98MOL   H19225606   0.937   0.645   2.366  1.7049  0.0815 -1.1349
   98MOL   H19325607   0.847   0.508   2.417  1.2035 -0.2841  0.5219
   98MOL   H19425608   0.727   0.589   2.212  0.8987  1.3212  1.3495
   98MOL   H19525609   0.877   0.594   2.123 -1.1548 -1.9146 -2.1620
   98MOL   H19625610   0.811   0.435   2.188 -1.1908  0.5469 -0.4325
   98MOL   C19725611   1.226   0.559   2.407  0.0811  0.7182 -0.2370
   98MOL   C19825612   1.288   0.609   2.270 -0.0306 -0.7358 -0.4653
   98MOL   O19925613   1.356   0.493   2.219  0.1379  0.1814  0.4739
   98MOL   C20025614   1.351   0.494   2.080 -0.2525 -0.0412 -0.9720
   98MOL   C20125615   1.445   0.379   2.027 -0.0440 -0.2132  0.1067
   98MOL   H20225616   1.303   0.539   2.482 -1.2710 -1.6845  0.5555
   98MOL   H20325617   1.187   0.652   2.448 -0.4907  0.5565 -0.4163
   98MOL   H20425618   1.204   0.635   2.206 -0.4846 -2.9062 -0.7999
   98MOL   H20525619   1.387   0.592   2.048 -1.5087  1.2589  1.4715
   98MOL   H20625620   1.247   0.481   2.051 -0.8817  0.3698  0.9924
   98MOL   H20725621   1.412   0.278   2.051  1.8054 -0.6380  1.0089
   98MOL   H20825622   1.453   0.366   1.919  0.1961  1.7202 -0.1227
   98MOL   H20925623   1.546   0.394   2.067 -0.2624  2.8506 -0.3613
   98MOL   C21025624   1.390   0.721   2.300  0.1901 -0.3347 -0.0583
   98MOL   C21125625   1.338   0.860   2.353  0.4511  0.1957  0.4613
   98MOL   O21225626   1.251   0.926   2.257 -0.1076  1.0921 -0.7338
   98MOL   C21325627   1.121   0.944   2.302  0.0950 -0.0814  0.0080
   98MOL   C21425628   1.063   1.035   2.194 -0.1723  0.1604  0.9894
   98MOL   H21525629   1.440   0.738   2.205  0.9237  1.5872  0.6466
   98MOL   H21625630   1.463   0.681   2.371  1.0181  3.5750  1.4353
   98MOL   H21725631   1.294   0.850   2.452 -2.2177  1.8148 -0.5049
   98MOL   H21825632   1.121   0.998   2.397  1.0291  0.7788 -0.4726
   98MOL   H21925633   1.058   0.855   2.302  1.4069 -1.0334  0.9044
   98MOL   H22025634   0.954   1.045   2.198 -0.2589 -0.4349  0.2210
   98MOL   H22125635   1.096   1.138   2.208  0.0427  0.2055  0.1775
   98MOL   H22225636   1.077   0.998   2.093  1.1281 -2.9167  2.2578
   98MOL   C22325637   1.460   0.944   2.368  0.2276  0.3974  0.0522
   98MOL   C22425638   1.436   1.093   2.388 -0.2577 -0.2936  0.4645
   98MOL   O22525639   1.542   1.166   2.328 -0.2978  0.0026  0.1926
   98MOL   C22625640   1.511   1.200   2.197  0.0946  0.0761 -0.0478
   98MOL   C22725641   1.629   1.279   2.141 -0.4743 -0.4862 -0.2730
   98MOL   H22825642   1.519   0.943   2.276  1.9715 -0.0829  1.1442
   98MOL   H22925643   1.525   0.901   2.444 -0.2005 -1.0819 -0.3842
   98MOL   H23025644   1.338   1.116   2.344 -0.3965 -0.6590  0.5789
   98MOL   H23125645   1.417   1.253   2.184  0.2731  0.2913 -0.4929
   98MOL   H23225646   1.496   1.111   2.135 -2.7957 -0.0128  0.6849
   98MOL   H23325647   1.644   1.370   2.200  3.4119  0.5253 -2.6438
   98MOL   H23425648   1.720   1.219   2.139 -0.4936 -0.5550  0.6757
   98MOL   H23525649   1.617   1.305   2.035 -0.1807 -0.2152 -0.2416
   98MOL   C23625650   1.433   1.133   2.535 -1.1510  0.5023 -0.6802
   98MOL   C23725651   1.431   1.278   2.582  0.2822 -1.3172  0.1993
   98MOL   O23825652   1.432   1.284   2.722  0.6238  0.7584 -0.7350
   98MOL   C23925653   1.533   1.365   2.775 -0.2921  0.7807 -0.9078
   98MOL   C24025654   1.549   1.339   2.928 -0.0343 -0.8062 -0.2360
   98MOL   H24125655   1.523   1.093   2.583 -2.2843 -0.1149  0.9784
   98MOL   H24225656   1.354   1.079   2.587 -0.2270  0.5137  0.7524
   98MOL   H24325657   1.522   1.327   2.548  0.7103 -2.5769 -0.5049
   98MOL   H24425658   1.513   1.472   2.764  3.1988  1.7417  1.1452
   98MOL   H24525659   1.631   1.354   2.728  0.4471 -2.7543  1.2949
   98MOL   H24625660   1.452   1.331   2.977  0.0097 -0.4922 -0.0947
   98MOL   H24725661   1.597   1.242   2.939  0.8548 -0.2953  0.4319
   98MOL   H24825662   1.612   1.408   2.984 -1.8461  0.8970 -0.2400
   98MOL   C24925663   1.300   1.353   2.529 -0.0573  0.1401 -0.2002
   98MOL   C25025664   1.290   1.497   2.575  0.2845  0.8319  0.1208
   98MOL   O25125665   1.163   1.546   2.533  0.1730  0.8773 -0.0769
   98MOL   C25225666   1.139   1.681   2.565  0.5118  0.1460 -0.1015
   98MOL   C25325667   1.006   1.728   2.504  0.2325 -0.4469  0.5891
   98MOL   H25425668   1.220   1.289   2.565  1.0445 -0.0003  2.1157
   98MOL   H25525669   1.302   1.356   2.420  1.8642 -2.3265 -0.2809
   98MOL   H25625670   1.304   1.511   2.682 -0.4329  0.1648  0.3109
   98MOL   H25725671   1.218   1.753   2.540 -0.6178  1.2171 -0.6176
   98MOL   H25825672   1.141   1.692   2.673 -0.4755 -1.4088  0.0786
   98MOL   H25925673   0.993   1.836   2.497  0.9055 -0.4415 -0.8369
   98MOL   H26025674   0.987   1.678   2.408 -0.4372 -2.5077  1.7534
   98MOL   H26125675   0.925   1.686   2.564 -2.1116 -0.7701 -2.6474
   98MOL   H26225676   1.378   1.545   2.534 -0.3457  1.4802 -0.4839
   99MOL     C125677   0.044   3.350   5.449  0.2387  0.1090  0.0539
   99MOL     C225678   7.794   3.315   5.556 -1.0310 -0.9234 -0.4846
   99MOL     O325679   0.020   3.241   5.658  0.3386 -0.0276 -0.3201
   99MOL     C425680   0.096   3.322   5.743 -0.0805  0.6312 -0.3497
   99MOL     C525681   0.012   3.343   5.871 -0.3131  0.1577 -0.9292
   99MOL     H625682   0.128   3.411   5.485  1.0646  0.0984 -1.8129
   99MOL     H725683   0.079   3.262   5.395  0.0868 -0.4612  0.8768
   99MOL     H825684   7.759   3.407   5.603 -0.3245 -0.0396 -1.6530
   99MOL     H925685   0.130   3.408   5.686 -0.2718  0.8122 -0.1898
   99MOL    H1025686   0.188   3.267   5.766 -0.9208  0.4468  2.8963
   99MOL    H1125687   7.830   3.256   5.932 -1.0127  0.1999 -1.1583
   99MOL    H1225688   0.041   3.434   5.923 -0.6705 -0.2150 -0.0806
   99MOL    H1325689   7.754   3.376   5.847 -0.1433  1.6849  0.3707
   99MOL    H1425690   7.828   3.398   5.372 -2.3480 -4.9635 -1.3182
   99MOL    C1525691   7.692   3.220   5.513 -0.2311 -0.2728 -0.5940
   99MOL    C1625692   7.575   3.182   5.612 -0.0393 -0.7053  0.0703
   99MOL    O1725693   7.477   3.106   5.546  0.1827 -0.1742  1.0426
   99MOL    C1825694   7.507   2.967   5.525 -0.2186 -0.2413 -0.1947
   99MOL    C1925695   7.399   2.884   5.451 -0.4066 -0.0520  0.6648
   99MOL    H2025696   7.734   3.133   5.463 -3.4079 -2.1106 -0.2212
   99MOL    H2125697   7.637   3.271   5.434 -1.3654  2.3728  1.8440
   99MOL    H2225698   7.620   3.118   5.688  0.6068 -1.2331 -0.7466
   99MOL    H2325699   7.525   2.921   5.622 -0.6712  0.9662  0.4714
   99MOL    H2425700   7.598   2.970   5.466 -0.0047  1.8946  0.1944
   99MOL    H2525701   7.314   2.866   5.516 -1.8528 -1.2560 -1.5066
   99MOL    H2625702   7.435   2.782   5.437 -1.3835 -0.1068 -1.6380
   99MOL    H2725703   7.375   2.924   5.353 -2.0593 -0.2219  0.9822
   99MOL    C2825704   7.492   3.296   5.674  0.0225 -0.6693  0.7000
   99MOL    C2925705   7.395   3.242   5.786  1.3448  0.7859  0.2582
   99MOL    O3025706   7.304   3.347   5.812 -0.8382 -0.0200  0.2246
   99MOL    C3125707   7.183   3.323   5.738  0.0641 -0.4350  0.4700
   99MOL    C3225708   7.097   3.439   5.767  0.8131  0.5832  0.0246
   99MOL    H3325709   7.441   3.337   5.587  3.1831  0.0356 -0.8710
   99MOL    H3425710   7.554   3.372   5.721  1.0026 -1.6750  1.0576
   99MOL    H3525711   7.346   3.154   5.745  0.7323  0.7716  1.0196
   99MOL    H3625712   7.133   3.232   5.771  0.1168 -0.0668  1.5620
   99MOL    H3725713   7.198   3.297   5.633  0.0411  0.7190  0.1782
   99MOL    H3825714   7.004   3.426   5.713  0.3751  0.5693  0.7749
   99MOL    H3925715   7.066   3.441   5.872  1.2690 -0.2491  0.1809
   99MOL    H4025716   7.133   3.540   5.749 -1.9500  2.1214  2.5191
   99MOL    C4125717   7.454   3.198   5.916 -0.0620 -0.0525  0.3733
   99MOL    C4225718   7.366   3.094   5.991 -0.0364 -0.1449 -0.3037
   99MOL    O4325719   7.357   3.110   6.136  0.5209  0.3324 -0.0066
   99MOL    C4425720   7.264   3.205   6.177 -0.2561 -0.0757 -0.0584
   99MOL    C4525721   7.218   3.180   6.325 -0.2192 -0.4808  0.4041
   99MOL    H4625722   7.459   3.289   5.976 -0.6860  0.0455  0.2805
   99MOL    H4725723   7.554   3.155   5.911 -0.2746 -0.3909 -1.0785
   99MOL    H4825724   7.269   3.093   5.941  0.7691 -0.0779 -1.8959
   99MOL    H4925725   7.171   3.206   6.122 -1.2022  0.1958  1.4967
   99MOL    H5025726   7.316   3.301   6.170  1.3464 -1.1126 -3.4466
   99MOL    H5125727   7.192   3.074   6.332 -3.1040 -0.0275 -2.2479
   99MOL    H5225728   7.292   3.189   6.404 -0.8907  0.6462  0.9209
   99MOL    H5325729   7.128   3.235   6.353 -0.9957 -1.1423 -0.7185
   99MOL    C5425730   7.421   2.954   5.954  0.1733 -0.3715  0.1161
   99MOL    C5525731   7.308   2.853   5.958  0.3103 -0.1839 -0.5347
   99MOL    O5625732   7.365   2.721   5.946 -0.6037  0.2447  0.1274
   99MOL    C5725733   7.411   2.673   6.073  0.2363 -0.1772 -0.9129
   99MOL    C5825734   7.487   2.548   6.046  0.5849 -0.7261 -0.5759
   99MOL    H5925735   7.497   2.933   6.029 -0.4485  0.6824  1.0451
   99MOL    H6025736   7.471   2.957   5.857  1.3111  0.2126  0.7028
   99MOL    H6125737   7.245   2.865   6.047  1.2421 -0.3543  0.1516
   99MOL    H6225738   7.332   2.658   6.146 -0.9882 -0.5767 -2.2849
   99MOL    H6325739   7.483   2.732   6.129 -1.6693 -0.2598  1.7269
   99MOL    H6425740   7.571   2.566   5.980  1.7127 -2.4554  0.3576
   99MOL    H6525741   7.548   2.519   6.131 -0.6929  0.2263  0.6918
   99MOL    H6625742   7.433   2.457   6.019 -2.7547  1.5133 -1.7560
   99MOL    C6725743   7.213   2.845   5.835  0.9190  0.4444 -0.7794
   99MOL    C6825744   7.109   2.729   5.837 -0.4896  0.4085 -0.3197
   99MOL    O6925745   7.059   2.721   5.705 -0.0176 -0.4156  0.2379
   99MOL    C7025746   7.129   2.630   5.622 -0.2204 -0.0336 -0.0877
   99MOL    C7125747   7.103   2.652   5.474  0.0021  0.4282 -0.0375
   99MOL    H7225748   7.288   2.836   5.756  1.7736 -1.5651  0.2249
   99MOL    H7325749   7.159   2.936   5.808 -1.9486 -0.9942 -0.0242
   99MOL    H7425750   7.159   2.635   5.863 -2.7303 -0.3614  1.3697
   99MOL    H7525751   7.092   2.530   5.647 -0.1082  0.2043  1.0555
   99MOL    H7625752   7.234   2.640   5.650  0.1827  0.8626 -1.8326
   99MOL    H7725753   7.186   2.614   5.414 -1.1722  1.0000 -2.0837
   99MOL    H7825754   7.010   2.610   5.436  2.1622 -3.1269 -1.6861
   99MOL    H7925755   7.099   2.759   5.452 -2.3089  0.3441 -0.1185
   99MOL    C8025756   7.000   2.742   5.936 -0.3693  0.0017  0.3459
   99MOL    C8125757   6.895   2.633   5.937  0.0644 -0.5649  0.1164
   99MOL    O8225758   6.794   2.664   6.033  1.0721  0.2523  0.5514
   99MOL    C8325759   6.677   2.723   5.969 -0.5113 -1.6165 -0.4741
   99MOL    C8425760   6.590   2.765   6.092  0.6753 -0.4088  0.2972
   99MOL    H8525761   6.937   2.831   5.930 -0.7637 -0.3236 -0.3893
   99MOL    H8625762   7.049   2.735   6.033  3.7255 -2.7829 -1.7785
   99MOL    H8725763   6.850   2.638   5.838 -2.7164 -1.2602  1.2850
   99MOL    H8825764   6.617   2.647   5.920  0.4502 -2.3077 -0.5844
   99MOL    H8925765   6.700   2.814   5.914  0.9630 -0.6218  1.6881
   99MOL    H9025766   6.577   2.676   6.152  0.8769 -0.5493  0.1332
   99MOL    H9125767   6.641   2.830   6.163  0.9663 -1.5502  1.1361
   99MOL    H9225768   6.498   2.816   6.063  0.5754 -0.9356 -0.3217
   99MOL    C9325769   6.946   2.492   5.968 -0.4039 -0.1818  0.0405
   99MOL    C9425770   6.832   2.381   5.967 -0.5395  0.1590  0.4102
   99MOL    O9525771   6.834   2.300   6.085 -0.1362  0.1876  0.3174
   99MOL    C9625772   6.765   2.348   6.197  0.1557 -0.4553  0.0454
   99MOL    C9725773   6.716   2.221   6.263 -0.2549 -0.4289  0.2604
   99MOL    H9825774   6.982   2.490   6.071 -0.3411  3.3477  0.1788
   99MOL    H9925775   7.030   2.467   5.903 -0.6050  1.0494 -0.7240
   99MOL   H10025776   6.732   2.423   5.953  0.1079  1.6004  0.0409
   99MOL   H10125777   6.692   2.422   6.165  1.2965  0.8657  0.4579
   99MOL   H10225778   6.831   2.401   6.265 -2.1218  0.4151  1.6433
   99MOL   H10325779   6.624   2.179   6.221 -0.6005  0.9687 -0.4072
   99MOL   H10425780   6.792   2.144   6.252  0.4007  0.2540 -0.0171
   99MOL   H10525781   6.690   2.248   6.365 -2.4708  0.1936 -0.4366
   99MOL   C10625782   6.837   2.290   5.844  1.0289  0.4701  0.0606
   99MOL   C10725783   6.836   2.368   5.709 -0.0814  1.0192 -0.0206
   99MOL   O10825784   6.716   2.439   5.704  0.4126  0.3266 -0.4183
   99MOL   C10925785   6.707   2.543   5.605 -0.1868  0.3021 -0.4341
   99MOL   C11025786   6.589   2.639   5.613  0.3340 -0.0072 -0.6762
   99MOL   H11125787   6.746   2.230   5.841  1.8460 -0.7544 -0.6658
   99MOL   H11225788   6.928   2.230   5.854 -1.1520 -3.7495 -3.5655
   99MOL   H11325789   6.927   2.429   5.711  1.7187 -1.5774  2.8738
   99MOL   H11425790   6.705   2.496   5.507 -3.0135  1.3450 -0.9368
   99MOL   H11525791   6.790   2.612   5.623  0.3883 -0.6036  0.3799
   99MOL   H11625792   6.501   2.590   5.574  0.7022 -0.6144 -0.7488
   99MOL   H11725793   6.568   2.667   5.716  0.8869 -3.9531  0.5998
   99MOL   H11825794   6.608   2.735   5.565  2.6898 -0.0555  0.0937
   99MOL   C11925795   6.860   2.266   5.587  0.2115  0.3018  0.1416
   99MOL   C12025796   6.994   2.190   5.592  0.0515 -0.9876  0.1901
   99MOL   O12125797   7.099   2.281   5.594 -0.2956  0.5621 -0.6083
   99MOL   C12225798   7.206   2.241   5.676 -0.2679  0.5828  0.1306
   99MOL   C12325799   7.335   2.331   5.653 -0.7838  0.4852 -0.6386
   99MOL   H12425800   6.848   2.318   5.492 -0.8962 -1.3851 -0.6686
   99MOL   H12525801   6.784   2.188   5.589  0.7511 -0.2177  0.1623
   99MOL   H12625802   6.989   2.119   5.674  2.4024 -1.8153 -0.3584
   99MOL   H12725803   7.233   2.143   5.637 -1.1202  0.0056  0.9603
   99MOL   H12825804   7.185   2.217   5.780  0.2301 -0.7966 -0.0730
   99MOL   H12925805   7.419   2.273   5.690 -0.3660  0.5211 -1.5192
   99MOL   H13025806   7.346   2.347   5.546 -0.9979  0.9645 -0.5920
   99MOL   H13125807   7.334   2.427   5.705 -0.1767  1.8462 -3.0475
   99MOL   C13225808   7.016   2.098   5.462 -0.3309  0.1207 -0.2050
   99MOL   C13325809   6.913   1.993   5.430 -0.7189 -0.0360  0.0189
   99MOL   O13425810   6.884   1.906   5.538  0.0802  0.5107 -0.2119
   99MOL   C13525811   6.759   1.847   5.549 -0.3377 -0.4314 -0.1088
   99MOL   C13625812   6.750   1.757   5.675  0.3270 -0.1599 -0.8098
   99MOL   H13725813   7.110   2.053   5.495 -1.0521  0.2648  2.1171
   99MOL   H13825814   7.038   2.154   5.371  1.3687  0.6046  0.4743
   99MOL   H13925815   6.820   2.048   5.420 -0.4190  0.6213  0.8260
   99MOL   H14025816   6.742   1.784   5.461 -0.1846  1.7336 -1.7297
   99MOL   H14125817   6.679   1.920   5.540  1.2750  1.0924 -2.6717
   99MOL   H14225818   6.680   1.673   5.673  0.2564 -0.1072 -0.6068
   99MOL   H14325819   6.844   1.702   5.672 -0.4687 -1.5898  0.1831
   99MOL   H14425820   6.724   1.815   5.764 -2.9036 -1.0080 -1.1434
   99MOL   C14525821   6.945   1.903   5.305 -0.0917 -0.4606 -0.1878
   99MOL   C14625822   7.076   1.820   5.318  0.3479  0.0630 -0.5510
   99MOL   O14725823   7.176   1.915   5.287  0.3546  1.0086 -0.0992
   99MOL   C14825824   7.293   1.894   5.353 -0.0559 -0.0385  0.0754
   99MOL   C14925825   7.409   1.995   5.318 -0.6024  0.2375 -0.5486
   99MOL   H15025826   6.954   1.971   5.221 -1.3312 -3.0741 -2.5090
   99MOL   H15125827   6.865   1.833   5.282 -0.5342  0.7545 -2.4978
   99MOL   H15225828   7.086   1.790   5.422  1.9485  0.9603 -0.4256
   99MOL   H15325829   7.335   1.797   5.326  0.2397  0.5774 -1.7773
   99MOL   H15425830   7.280   1.887   5.461  0.9215 -1.4886  0.1054
   99MOL   H15525831   7.494   1.995   5.386 -1.4709  1.0886  0.5405
   99MOL   H15625832   7.454   1.989   5.218  1.7272 -3.1168  0.6050
   99MOL   H15725833   7.387   2.099   5.339  1.4204  0.7728 -0.9938
   99MOL   C15825834   7.084   1.699   5.226  0.2908  0.5083 -0.3719
   99MOL   C15925835   6.987   1.582   5.256 -1.0101  0.1198 -0.6694
   99MOL   O16025836   7.034   1.540   5.389  0.6473 -0.5690  0.5620
   99MOL   C16125837   6.943   1.466   5.462 -0.2518  0.2631  0.0332
   99MOL   C16225838   7.008   1.449   5.602  0.6688  0.3577 -0.3767
   99MOL   H16325839   7.189   1.671   5.218 -0.2218 -1.3472 -0.8026
   99MOL   H16425840   7.045   1.737   5.132  0.0242  0.6334 -0.2106
   99MOL   H16525841   6.885   1.618   5.253 -1.3352 -0.6679  0.4716
   99MOL   H16625842   6.930   1.370   5.413 -1.7160  1.2576 -1.5762
   99MOL   H16725843   6.851   1.523   5.473 -1.4489 -0.9206 -3.2209
   99MOL   H16825844   7.100   1.392   5.587  1.0724  0.9438 -0.1357
   99MOL   H16925845   7.026   1.545   5.651  1.7831 -0.1276  0.1905
   99MOL   H17025846   6.944   1.396   5.673  2.1202  3.2769  3.2932
   99MOL   C17125847   7.009   1.454   5.161  0.6837 -0.0806 -0.3812
   99MOL   C17225848   6.913   1.479   5.041  0.3254  0.1134 -0.3224
   99MOL   O17325849   6.775   1.474   5.081  0.0283  0.4330 -0.3060
   99MOL   C17425850   6.688   1.538   4.993  1.0933 -0.3165 -0.4160
   99MOL   C17525851   6.546   1.528   5.047  0.3059 -0.2525  0.1875
   99MOL   H17625852   6.976   1.362   5.208  0.6081  0.8330  1.3985
   99MOL   H17725853   7.109   1.444   5.120 -0.3698 -1.6738 -2.6596
   99MOL   H17825854   6.934   1.579   5.002  1.9721 -0.1507 -0.1492
   99MOL   H17925855   6.681   1.482   4.900 -1.9043  0.7296 -0.8768
   99MOL   H18025856   6.712   1.640   4.966  0.8011  0.1637  1.0943
   99MOL   H18125857   6.470   1.583   4.992 -0.9339 -0.5248  1.5832
   99MOL   H18225858   6.514   1.424   5.045  1.1611 -0.6688  4.1676
   99MOL   H18325859   6.535   1.551   5.153  1.5854  1.3647 -0.0170
   99MOL   C18425860   6.939   1.371   4.935  0.6123  0.0308  0.0294
   99MOL   C18525861   7.071   1.392   4.857  0.3023 -0.9186 -0.1140
   99MOL   O18625862   7.049   1.522   4.800 -0.8151  0.2859 -0.3508
   99MOL   C18725863   7.174   1.585   4.767 -0.2427 -0.7006  0.6685
   99MOL   C18825864   7.135   1.727   4.733 -0.1614  0.1828 -0.5553
   99MOL   H18925865   6.861   1.369   4.860 -1.9353  0.6381  2.5633
   99MOL   H19025866   6.931   1.272   4.982  1.7994 -0.1664 -0.1812
   99MOL   H19125867   7.150   1.390   4.932 -1.7486 -1.2886  2.1027
   99MOL   H19225868   7.231   1.534   4.689  2.2844 -0.0966  2.0416
   99MOL   H19325869   7.236   1.598   4.857  0.6123  1.4058 -0.2027
   99MOL   H19425870   7.220   1.783   4.694  0.4449 -1.7111 -2.0394
   99MOL   H19525871   7.079   1.733   4.640  0.3171  1.5526 -0.7582
   99MOL   H19625872   7.072   1.777   4.806  0.4326  2.1914 -1.3983
   99MOL   C19725873   7.095   1.290   4.747  0.6165  0.1575  1.1330
   99MOL   C19825874   7.131   1.148   4.789 -0.0468 -0.6937 -0.5253
   99MOL   O19925875   7.262   1.160   4.853  0.0943 -0.1491 -0.5011
   99MOL   C20025876   7.285   1.061   4.950  0.4138 -0.0438  0.0324
   99MOL   C20125877   7.203   1.072   5.078 -0.1824  0.3391 -0.2207
   99MOL   H20225878   7.165   1.333   4.676  0.7831 -1.9831 -0.0183
   99MOL   H20325879   7.004   1.277   4.688  0.5804  0.9408  1.0132
   99MOL   H20425880   7.048   1.121   4.854  0.0793 -1.4833 -0.6918
   99MOL   H20525881   7.387   1.062   4.988  0.6397 -0.7803 -0.5456
   99MOL   H20625882   7.281   0.961   4.907  0.3544 -0.9734  2.1067
   99MOL   H20725883   7.214   1.172   5.120 -1.8939  0.4821 -0.0802
   99MOL   H20825884   7.098   1.052   5.055 -0.0747 -1.4539  0.7991
   99MOL   H20925885   7.238   1.001   5.153 -0.1632 -1.1722 -1.6223
   99MOL   C21025886   7.147   1.056   4.661 -0.6672  0.2770  0.4242
   99MOL   C21125887   7.019   1.051   4.573  0.3787  0.4712 -0.1569
   99MOL   O21225888   6.902   1.069   4.657 -0.0143  0.7869  0.1099
   99MOL   C21325889   6.774   1.053   4.593 -0.1347  0.3331  0.0367
   99MOL   C21425890   6.679   1.121   4.690  0.2585 -0.1129  0.0995
   99MOL   H21525891   7.170   0.953   4.689 -0.6268  0.7457  2.1755
   99MOL   H21625892   7.238   1.081   4.607  0.1907 -1.3893  1.0606
   99MOL   H21725893   7.027   1.133   4.501  2.0290  0.0130 -0.5069
   99MOL   H21825894   6.753   0.947   4.581  0.6161  0.3179 -1.3219
   99MOL   H21925895   6.777   1.102   4.495  1.6241  0.4692  0.1320
   99MOL   H22025896   6.687   1.064   4.783 -0.1911  1.3928  1.0825
   99MOL   H22125897   6.708   1.224   4.713 -0.0506 -0.0729  0.3069
   99MOL   H22225898   6.580   1.111   4.646 -0.1146  0.0957  0.8900
   99MOL   C22325899   7.009   0.917   4.494  0.7316  0.9840 -0.2391
   99MOL   C22425900   7.137   0.878   4.408 -0.2929 -0.7766  0.0275
   99MOL   O22525901   7.143   0.961   4.291 -0.5205  0.0267 -0.2575
   99MOL   C22625902   7.273   1.004   4.230  1.0153  0.5603 -0.0662
   99MOL   C22725903   7.339   1.117   4.301 -0.3598  1.4029  0.1015
   99MOL   H22825904   6.925   0.927   4.425  1.4838 -0.3444 -1.3902
   99MOL   H22925905   6.981   0.843   4.569 -0.2319  2.9928  1.4392
   99MOL   H23025906   7.234   0.896   4.454 -0.0625 -0.5155 -0.5509
   99MOL   H23125907   7.258   1.028   4.125 -0.8049 -0.1097  0.0237
   99MOL   H23225908   7.347   0.924   4.226 -1.1447 -1.3943 -3.1439
   99MOL   H23325909   7.346   1.117   4.409  0.1089 -0.1395  0.0847
   99MOL   H23425910   7.436   1.129   4.254 -0.3418  1.8427  0.2455
   99MOL   H23525911   7.300   1.216   4.277 -0.8025  0.2646 -4.5102
   99MOL   C23625912   7.135   0.733   4.359  0.3053 -0.6011 -0.1719
   99MOL   C23725913   7.172   0.635   4.473 -0.5647  0.1285  0.5987
   99MOL   O23825914   7.299   0.663   4.523  0.7792  0.3283  0.6963
   99MOL   C23925915   7.320   0.643   4.664 -0.4076  0.1385 -0.2683
   99MOL   C24025916   7.460   0.676   4.695 -0.4045  0.0060 -0.0757
   99MOL   H24125917   7.198   0.727   4.270 -1.2693  1.3588 -1.4522
   99MOL   H24225918   7.039   0.715   4.311 -0.8271  1.6487  1.1430
   99MOL   H24325919   7.087   0.639   4.541 -1.2550  0.4809 -0.2756
   99MOL   H24425920   7.295   0.544   4.703  0.3246 -0.3688 -1.0646
   99MOL   H24525921   7.261   0.717   4.719  0.9087 -1.1221  2.9587
   99MOL   H24625922   7.479   0.665   4.802  2.2818  0.7242 -0.4513
   99MOL   H24725923   7.536   0.612   4.651  1.3467  0.9457  1.5368
   99MOL   H24825924   7.483   0.775   4.657 -1.2022 -0.3048 -1.4182
   99MOL   C24925925   7.177   0.496   4.406  1.1295  0.6454  0.0061
   99MOL   C25025926   7.178   0.373   4.491  0.5284  0.0239 -0.0193
   99MOL   O25125927   7.200   0.257   4.414 -0.1271 -0.4304 -0.0776
   99MOL   C25225928   7.279   0.157   4.477 -0.1216 -0.3852  0.0772
   99MOL   C25325929   7.297   0.039   4.385  0.8615  0.3080  0.5291
   99MOL   H25425930   7.271   0.494   4.352 -0.6018  0.2928 -3.1418
   99MOL   H25525931   7.098   0.492   4.331  0.8956 -0.9598  0.2990
   99MOL   H25625932   7.261   0.370   4.561  0.1521  0.4763  0.4514
   99MOL   H25725933   7.230   0.121   4.567 -1.0699 -2.1156 -1.0989
   99MOL   H25825934   7.380   0.190   4.500  0.5400 -2.4174  0.1507
   99MOL   H25925935   7.202   0.003   4.346  3.3047 -2.8580 -2.8176
   99MOL   H26025936   7.353   0.065   4.295  0.2469 -0.8952 -0.2233
   99MOL   H26125937   7.356   7.810   4.441  0.2311  0.4732  1.4222
   99MOL   H26225938   7.087   0.376   4.550 -0.4347 -2.4703 -1.3174
  100MOL     C125939   7.421   6.901   3.300  0.3178 -0.6993 -0.7360
  100MOL     C225940   7.501   6.840   3.186  0.3072 -0.7880  0.6768
  100MOL     O325941   7.626   6.779   3.249  0.1929 -0.7386  0.0914
  100MOL     C425942   7.669   6.662   3.189 -0.5667 -0.1349  0.3670
  100MOL     C525943   7.766   6.617   3.297  0.4719 -0.3681  0.0246
  100MOL     H625944   7.318   6.926   3.274 -0.0301  1.1539  2.2030
  100MOL     H725945   7.425   6.848   3.396  3.0201 -0.2663 -0.5912
  100MOL     H825946   7.444   6.752   3.155 -1.0305 -0.0651  1.0584
  100MOL     H925947   7.707   6.677   3.088  0.6468  1.3230  1.0281
  100MOL    H1025948   7.583   6.597   3.174  0.4583 -1.5068  0.2735
  100MOL    H1125949   0.016   6.603   3.243  0.5833 -1.1903  0.4232
  100MOL    H1225950   7.788   6.691   3.374  4.1350 -0.7315 -0.5990
  100MOL    H1325951   7.745   6.528   3.357 -1.9517 -0.7812 -1.3598
  100MOL    H1425952   7.458   7.000   3.328  0.9283 -1.2111  0.3215
  100MOL    C1525953   7.536   6.932   3.066  0.0566  0.0002 -0.0287
  100MOL    C1625954   7.414   7.000   3.008 -0.3014 -0.2303 -0.1313
  100MOL    O1725955   7.321   6.904   2.965 -0.0559  0.3281 -0.2779
  100MOL    C1825956   7.184   6.943   2.962  0.2897 -0.0041 -0.1454
  100MOL    C1925957   7.105   6.837   2.875 -0.9559  0.2945  0.6700
  100MOL    H2025958   7.579   6.874   2.984  0.0986 -0.0036 -0.0035
  100MOL    H2125959   7.618   6.991   3.107  1.1221 -2.0890  0.9433
  100MOL    H2225960   7.369   7.065   3.083 -0.1315  0.5844 -0.7332
  100MOL    H2325961   7.170   7.039   2.912  0.0296  0.5298  0.9331
  100MOL    H2425962   7.143   6.961   3.061 -0.9444  2.4990 -1.0721
  100MOL    H2525963   7.123   6.849   2.768 -0.9592 -2.2075  0.3709
  100MOL    H2625964   6.998   6.850   2.893 -0.4162  2.6480  2.5100
  100MOL    H2725965   7.137   6.743   2.918  0.0612  0.9698  1.4332
  100MOL    C2825966   7.448   7.085   2.880  0.1273 -0.0082 -0.3672
  100MOL    C2925967   7.554   7.190   2.911  0.3305  0.1828 -0.0170
  100MOL    O3025968   7.502   7.296   2.991  0.4020  0.0539  0.0899
  100MOL    C3125969   7.610   7.369   3.062  0.0067 -0.4229 -0.2415
  100MOL    C3225970   7.551   7.482   3.142 -0.5228 -0.5867  0.0859
  100MOL    H3325971   7.353   7.129   2.848 -0.1740 -0.4330 -0.0609
  100MOL    H3425972   7.490   7.026   2.799 -2.0075  1.4233 -2.6201
  100MOL    H3525973   7.635   7.144   2.968 -1.2632  0.8072  2.8610
  100MOL    H3625974   7.697   7.394   3.002 -0.0161 -0.5930 -0.3448
  100MOL    H3725975   7.649   7.295   3.132 -0.4913 -0.9177 -0.4866
  100MOL    H3825976   7.515   7.554   3.067 -0.7440 -0.8579 -0.0697
  100MOL    H3925977   7.464   7.460   3.204  1.2177 -0.2292  2.7172
  100MOL    H4025978   7.630   7.521   3.205 -0.6764 -0.2089  0.0472
  100MOL    C4125979   7.604   7.257   2.785 -0.2617 -0.2034  0.0015
  100MOL    C4225980   7.713   7.189   2.705  0.5350 -0.2852  0.5121
  100MOL    O4325981   7.834   7.210   2.780  0.1153  0.5867  0.1002
  100MOL    C4425982   0.073   7.088   2.806 -0.7390 -0.8222  0.4970
  100MOL    C4525983   0.005   6.989   2.895 -0.6552 -0.1556 -0.0553
  100MOL    H4625984   7.638   7.359   2.802  0.8023 -0.4620 -0.5332
  100MOL    H4725985   7.516   7.275   2.722 -0.9057 -1.4766  0.5230
  100MOL    H4825986   7.685   7.084   2.699 -2.0568  0.4232 -0.3981
  100MOL    H4925987   0.162   7.128   2.854 -1.0016  3.2554 -2.1726
  100MOL    H5025988   0.095   7.028   2.718 -2.6342  2.2924 -2.2438
  100MOL    H5125989   7.816   7.039   2.986  0.2249 -0.1100  0.2377
  100MOL    H5225990   7.766   6.948   2.836  2.6710 -3.1966 -2.8592
  100MOL    H5325991   0.083   6.919   2.926 -0.2088  0.5629  0.4713
  100MOL    C5425992   7.728   7.245   2.569 -0.1773 -0.6404  0.4430
  100MOL    C5525993   7.629   7.191   2.463  0.0107  0.1363  0.4198
  100MOL    O5625994   7.662   7.053   2.442 -0.7322 -0.2542 -0.4376
  100MOL    C5725995   7.550   6.958   2.453  0.3427 -0.3098 -0.1000
  100MOL    C5825996   7.594   6.824   2.512 -0.8616  0.4581  0.7851
  100MOL    H5925997   7.829   7.216   2.540 -1.0257 -2.1425 -1.2013
  100MOL    H6025998   7.725   7.353   2.582  2.9076 -0.9586  4.4282
  100MOL    H6125999   7.527   7.214   2.497  0.1862  1.3764  0.1479
  100MOL    H6226000   7.509   6.949   2.352  0.6422 -1.9394 -0.0909
  100MOL    H6326001   7.468   6.998   2.513 -2.0288 -2.4309 -1.8315
  100MOL    H6426002   7.690   6.783   2.483 -1.2243 -1.5462  2.3215
  100MOL    H6526003   7.602   6.834   2.620  4.4606 -0.5800  0.5985
  100MOL    H6626004   7.515   6.755   2.481  0.2050 -0.7609  0.7467
  100MOL    C6726005   7.650   7.253   2.324  0.0487  0.6029 -1.5142
  100MOL    C6826006   7.624   7.401   2.300 -0.8456  0.1921 -0.7907
  100MOL    O6926007   7.486   7.424   2.310 -0.1461 -0.7986  0.0483
  100MOL    C7026008   7.448   7.543   2.387 -0.3926  0.2411  0.0203
  100MOL    C7126009   7.296   7.554   2.359 -1.0099  0.7587 -0.3331
  100MOL    H7226010   7.593   7.198   2.249  1.2265  1.2799 -2.9266
  100MOL    H7326011   7.752   7.232   2.291  0.5801  0.8965 -0.1280
  100MOL    H7426012   7.680   7.463   2.370 -1.2193 -0.6493  0.2697
  100MOL    H7526013   7.504   7.632   2.357 -0.6476  0.1964 -0.6011
  100MOL    H7626014   7.457   7.537   2.495 -0.8375  1.1834  0.1223
  100MOL    H7726015   7.273   7.583   2.256 -1.7859  0.8687 -0.1315
  100MOL    H7826016   7.243   7.459   2.369 -0.3706  0.5790  1.7240
  100MOL    H7926017   7.255   7.627   2.429 -0.0162 -0.0451  1.1274
  100MOL    C8026018   7.679   7.447   2.162  0.2501  0.2959  0.1712
  100MOL    C8126019   7.701   7.594   2.132 -0.0470  0.0215 -0.1164
  100MOL    O8226020   7.757   7.582   2.003  0.0952 -0.1276 -0.2019
  100MOL    C8326021   7.673   7.649   1.905  0.7681 -0.2979  0.2648
  100MOL    C8426022   7.740   7.658   1.765  0.3304 -0.2797 -0.2767
  100MOL    H8526023   7.614   7.395   2.092  0.8479  1.2308 -1.0907
  100MOL    H8626024   7.776   7.400   2.147  0.7683  1.3273  0.2167
  100MOL    H8726025   7.608   7.651   2.134  0.2595  0.5406 -0.3662
  100MOL    H8826026   7.650   7.750   1.938 -0.3878 -1.2093  2.3810
  100MOL    H8926027   7.577   7.596   1.905  0.9058 -0.5473 -0.8652
  100MOL    H9026028   7.683   7.714   1.691  0.3493 -2.7890 -2.2685
  100MOL    H9126029   7.835   7.712   1.763  0.7351 -1.0053 -0.7856
  100MOL    H9226030   7.776   7.560   1.734  1.6613 -0.4213  1.6038
  100MOL    C9326031   7.812   7.666   2.211  0.2098 -0.1263 -0.5075
  100MOL    C9426032   7.822   7.815   2.185  0.6185  0.3455 -0.2028
  100MOL    O9526033   0.097   0.009   2.258  0.2528 -0.9555 -0.0166
  100MOL    C9626034   0.219   0.026   2.189  0.2196 -0.1574  0.1444
  100MOL    C9726035   0.323   7.791   2.262 -0.0993 -0.0146 -0.3819
  100MOL    H9826036   0.073   7.636   2.199  0.5271  0.5322  0.5165
  100MOL    H9926037   7.786   7.655   2.316 -0.6692  2.2786 -0.4460
  100MOL   H10026038   7.835   7.828   2.078  0.7694 -0.4259 -0.2793
  100MOL   H10126039   0.249   0.128   2.209 -0.7231 -0.3433  2.5912
  100MOL   H10226040   0.219   7.841   2.083 -2.6992  0.4539 -0.0524
  100MOL   H10326041   0.423   7.800   2.219  1.1580  0.6932  2.5013
  100MOL   H10426042   0.335   7.811   2.369 -0.2872 -0.9958 -0.1664
  100MOL   H10526043   0.311   7.683   2.248  0.8765  0.0934 -2.1976
  100MOL   C10626044   7.709   0.058   2.253  0.0276 -0.4599  0.4967
  100MOL   C10726045   7.699   0.201   2.200  0.0101  0.2934 -0.7598
  100MOL   O10826046   7.589   0.255   2.282  0.3425 -0.5400 -0.3770
  100MOL   C10926047   7.553   0.395   2.278  0.2974 -0.3051  0.2705
  100MOL   C11026048   7.436   0.440   2.367 -0.2938  0.3416  0.2998
  100MOL   H11126049   7.718   0.057   2.361  2.2576 -0.1880  0.3448
  100MOL   H11226050   7.610   0.017   2.233 -0.0764  0.1089 -0.1740
  100MOL   H11326051   7.784   0.262   2.228  0.0546 -0.3877  0.6309
  100MOL   H11426052   7.512   0.400   2.177  0.8758 -0.7202  0.0079
  100MOL   H11526053   7.648   0.449   2.269  0.3252 -0.8152 -2.9818
  100MOL   H11626054   7.472   0.428   2.469  0.4198 -0.3708 -0.0286
  100MOL   H11726055   7.412   0.545   2.347  1.6960  0.7345 -0.1890
  100MOL   H11826056   7.343   0.386   2.351  0.4954 -0.3364 -2.3240
  100MOL   C11926057   7.666   0.211   2.045 -0.0030 -0.1737 -0.1904
  100MOL   C12026058   7.523   0.173   1.989 -0.0679 -0.2308 -0.4330
  100MOL   O12126059   7.498   0.039   2.030 -0.6524  0.6663 -0.0833
  100MOL   C12226060   7.363   0.010   2.054  0.5137 -0.0038 -0.0547
  100MOL   C12326061   7.338   7.710   2.014  0.0669 -0.2010 -0.2055
  100MOL   H12426062   7.744   0.157   1.991 -1.5678 -3.0412  0.2881
  100MOL   H12526063   7.688   0.318   2.044 -0.4517  0.0037  2.6206
  100MOL   H12626064   7.456   0.232   2.052 -0.5176 -1.9448  0.7248
  100MOL   H12726065   7.288   0.074   2.009  0.9946  2.2307  2.1740
  100MOL   H12826066   7.339   0.029   2.159 -0.1630 -3.7806  0.5569
  100MOL   H12926067   7.363   7.713   1.908  0.3727  1.5631 -0.0884
  100MOL   H13026068   7.409   7.640   2.059 -1.8321 -1.0430  1.5209
  100MOL   H13126069   7.238   7.670   2.027  1.3048 -2.7508  2.1225
  100MOL   C13226070   7.507   0.190   1.835 -0.3786  0.0859  0.3438
  100MOL   C13326071   7.493   0.332   1.775 -0.1460  0.7506 -0.3577
  100MOL   O13426072   7.359   0.374   1.800  0.3384 -0.0635  0.0305
  100MOL   C13526073   7.347   0.512   1.809 -0.1969  0.1418 -0.2840
  100MOL   C13626074   7.211   0.563   1.770  0.5589 -0.2572 -0.0560
  100MOL   H13726075   7.440   0.120   1.785  1.1578 -0.9397 -0.3323
  100MOL   H13826076   7.600   0.149   1.795 -1.0515  0.2976 -1.4759
  100MOL   H13926077   7.566   0.398   1.822 -0.6796  0.9913  0.1377
  100MOL   H14026078   7.422   0.566   1.751  0.0341  2.7664  2.3114
  100MOL   H14126079   7.372   0.542   1.911 -1.2201 -0.1445  0.0557
  100MOL   H14226080   7.138   0.537   1.847  1.7454  0.6170  1.4090
  100MOL   H14326081   7.195   0.670   1.762  1.4231 -0.1033  0.2478
  100MOL   H14426082   7.185   0.530   1.670 -2.3366 -0.6434  0.7782
  100MOL   C14526083   7.505   0.331   1.617 -0.1332  0.7202 -0.1680
  100MOL   C14626084   7.640   0.291   1.551 -0.0277  0.5047  1.1143
  100MOL   O14726085   7.729   0.392   1.600 -0.2308  0.1225 -0.2755
  100MOL   C14826086   0.020   0.363   1.587 -0.4254  0.1081 -0.3490
  100MOL   C14926087   0.079   0.294   1.712  0.4398 -0.2673 -0.1665
  100MOL   H15026088   7.483   0.425   1.568  1.1071  0.9353 -0.3162
  100MOL   H15126089   7.433   0.256   1.582  1.4712 -2.1035  2.3251
  100MOL   H15226090   7.676   0.193   1.581 -1.0757 -0.7327 -1.4711
  100MOL   H15326091   0.083   0.451   1.572 -0.8925  0.2630 -1.4298
  100MOL   H15426092   0.042   0.296   1.503 -1.2067  1.4444 -1.6538
  100MOL   H15526093   0.186   0.282   1.699  0.7424 -0.7153  2.4871
  100MOL   H15626094   0.066   0.339   1.810 -1.7697 -1.1469 -0.0271
  100MOL   H15726095   0.048   0.189   1.718 -1.2853  0.0639 -2.3315
  100MOL   C15826096   7.629   0.293   1.396 -0.3494  0.1268 -0.1030
  100MOL   C15926097   7.528   0.193   1.331 -0.0314  0.1456  0.2450
  100MOL   O16026098   7.525   0.063   1.398  0.2547  0.1548 -0.2709
  100MOL   C16126099   7.395   0.001   1.387  0.3002 -0.2618  0.5191
  100MOL   C16226100   7.390   7.731   1.484 -0.0515 -0.1302 -0.6005
  100MOL   H16326101   7.729   0.267   1.361  0.5016  0.3329  2.0689
  100MOL   H16426102   7.602   0.397   1.379 -3.1159 -0.7973 -1.5104
  100MOL   H16526103   7.436   0.246   1.357  0.0208 -0.5525  1.9207
  100MOL   H16626104   7.401   7.808   1.285 -1.7943  0.5879  0.0690
  100MOL   H16726105   7.301   0.053   1.403 -1.0116 -1.9254 -1.5222
  100MOL   H16826106   7.287   7.706   1.511  0.7722 -1.7370  1.1379
  100MOL   H16926107   7.436   7.636   1.457  2.1836  0.0769  2.2675
  100MOL   H17026108   7.435   7.763   1.578 -0.7483 -0.7982 -0.0336
  100MOL   C17126109   7.541   0.167   1.178  0.1789 -0.4850 -0.0315
  100MOL   C17226110   7.509   0.279   1.082  0.2965  0.8222  0.0534
  100MOL   O17326111   7.623   0.367   1.083  0.3565  0.1828  0.0455
  100MOL   C17426112   7.650   0.437   0.960  0.7164 -0.5019 -0.6445
  100MOL   C17526113   7.770   0.516   0.960 -0.0509  0.5091  0.3424
  100MOL   H17626114   7.471   0.091   1.143 -2.1754  2.2481 -1.5032
  100MOL   H17726115   7.642   0.131   1.157  0.5121  0.0425  0.6452
  100MOL   H17826116   7.499   0.247   0.978 -1.5753 -1.5814  0.9307
  100MOL   H17926117   7.568   0.506   0.943  1.4039  0.3255 -0.6681
  100MOL   H18026118   7.655   0.364   0.879 -2.4741 -2.1069  0.5330
  100MOL   H18126119   0.009   0.453   0.994 -0.3799  0.7509  1.6408
  100MOL   H18226120   7.789   0.571   0.868  2.2806  0.7046  0.9019
  100MOL   H18326121   7.756   0.585   1.044 -0.2197 -0.0651  0.7940
  100MOL   C18426122   7.378   0.358   1.126 -0.8437 -0.4689  0.0878
  100MOL   C18526123   7.253   0.281   1.147  0.2540  0.4659  0.2388
  100MOL   O18626124   7.223   0.228   1.022  0.0874  0.2025 -0.4188
  100MOL   C18726125   7.153   0.102   1.031  0.4910 -0.4582 -0.4340
  100MOL   C18826126   7.120   0.060   0.887 -0.1447 -0.4454  0.2118
  100MOL   H18926127   7.358   0.431   1.048 -1.4804  0.5055  1.1490
  100MOL   H19026128   7.402   0.415   1.217  1.2765 -1.1898  0.0163
  100MOL   H19126129   7.273   0.201   1.219  0.1667 -0.0561 -0.3098
  100MOL   H19226130   7.062   0.116   1.089  1.5124 -0.6871  1.2655
  100MOL   H19326131   7.213   0.019   1.069  0.5578 -0.5517 -0.7415
  100MOL   H19426132   7.061   7.813   0.876 -0.3064 -0.4184  0.8516
  100MOL   H19526133   7.065   0.131   0.826  1.0047 -1.0539 -1.5705
  100MOL   H19626134   7.218   0.042   0.843 -0.6593 -1.5201 -0.5146
  100MOL   C19726135   7.136   0.372   1.191  0.0651 -0.1614 -0.0725
  100MOL   C19826136   7.138   0.394   1.343  0.0331 -0.9177 -0.5067
  100MOL   O19926137   7.105   0.273   1.404  0.7128 -0.0620  0.4957
  100MOL   C20026138   7.104   0.272   1.555  0.2060  0.2106  0.5063
  100MOL   C20126139   7.076   0.134   1.610  0.3576  0.1281  0.3688
  100MOL   H20226140   7.043   0.320   1.166 -1.1126  0.5283  2.7488
  100MOL   H20326141   7.140   0.470   1.144 -2.1395  0.8548  1.7766
  100MOL   H20426142   7.240   0.412   1.376 -0.6494 -0.3013  1.3476
  100MOL   H20526143   7.025   0.340   1.589  1.3150  1.2069  1.1164
  100MOL   H20626144   7.195   0.311   1.599 -1.4284  1.9805  2.4403
  100MOL   H20726145   7.156   0.069   1.574 -0.3556 -1.6040  1.8396
  100MOL   H20826146   7.074   0.127   1.719 -2.3976  0.3628  0.3642
  100MOL   H20926147   6.982   0.105   1.563  0.4683 -0.3001  0.4079
  100MOL   C21026148   7.055   0.507   1.387  0.1217 -0.5021  0.3799
  100MOL   C21126149   7.106   0.645   1.351 -0.1888  0.1293 -0.0493
  100MOL   O21226150   7.226   0.655   1.437  0.4260  0.0594  0.1467
  100MOL   C21326151   7.334   0.738   1.382 -0.2737  0.2923 -0.3079
  100MOL   C21426152   7.439   0.740   1.491 -0.0663 -0.5086  0.1722
  100MOL   H21526153   7.021   0.508   1.491 -1.2510 -0.9418 -0.0574
  100MOL   H21626154   6.964   0.494   1.329  1.4158 -1.1875 -1.5682
  100MOL   H21726155   7.131   0.643   1.245  1.9923  0.6829  0.4199
  100MOL   H21826156   7.289   0.833   1.353  0.3973  1.4450  2.2701
  100MOL   H21926157   7.378   0.693   1.293  2.3519 -2.4765  2.2956
  100MOL   H22026158   7.446   0.636   1.523 -1.7789 -1.7717 -3.3156
  100MOL   H22126159   7.533   0.781   1.454 -1.5517  2.5260 -0.3523
  100MOL   H22226160   7.400   0.800   1.573  1.9413 -0.1567  0.8823
  100MOL   C22326161   7.008   0.774   1.379  0.7095  0.3497 -0.7702
  100MOL   C22426162   6.879   0.772   1.303 -0.2011  0.6043 -0.1066
  100MOL   O22526163   6.903   0.773   1.161 -0.1932  0.2604 -0.5009
  100MOL   C22626164   6.865   0.650   1.093 -1.2806  0.5104  0.0276
  100MOL   C22726165   6.906   0.665   0.949  0.3384  0.5682 -0.6785
  100MOL   H22826166   7.056   0.869   1.354  2.2416  0.1478  1.2880
  100MOL   H22926167   6.981   0.776   1.485 -1.9167 -1.2060 -1.3646
  100MOL   H23026168   6.810   0.694   1.335 -1.0777  1.1373 -0.6585
  100MOL   H23126169   6.760   0.625   1.106 -0.7016 -0.8480  2.4977
  100MOL   H23226170   6.906   0.560   1.141 -0.7472  1.1341  0.7545
  100MOL   H23326171   7.005   0.710   0.943  2.0162 -2.9861 -0.8345
  100MOL   H23426172   6.905   0.569   0.896 -0.2106 -1.3449  2.6366
  100MOL   H23526173   6.842   0.735   0.896 -0.6520  0.5316  0.4469
  100MOL   C23626174   6.799   0.901   1.340  0.1642 -0.3162 -0.4000
  100MOL   C23726175   6.667   0.930   1.263 -0.3298  0.3632 -0.2232
  100MOL   O23826176   6.621   1.059   1.302 -0.0593 -0.5159 -0.3967
  100MOL   C23926177   6.673   1.165   1.226 -0.2050 -0.1044 -0.4959
  100MOL   C24026178   6.616   1.310   1.262 -0.0109 -0.2358 -0.1215
  100MOL   H24126179   6.873   0.980   1.334 -0.8485  0.5006 -3.1497
  100MOL   H24226180   6.768   0.881   1.442  2.5136  0.0531  0.4061
  100MOL   H24326181   6.682   0.930   1.155 -0.4361 -2.7256 -0.2958
  100MOL   H24426182   6.660   1.157   1.118  1.9031 -0.0295 -0.7765
  100MOL   H24526183   6.780   1.158   1.245 -0.3069  1.2354  0.6217
  100MOL   H24626184   6.604   1.316   1.370 -0.7828  3.5986 -0.3537
  100MOL   H24726185   6.687   1.382   1.221  0.4330  0.6533  2.1543
  100MOL   H24826186   6.519   1.330   1.216 -1.0139  2.6240  3.0101
  100MOL   C24926187   6.566   0.821   1.284  0.0414  0.3412  0.1613
  100MOL   C25026188   6.428   0.841   1.212  0.7913  0.7130 -0.5338
  100MOL   O25126189   6.349   0.732   1.256 -0.2037 -0.2925  0.2010
  100MOL   C25226190   6.214   0.734   1.224 -0.1205  0.8126 -0.3067
  100MOL   C25326191   6.128   0.661   1.324  0.2439  0.4064 -0.3688
  100MOL   H25426192   6.552   0.809   1.392  0.4651  2.2452  0.4530
  100MOL   H25526193   6.609   0.726   1.254  2.3531  1.1535  0.8161
  100MOL   H25626194   6.399   0.939   1.250  1.5313  0.7527 -0.0669
  100MOL   H25726195   6.202   0.686   1.127  0.6259  0.4330 -0.2220
  100MOL   H25826196   6.185   0.839   1.217  0.2919  1.0651  1.6308
  100MOL   H25926197   6.110   0.725   1.411 -2.7214  1.2892 -1.5690
  100MOL   H26026198   6.031   0.642   1.278  0.5239 -1.2617 -0.2965
  100MOL   H26126199   6.171   0.567   1.358 -0.3940  0.5708  0.9283
  100MOL   H26226200   6.439   0.852   1.104  0.3322  0.6540 -0.5894
  101MOL     C126201   6.635   6.895   5.189  0.0822  0.4733 -0.0128
  101MOL     C226202   6.647   6.744   5.162 -0.4407  0.5878  0.0648
  101MOL     O326203   6.526   6.685   5.108 -0.6389 -0.4915 -0.1891
  101MOL     C426204   6.490   6.728   4.981  0.2510 -0.6680 -0.3517
  101MOL     C526205   6.343   6.763   4.975  0.6587  0.0713  0.1534
  101MOL     H626206   6.652   6.944   5.093 -1.1281  0.7425 -0.0909
  101MOL     H726207   6.538   6.921   5.231  0.7720 -1.3982  2.9423
  101MOL     H826208   6.723   6.714   5.089 -0.5074  0.2687  0.1219
  101MOL     H926209   6.503   6.647   4.910 -1.1278  0.1262 -1.5388
  101MOL    H1026210   6.545   6.815   4.946  1.9792 -2.5263 -2.3980
  101MOL    H1126211   6.319   6.858   5.022 -0.0431  0.7898 -1.6112
  101MOL    H1226212   6.306   6.773   4.873  0.9550 -0.2893  0.0075
  101MOL    H1326213   6.281   6.684   5.019  1.5706 -0.4726  0.4819
  101MOL    H1426214   6.700   6.936   5.267  0.4061 -0.9906  0.5015
  101MOL    C1526215   6.668   6.676   5.295  1.0586  0.6814 -0.2902
  101MOL    C1626216   6.663   6.521   5.300  0.2979 -0.4426 -0.1336
  101MOL    O1726217   6.707   6.484   5.421  0.3170 -0.2408  0.1696
  101MOL    C1826218   6.615   6.486   5.529  0.9622  0.9025  0.1312
  101MOL    C1926219   6.664   6.383   5.627  0.1442 -0.9461  0.2623
  101MOL    H2026220   6.591   6.714   5.362  0.6043  0.4626 -0.6818
  101MOL    H2126221   6.759   6.724   5.332  0.9456  2.3517 -2.1278
  101MOL    H2226222   6.562   6.481   5.286 -0.2032  0.3537  1.0765
  101MOL    H2326223   6.513   6.462   5.498  0.6335 -0.0833  1.8601
  101MOL    H2426224   6.610   6.588   5.568  0.7307  0.1916  2.0407
  101MOL    H2526225   6.744   6.426   5.687 -1.1669  1.8945  0.0625
  101MOL    H2626226   6.691   6.295   5.568 -0.3247  0.2880 -1.8241
  101MOL    H2726227   6.579   6.355   5.689 -0.5612 -1.6050 -0.9822
  101MOL    C2826228   6.763   6.458   5.201 -0.2226 -0.7586 -0.1368
  101MOL    C2926229   6.706   6.422   5.060 -0.8289 -0.0090  0.2697
  101MOL    O3026230   6.590   6.332   5.072  0.1941  0.3633  0.1160
  101MOL    C3126231   6.497   6.345   4.963 -0.0658  0.7933 -0.0056
  101MOL    C3226232   6.398   6.230   4.972 -0.1554 -0.6346 -0.2188
  101MOL    H3326233   6.791   6.363   5.246  0.0362  0.4123  2.2772
  101MOL    H3426234   6.846   6.529   5.192 -0.4140 -0.1844  2.2077
  101MOL    H3526235   6.689   6.519   5.014 -0.5963  0.2842  0.7908
  101MOL    H3626236   6.547   6.359   4.867  1.1733  0.3113  0.5491
  101MOL    H3726237   6.461   6.442   4.996  1.5059  0.9373  1.3895
  101MOL    H3826238   6.354   6.227   5.071 -1.2105  0.5934 -0.6363
  101MOL    H3926239   6.318   6.231   4.898  0.1850  1.2829 -0.5877
  101MOL    H4026240   6.446   6.132   4.974  0.4440 -0.3313  0.6555
  101MOL    C4126241   6.819   6.352   4.981  0.1808 -0.0770  0.1269
  101MOL    C4226242   6.937   6.433   4.922 -0.3984 -0.0131 -0.2938
  101MOL    O4326243   6.866   6.541   4.855  0.6665  0.0613 -0.5720
  101MOL    C4426244   6.926   6.672   4.876  0.0388 -0.0255  0.2215
  101MOL    C4526245   6.835   6.788   4.821  0.3219  0.3593 -0.3106
  101MOL    H4626246   6.771   6.293   4.903  0.7765  0.4937 -0.6745
  101MOL    H4726247   6.859   6.263   5.030  0.6944 -0.4092 -0.8913
  101MOL    H4826248   6.995   6.454   5.012 -2.1770  0.4392  0.7866
  101MOL    H4926249   7.026   6.671   4.830  1.1766 -0.4703  2.6401
  101MOL    H5026250   6.948   6.693   4.981 -1.1481 -0.3697  0.5430
  101MOL    H5126251   6.774   6.756   4.736 -0.1946  1.1559 -0.2418
  101MOL    H5226252   6.765   6.828   4.895 -0.7024  0.6998 -1.4463
  101MOL    H5326253   6.898   6.869   4.786 -0.3793  1.5312  1.0947
  101MOL    C5426254   7.016   6.357   4.817  0.1901  0.3435  1.0418
  101MOL    C5526255   7.173   6.377   4.821 -0.2333 -0.6682  0.0192
  101MOL    O5626256   7.224   6.421   4.692 -0.1341  0.4513  0.1632
  101MOL    C5726257   7.240   6.556   4.667  0.4715 -0.1821 -0.3762
  101MOL    C5826258   7.279   6.589   4.523  0.3231  0.3265 -0.3908
  101MOL    H5926259   6.977   6.395   4.722 -0.8344  1.1098  1.7661
  101MOL    H6026260   6.984   6.253   4.829 -1.8179  1.0643  2.1851
  101MOL    H6126261   7.186   6.462   4.888  0.4991 -0.2906 -0.5908
  101MOL    H6226262   7.319   6.595   4.730 -0.6242  0.8670  0.3635
  101MOL    H6326263   7.143   6.600   4.692  2.1181  2.8621  0.7863
  101MOL    H6426264   7.385   6.564   4.518  0.2701 -0.9205  3.1214
  101MOL    H6526265   7.225   6.534   4.447  1.1887  0.6923 -1.2845
  101MOL    H6626266   7.268   6.696   4.501  0.1548  0.8546  2.1013
  101MOL    C6726267   7.237   6.245   4.879  0.2849 -0.1343 -0.5131
  101MOL    C6826268   7.390   6.248   4.865 -0.0401  0.0054 -0.5340
  101MOL    O6926269   7.435   6.127   4.804  0.2461  0.6099 -0.5059
  101MOL    C7026270   7.568   6.137   4.764 -0.4379 -0.1268  0.4475
  101MOL    C7126271   7.608   6.018   4.680  0.2953 -0.0014 -0.2083
  101MOL    H7226272   7.209   6.164   4.812 -1.5117  0.5902 -0.6607
  101MOL    H7326273   7.195   6.208   4.973  0.8849 -0.0113 -0.1972
  101MOL    H7426274   7.404   6.327   4.792  1.1174  0.0848 -0.2261
  101MOL    H7526275   7.641   6.145   4.845 -0.7332  0.2880  0.6755
  101MOL    H7626276   7.592   6.225   4.705 -0.6288 -0.1870  0.2827
  101MOL    H7726277   7.694   6.033   4.614 -2.0494 -0.2584 -3.4171
  101MOL    H7826278   7.623   5.925   4.734  0.2447  0.4873  0.6494
  101MOL    H7926279   7.512   6.007   4.630  0.0935 -2.8141  0.7399
  101MOL    C8026280   7.451   6.289   4.997 -0.3944 -0.6821 -0.0649
  101MOL    C8126281   7.481   6.445   5.005  0.0153 -0.4184  0.0231
  101MOL    O8226282   7.589   6.465   4.914 -0.0564 -0.1329  0.0047
  101MOL    C8326283   7.607   6.600   4.864  0.0245  0.8058  0.0138
  101MOL    C8426284   7.699   6.593   4.743  0.2737  0.6810 -0.2185
  101MOL    H8526285   7.545   6.239   5.021  1.5770  2.0599 -1.6526
  101MOL    H8626286   7.392   6.265   5.085 -0.3014 -1.0774 -0.1124
  101MOL    H8726287   7.402   6.516   4.980  0.4163  0.0455  0.0539
  101MOL    H8826288   7.655   6.654   4.946  0.3400  1.6327 -0.7059
  101MOL    H8926289   7.518   6.652   4.830 -0.3178 -0.1120 -0.5161
  101MOL    H9026290   7.793   6.541   4.760 -0.8689 -0.6940  2.0204
  101MOL    H9126291   7.649   6.548   4.657 -1.8024  2.2615  0.1091
  101MOL    H9226292   7.721   6.695   4.711 -1.6488  1.0598 -0.3860
  101MOL    C9326293   7.537   6.494   5.143  0.0902  0.1869 -0.0392
  101MOL    C9426294   7.444   6.477   5.262 -0.3324 -0.3864 -0.7595
  101MOL    O9526295   7.332   6.555   5.238  0.0524  0.0999 -0.1019
  101MOL    C9626296   7.216   6.542   5.322 -0.2375  0.6874  0.0277
  101MOL    C9726297   7.185   6.675   5.392  0.2322  0.1922  0.2582
  101MOL    H9826298   7.551   6.602   5.139  0.9439  0.1085  0.5996
  101MOL    H9926299   7.632   6.441   5.156  0.7198  0.9965 -1.1629
  101MOL   H10026300   7.402   6.377   5.266 -2.2074  0.4368  0.7254
  101MOL   H10126301   7.221   6.457   5.391  1.5885 -0.3309 -1.3060
  101MOL   H10226302   7.134   6.523   5.253 -1.6372 -0.1277  1.8653
  101MOL   H10326303   7.206   6.758   5.324  2.0983  0.3902  1.0540
  101MOL   H10426304   7.082   6.692   5.425  0.1823  2.1298 -0.7725
  101MOL   H10526305   7.256   6.683   5.474  0.5517  1.0385 -0.0956
  101MOL   C10626306   7.518   6.518   5.396 -0.5989  0.0761 -0.3498
  101MOL   C10726307   7.606   6.647   5.406 -0.4448  1.1533  0.1192
  101MOL   O10826308   7.744   6.621   5.360  0.0001  0.3899  0.3917
  101MOL   C10926309   7.824   6.739   5.342  0.1007 -0.4618 -0.2411
  101MOL   C11026310   0.126   6.700   5.319 -0.0587  0.7468  0.3095
  101MOL   H11126311   7.590   6.442   5.425  1.4698  1.6179 -1.3387
  101MOL   H11226312   7.445   6.523   5.476  0.4120  0.5567  0.5470
  101MOL   H11326313   7.560   6.723   5.342 -0.5332  0.1232 -1.0511
  101MOL   H11426314   7.833   6.810   5.424  0.8986 -0.9984  0.1353
  101MOL   H11526315   7.778   6.795   5.260  1.9963  1.7888  0.1681
  101MOL   H11626316   0.139   6.613   5.254  1.6107 -0.1004  1.7525
  101MOL   H11726317   0.188   6.773   5.268 -0.4437  0.7525 -0.1525
  101MOL   H11826318   0.177   6.659   5.406  0.7507 -0.0349 -0.5176
  101MOL   C11926319   7.598   6.712   5.547  0.3498  0.0361 -0.2600
  101MOL   C12026320   7.631   6.626   5.665  0.4924  0.6653 -0.6259
  101MOL   O12126321   7.573   6.690   5.785 -0.4865  0.4239 -0.1503
  101MOL   C12226322   7.462   6.623   5.836 -0.0425 -0.6607 -0.0770
  101MOL   C12326323   7.409   6.700   5.956 -1.1027  0.0758  0.7908
  101MOL   H12426324   7.496   6.748   5.552  1.0981  2.0502  0.6607
  101MOL   H12526325   7.643   6.811   5.539 -2.9195  1.7065  1.3018
  101MOL   H12626326   7.591   6.525   5.657  1.0272  0.4196 -0.2288
  101MOL   H12726327   7.484   6.521   5.868 -1.7897 -1.1750 -0.4839
  101MOL   H12826328   7.399   6.625   5.748 -2.8310  1.1678  1.8912
  101MOL   H12926329   7.476   6.686   6.041  0.6145 -1.3101 -0.7464
  101MOL   H13026330   7.398   6.806   5.934  0.7162  0.2886  0.8930
  101MOL   H13126331   7.309   6.672   5.990 -2.3999  2.5158 -0.8989
  101MOL   C13226332   7.783   6.615   5.686  0.2734 -0.2393 -0.2615
  101MOL   C13326333   7.828   6.526   5.808  0.4992  0.0867  0.3512
  101MOL   O13426334   0.125   6.528   5.813  0.4885 -0.5785  0.1936
  101MOL   C13526335   0.181   6.627   5.897 -0.2116 -0.0417 -0.4713
  101MOL   C13626336   0.334   6.621   5.897  0.8649 -0.1607 -0.0630
  101MOL   H13726337   7.811   6.716   5.714  2.2372 -0.9136  0.2648
  101MOL   H13826338   7.824   6.599   5.586  0.7139  0.9705 -0.2787
  101MOL   H13926339   7.782   6.561   5.900  1.2389  1.5297  0.1868
  101MOL   H14026340   0.144   6.617   5.999 -0.6006 -1.7072 -0.7551
  101MOL   H14126341   0.158   6.725   5.856  0.1530  0.5438  0.7063
  101MOL   H14226342   0.375   6.709   5.946  1.7534 -0.9457  0.6307
  101MOL   H14326343   0.378   6.536   5.950 -0.6503  0.0290  1.5657
  101MOL   H14426344   0.374   6.623   5.796 -3.1803 -0.1724 -1.7477
  101MOL   C14526345   7.793   6.379   5.781 -0.4332  0.5131 -0.7358
  101MOL   C14626346   0.029   6.285   5.878  0.7619 -0.4603 -0.4227
  101MOL   O14726347   7.825   6.154   5.856  0.2971  0.0356 -0.4307
  101MOL   C14826348   0.045   6.085   5.747  0.0305 -0.5230  0.4328
  101MOL   C14926349   0.032   5.935   5.754 -0.2024  0.1161 -0.0583
  101MOL   H15026350   7.815   6.357   5.676  2.0083  2.6932 -0.7209
  101MOL   H15126351   7.685   6.366   5.786 -0.4776  0.6798 -1.1797
  101MOL   H15226352   0.136   6.292   5.856  0.9339 -3.6078 -0.8272
  101MOL   H15326353   0.148   6.116   5.727  0.7335 -3.0775 -0.0824
  101MOL   H15426354   7.835   6.118   5.659 -2.0812 -0.5039  1.6843
  101MOL   H15526355   0.080   5.898   5.845 -0.3145 -0.6549 -0.3059
  101MOL   H15626356   7.770   5.909   5.750 -0.0001 -0.3996 -2.1263
  101MOL   H15726357   0.078   5.890   5.667 -0.7465  1.3434 -0.9942
  101MOL   C15826358   0.015   6.311   6.031 -0.1658 -0.4386  0.4229
  101MOL   C15926359   0.144   6.321   6.115  0.1464  0.5150  0.3345
  101MOL   O16026360   0.178   6.197   6.175 -0.0219 -0.2563 -0.3414
  101MOL   C16126361   0.244   6.109   6.086  0.4624 -0.1837  0.0712
  101MOL   C16226362   0.304   5.997   6.181  0.4174  0.0350  0.5694
  101MOL   H16326363   7.795   6.244   6.089  1.0634 -1.6255  0.4292
  101MOL   H16426364   7.797   6.401   6.032  0.5968  0.1013  2.4732
  101MOL   H16526365   0.226   6.360   6.055 -1.8295  2.2921 -1.2846
  101MOL   H16626366   0.324   6.164   6.036  2.0008 -3.2346 -0.9485
  101MOL   H16726367   0.176   6.059   6.017 -1.1331  0.9633  0.7684
  101MOL   H16826368   0.234   5.948   6.250  3.1478  0.3266  3.6854
  101MOL   H16926369   0.350   5.924   6.115 -2.4047 -0.7191 -0.6577
  101MOL   H17026370   0.391   6.041   6.230  0.7709  0.7753 -0.7291
  101MOL   C17126371   0.109   6.414   6.237  0.5893 -0.2678  0.4065
  101MOL   C17226372   0.213   6.430   6.340  0.3062 -0.1991 -1.1724
  101MOL   O17326373   0.161   6.510   6.441  0.3219  0.3799 -0.0412
  101MOL   C17426374   0.203   6.497   6.576  0.4820 -0.1494 -0.4308
  101MOL   C17526375   0.222   6.632   6.632  0.0554 -0.6693  0.0655
  101MOL   H17626376   0.015   6.385   6.284  0.9907 -0.4092  1.1239
  101MOL   H17726377   0.085   6.513   6.197 -1.3355 -1.2286 -0.9376
  101MOL   H17826378   0.236   6.336   6.390 -2.7536 -0.0443  0.6489
  101MOL   H17926379   0.297   6.443   6.575  0.4311 -0.2082 -2.4241
  101MOL   H18026380   0.124   6.441   6.627  0.5795  0.8014  0.8014
  101MOL   H18126381   0.258   6.698   6.553 -1.1672  0.8010  0.7078
  101MOL   H18226382   0.132   6.669   6.681  1.2130  1.4540  0.6666
  101MOL   H18326383   0.306   6.628   6.701  0.5891  0.3753 -0.5162
  101MOL   C18426384   0.335   6.506   6.267 -0.4796 -0.2594 -0.9896
  101MOL   C18526385   0.469   6.519   6.348 -0.0007  0.2842  0.0442
  101MOL   O18626386   0.555   6.609   6.282 -0.4953  0.2366  0.2957
  101MOL   C18726387   0.542   6.751   6.282 -0.2057 -0.2918  0.4188
  101MOL   C18826388   0.660   6.814   6.211  0.0008  0.7998 -0.4942
  101MOL   H18926389   0.296   6.606   6.247  2.4919  1.2556  0.4356
  101MOL   H19026390   0.359   6.472   6.166 -1.4491 -1.1108 -0.9432
  101MOL   H19126391   0.455   6.561   6.447 -0.0001  1.2752 -0.3691
  101MOL   H19226392   0.538   6.789   6.384  1.5591  0.7520  0.1262
  101MOL   H19326393   0.455   6.786   6.225  0.8075  1.8276  0.1168
  101MOL   H19426394   0.660   6.783   6.106 -1.1234  0.3825 -0.3763
  101MOL   H19526395   0.667   6.923   6.216 -0.4062  0.7185  2.0688
  101MOL   H19626396   0.754   6.782   6.255 -0.6826  0.6171  0.8381
  101MOL   C19726397   0.555   6.381   6.334 -0.0811  0.0418  0.3154
  101MOL   C19826398   0.641   6.354   6.455 -0.1096  0.1303  0.0256
  101MOL   O19926399   0.757   6.275   6.418  0.5840 -0.4194  0.3163
  101MOL   C20026400   0.870   6.353   6.383  0.1477  0.4020  0.2432
  101MOL   C20126401   0.964   6.261   6.314 -0.7432  0.5666  0.8225
  101MOL   H20226402   0.626   6.402   6.254 -1.0966 -0.2475 -0.6754
  101MOL   H20326403   0.493   6.294   6.312 -2.3071  1.7930 -0.5378
  101MOL   H20426404   0.686   6.445   6.495 -1.8678  1.2512 -0.4701
  101MOL   H20526405   0.920   6.382   6.475  1.5864  3.0074 -1.3082
  101MOL   H20626406   0.836   6.440   6.326  1.3265  0.3022 -0.6234
  101MOL   H20726407   0.896   6.214   6.243  2.2276  0.3670 -1.9914
  101MOL   H20826408   1.042   6.315   6.260  0.5568 -2.6111 -0.6176
  101MOL   H20926409   1.011   6.188   6.379  0.0786 -0.6246 -1.0856
  101MOL   C21026410   0.580   6.280   6.583 -0.2328 -0.6054 -0.1595
  101MOL   C21126411   0.652   6.324   6.713 -0.7813  0.3741  0.6030
  101MOL   O21226412   0.738   6.221   6.759 -0.0090  0.5129  0.6806
  101MOL   C21326413   0.871   6.239   6.719  0.4745 -0.5799  0.2122
  101MOL   C21426414   0.964   6.181   6.820 -0.5684  0.1248 -0.0989
  101MOL   H21526415   0.581   6.174   6.558  0.5145 -0.6692  0.1403
  101MOL   H21626416   0.477   6.311   6.602  0.8652  3.2133  0.0002
  101MOL   H21726417   0.718   6.408   6.690 -1.2541  0.2047 -1.4306
  101MOL   H21826418   0.897   6.342   6.697  2.4645 -1.1891 -0.4266
  101MOL   H21926419   0.871   6.194   6.619 -0.1809 -1.6258  0.6677
  101MOL   H22026420   1.064   6.205   6.785  0.0050  1.0578  2.1519
  101MOL   H22126421   0.944   6.231   6.915  0.8547 -0.5644  0.5761
  101MOL   H22226422   0.959   6.073   6.831  0.5122  0.0059 -0.7432
  101MOL   C22326423   0.549   6.388   6.813 -0.4724 -0.2647 -0.5088
  101MOL   C22426424   0.437   6.305   6.877 -0.1761  0.1777  0.1376
  101MOL   O22526425   0.343   6.279   6.774  0.0447  0.2577  0.1044
  101MOL   C22626426   0.311   6.143   6.768  0.2549  0.3799  0.4649
  101MOL   C22726427   0.219   6.123   6.647 -0.5725  0.1676  0.0690
  101MOL   H22826428   0.505   6.482   6.779  0.1148  0.3389  0.3763
  101MOL   H22926429   0.622   6.419   6.887 -0.5621 -1.4722  0.1025
  101MOL   H23026430   0.485   6.214   6.914  0.6951  0.5206 -0.1405
  101MOL   H23126431   0.262   6.117   6.862  1.0011 -1.4412  0.3723
  101MOL   H23226432   0.398   6.078   6.759  1.6951  2.5255 -1.8040
  101MOL   H23326433   0.262   6.148   6.550 -0.1014  0.4534  0.3503
  101MOL   H23426434   0.182   6.020   6.644  0.5372 -0.2798  1.1759
  101MOL   H23526435   0.140   6.197   6.659  0.7116  1.7282 -0.8877
  101MOL   C23626436   0.347   6.362   6.993  0.2544  0.0910 -0.5548
  101MOL   C23726437   0.426   6.440   7.098 -0.2361 -0.7624 -0.2551
  101MOL   O23826438   0.520   6.348   7.161  0.4360  0.1076  0.9321
  101MOL   C23926439   0.638   6.406   7.219  0.3965 -0.6696  0.6985
  101MOL   C24026440   0.713   6.273   7.248 -0.6244 -0.6249  0.2567
  101MOL   H24126441   0.283   6.286   7.039 -1.5154  0.9583 -1.5400
  101MOL   H24226442   0.274   6.429   6.948  0.5456  1.7097  1.3333
  101MOL   H24326443   0.478   6.520   7.047  1.4936 -2.5088 -1.2980
  101MOL   H24426444   0.614   6.471   7.303  1.2861  1.8730 -0.9679
  101MOL   H24526445   0.679   6.470   7.141  0.5326 -1.3541  0.2014
  101MOL   H24626446   0.804   6.302   7.301 -0.1094  0.4912 -1.2129
  101MOL   H24726447   0.661   6.197   7.307 -2.1742  0.4882  0.3779
  101MOL   H24826448   0.736   6.247   7.145 -4.7712 -1.1806 -0.6420
  101MOL   C24926449   0.325   6.497   7.206 -0.2503  0.0916  0.0953
  101MOL   C25026450   0.206   6.579   7.162  0.3771 -0.1818  1.0134
  101MOL   O25126451   0.248   6.704   7.103 -0.5760  0.4487  0.2020
  101MOL   C25226452   0.145   6.777   7.048 -0.3162  0.4311 -0.1658
  101MOL   C25326453   0.202   6.919   7.034  0.4089  0.1361  0.4997
  101MOL   H25426454   0.378   6.547   7.286  1.8371  0.3413 -1.3965
  101MOL   H25526455   0.285   6.410   7.257  1.6777  0.7829  2.8945
  101MOL   H25626456   0.153   6.518   7.089 -0.9396  2.1179 -0.0150
  101MOL   H25726457   0.060   6.772   7.116 -0.9600  0.1266 -0.9868
  101MOL   H25826458   0.123   6.725   6.955 -2.9330 -0.4702  0.9185
  101MOL   H25926459   0.129   6.976   6.976  0.1554  1.0691  1.7207
  101MOL   H26026460   0.224   6.961   7.132 -1.5127  1.5702  0.3453
  101MOL   H26126461   0.290   6.937   6.974 -1.0857 -2.4817 -2.6121
  101MOL   H26226462   0.140   6.598   7.247  0.3533 -0.4602  1.0590
  102MOL     C126463   7.292   2.618   6.741 -0.5209 -0.1150 -0.0074
  102MOL     C226464   7.265   2.758   6.681 -0.0470 -0.1841 -0.2989
  102MOL     O326465   7.370   2.776   6.588 -0.0068 -0.4418 -0.3959
  102MOL     C426466   7.342   2.868   6.480 -0.2481  0.2245  0.1612
  102MOL     C526467   7.478   2.916   6.424 -0.8673  0.7938  0.2946
  102MOL     H626468   7.390   2.622   6.788 -0.9031  0.3585  0.7550
  102MOL     H726469   7.218   2.592   6.817 -1.0018 -0.2195 -0.5098
  102MOL     H826470   7.170   2.756   6.629 -0.3991 -0.6960  0.3589
  102MOL     H926471   7.277   2.955   6.494 -1.7008 -0.7950 -0.1739
  102MOL    H1026472   7.292   2.813   6.400  0.8277  0.4021 -0.6428
  102MOL    H1126473   7.538   2.954   6.507 -0.0883  0.0538  0.0787
  102MOL    H1226474   7.535   2.838   6.373 -0.6679  0.6664  0.7038
  102MOL    H1326475   7.477   2.995   6.349 -0.0676  2.6882  2.2157
  102MOL    H1426476   7.287   2.545   6.660 -2.6695  0.2121 -0.2035
  102MOL    C1526477   7.269   2.873   6.789  0.4786  0.7295  0.2066
  102MOL    C1626478   7.145   2.889   6.887 -0.4559 -0.5215 -0.1442
  102MOL    O1726479   7.130   2.770   6.959  0.7087 -0.1192  0.2019
  102MOL    C1826480   7.228   2.757   7.065 -0.0186 -0.1358 -0.6525
  102MOL    C1926481   7.211   2.631   7.143  0.7827 -1.2345 -0.1601
  102MOL    H2026482   7.293   2.968   6.743 -3.6896  1.3551 -0.9301
  102MOL    H2126483   7.355   2.858   6.854  0.7427 -0.0907 -0.3248
  102MOL    H2226484   7.149   2.969   6.961 -1.4361 -0.0091 -0.6395
  102MOL    H2326485   7.220   2.842   7.133  0.4689 -0.2105 -0.4939
  102MOL    H2426486   7.331   2.749   7.029 -0.4008 -0.8628 -1.5820
  102MOL    H2526487   7.124   2.626   7.209 -0.6794  0.6042 -1.8602
  102MOL    H2626488   7.297   2.608   7.206  0.2875  0.0142  1.0183
  102MOL    H2726489   7.191   2.546   7.078 -0.1010 -1.4467  0.3737
  102MOL    C2826490   7.014   2.890   6.809  0.7795  0.1126 -0.4709
  102MOL    C2926491   7.000   3.003   6.710 -0.7328 -0.4551  0.3794
  102MOL    O3026492   7.029   3.120   6.790  0.0599 -0.3262  0.1380
  102MOL    C3126493   7.103   3.223   6.719 -0.2604  0.4710  0.1539
  102MOL    C3226494   7.113   3.340   6.821  0.5284  0.8611  0.1082
  102MOL    H3326495   6.927   2.882   6.874 -0.4298  0.7150 -1.9750
  102MOL    H3426496   7.001   2.799   6.750  1.8988 -0.2126 -0.2220
  102MOL    H3526497   7.078   2.992   6.635 -0.7424  0.2334  0.2636
  102MOL    H3626498   7.065   3.255   6.622  0.6172  2.4774  0.4413
  102MOL    H3726499   7.203   3.182   6.704 -0.5905 -0.2691 -0.0183
  102MOL    H3826500   7.168   3.306   6.909  0.4660 -0.0461 -0.2028
  102MOL    H3926501   7.185   3.409   6.776  1.0269 -0.9610 -1.9561
  102MOL    H4026502   7.017   3.386   6.843 -0.1483 -1.1289  1.4500
  102MOL    C4126503   6.863   3.008   6.636 -0.1229 -0.0982  0.0991
  102MOL    C4226504   6.830   2.877   6.567 -0.4130 -0.3396 -0.0424
  102MOL    O4326505   6.938   2.834   6.489 -0.1835 -0.0659 -0.0900
  102MOL    C4426506   6.937   2.690   6.477  0.2676 -0.1006  0.5710
  102MOL    C4526507   7.045   2.652   6.371  0.1311  0.1046 -0.3973
  102MOL    H4626508   6.872   3.084   6.558 -1.3413  0.3485  0.3835
  102MOL    H4726509   6.789   3.030   6.712 -0.4293 -3.4401  0.8667
  102MOL    H4826510   6.805   2.797   6.637 -0.7173  0.6136  0.9540
  102MOL    H4926511   6.837   2.658   6.449 -0.4699  2.3571  0.3758
  102MOL    H5026512   6.966   2.641   6.570  1.5838  2.0104  1.3108
  102MOL    H5126513   7.035   2.720   6.286  0.9243  1.5318  0.6167
  102MOL    H5226514   7.142   2.659   6.420 -0.2695  0.0616  0.4219
  102MOL    H5326515   7.042   2.551   6.332 -1.2603  0.0997 -0.3102
  102MOL    C5426516   6.712   2.886   6.461 -1.0170  0.2148 -0.1143
  102MOL    C5526517   6.571   2.928   6.517  0.3640  0.0438 -0.4319
  102MOL    O5626518   6.517   2.814   6.587 -0.1356 -0.5222  0.5246
  102MOL    C5726519   6.535   2.817   6.727  0.0218 -0.2600  0.0742
  102MOL    C5826520   6.515   2.677   6.774  0.3091 -0.2066 -0.2166
  102MOL    H5926521   6.707   2.793   6.404  2.1514  0.3110 -0.6617
  102MOL    H6026522   6.734   2.963   6.386 -0.8228  0.8761  0.6142
  102MOL    H6126523   6.582   3.024   6.568 -0.4916  1.8660 -3.5407
  102MOL    H6226524   6.457   2.880   6.772 -1.0582 -0.4872 -1.4515
  102MOL    H6326525   6.634   2.856   6.752 -0.1445  0.3406 -0.1883
  102MOL    H6426526   6.419   2.631   6.750  1.0916 -0.9188 -2.0434
  102MOL    H6526527   6.581   2.611   6.719  0.7481 -1.5666  1.8957
  102MOL    H6626528   6.535   2.664   6.881 -0.2340 -3.6995 -0.4948
  102MOL    C6726529   6.472   2.960   6.407 -1.1760  0.0459 -0.0971
  102MOL    C6826530   6.326   3.007   6.447  0.0600 -0.7236 -0.4281
  102MOL    O6926531   6.278   3.067   6.327  0.5161 -0.3182  0.0188
  102MOL    C7026532   6.228   2.994   6.218 -0.0723 -0.0074  0.3336
  102MOL    C7126533   6.188   3.108   6.123  0.0000 -0.0889 -0.2015
  102MOL    H7226534   6.461   2.867   6.350  0.2970 -1.0939  1.4127
  102MOL    H7326535   6.513   3.034   6.339  0.7296 -1.5123 -0.6939
  102MOL    H7426536   6.271   2.915   6.468 -2.2022  0.4341 -1.1333
  102MOL    H7526537   6.156   2.917   6.245  0.7452 -0.4580  1.2878
  102MOL    H7626538   6.309   2.933   6.177 -0.4760  0.2166 -0.8120
  102MOL    H7726539   6.115   3.180   6.158 -0.0487  0.5588 -1.5842
  102MOL    H7826540   6.272   3.168   6.087  1.0688 -0.2540  1.9605
  102MOL    H7926541   6.148   3.060   6.034  0.6927 -2.5311  0.7748
  102MOL    C8026542   6.325   3.121   6.556  0.7411  0.1026 -0.0884
  102MOL    C8126543   6.185   3.173   6.604  0.0744  0.1019 -0.1877
  102MOL    O8226544   6.216   3.285   6.687  0.5606  0.5263  0.3806
  102MOL    C8326545   6.229   3.416   6.636  0.4987 -0.4182  0.0531
  102MOL    C8426546   6.223   3.507   6.768  0.4598  0.0340 -0.2835
  102MOL    H8526547   6.387   3.204   6.522 -0.2920  1.2003  0.6812
  102MOL    H8626548   6.377   3.088   6.645 -0.2521  0.8580  0.7805
  102MOL    H8726549   6.136   3.213   6.515 -1.2595 -0.2592  0.3744
  102MOL    H8826550   6.152   3.444   6.564 -2.0841 -1.1309  2.4531
  102MOL    H8926551   6.327   3.430   6.591  1.1263 -1.5602  1.0368
  102MOL    H9026552   6.228   3.612   6.741  1.9550 -0.7169 -3.0955
  102MOL    H9126553   6.130   3.482   6.819  1.0247 -0.3063  0.5974
  102MOL    H9226554   6.306   3.481   6.834  0.2434  0.9071  0.3422
  102MOL    C9326555   6.093   3.062   6.669 -0.4542 -0.4559 -0.3307
  102MOL    C9426556   6.000   2.999   6.565 -0.2685 -0.5731 -0.5829
  102MOL    O9526557   5.885   3.078   6.558  0.1371 -0.0374 -0.1291
  102MOL    C9626558   5.808   3.062   6.441  0.1696 -0.0737  0.0737
  102MOL    C9726559   5.697   3.158   6.438 -0.5349 -0.0960 -0.6606
  102MOL    H9826560   6.032   3.104   6.749 -0.6634 -1.1421 -0.1246
  102MOL    H9926561   6.153   2.995   6.731  0.4450  0.6043 -0.0434
  102MOL   H10026562   6.048   3.004   6.468 -2.9815  1.6469 -1.8940
  102MOL   H10126563   5.760   2.964   6.436  2.7436 -1.3499 -0.5934
  102MOL   H10226564   5.869   3.070   6.351 -1.4290 -3.4831 -1.3890
  102MOL   H10326565   5.741   3.257   6.422  0.6155 -0.9098 -2.7611
  102MOL   H10426566   5.628   3.127   6.359 -0.5530 -1.2750 -0.1905
  102MOL   H10526567   5.639   3.154   6.530  0.7266  0.7701  0.1859
  102MOL   C10626568   5.971   2.850   6.614  0.6024  0.6340 -0.4971
  102MOL   C10726569   6.081   2.743   6.599  0.3682  0.1144  0.1192
  102MOL   O10826570   6.095   2.727   6.456 -0.3552 -0.2376  0.2860
  102MOL   C10926571   6.212   2.664   6.406  0.7470  0.1324 -0.3432
  102MOL   C11026572   6.170   2.585   6.279 -0.7318 -0.5305  0.5885
  102MOL   H11126573   5.885   2.822   6.553 -0.0129 -0.5783  0.9205
  102MOL   H11226574   5.933   2.858   6.716  0.3204 -0.0331 -0.5447
  102MOL   H11326575   6.179   2.772   6.636  0.4338 -0.6728  0.5617
  102MOL   H11426576   6.263   2.598   6.476  0.1698  0.0866  0.0343
  102MOL   H11526577   6.291   2.729   6.368 -0.6765  1.6278 -0.7378
  102MOL   H11626578   6.131   2.647   6.199 -1.6463 -0.5068  1.0461
  102MOL   H11726579   6.252   2.531   6.231 -0.3058  1.5554 -1.0779
  102MOL   H11826580   6.094   2.510   6.301 -1.9694 -0.0179 -1.8624
  102MOL   C11926581   6.037   2.602   6.657 -0.1226 -0.0064  0.1740
  102MOL   C12026582   6.029   2.590   6.806  0.2910 -0.2185 -0.4833
  102MOL   O12126583   6.150   2.625   6.869 -0.0947 -0.1632 -0.0804
  102MOL   C12226584   6.139   2.720   6.972  0.1866 -0.2469 -0.8986
  102MOL   C12326585   6.271   2.745   7.051 -0.1977 -0.2817  0.3767
  102MOL   H12426586   6.111   2.528   6.627 -0.5448 -0.0708 -0.7391
  102MOL   H12526587   5.947   2.564   6.609  1.1336 -1.7539 -0.8448
  102MOL   H12626588   5.952   2.662   6.835  0.2662 -0.3682 -0.1777
  102MOL   H12726589   6.072   2.694   7.053 -2.5025  1.3097 -2.5418
  102MOL   H12826590   6.109   2.815   6.926  0.3273  0.6150  0.7508
  102MOL   H12926591   6.351   2.774   6.983  0.2987 -0.7636  0.7504
  102MOL   H13026592   6.245   2.825   7.120 -0.4504  0.6522 -0.7842
  102MOL   H13126593   6.305   2.652   7.098  0.3237  0.3726  1.3141
  102MOL   C13226594   5.992   2.456   6.844 -0.1880 -0.1742 -0.3249
  102MOL   C13326595   5.964   2.437   6.996  0.5087 -0.3282 -0.1031
  102MOL   O13426596   5.952   2.302   7.014  0.2344  0.7284  0.0046
  102MOL   C13526597   6.071   2.221   7.032  0.1612 -0.7002 -0.4877
  102MOL   C13626598   6.015   2.078   7.029 -0.0174  0.8132 -0.8377
  102MOL   H13726599   6.053   2.376   6.802  1.4385 -0.2442  2.0411
  102MOL   H13826600   5.901   2.435   6.788  0.3390 -1.2038 -0.8035
  102MOL   H13926601   6.048   2.483   7.046  1.7744 -0.9995 -1.5636
  102MOL   H14026602   6.112   2.241   7.131  1.2495 -2.8679 -0.4638
  102MOL   H14126603   6.138   2.249   6.950  1.4763  4.0814  2.0110
  102MOL   H14226604   6.099   2.015   7.058  0.2507  0.2361 -2.7602
  102MOL   H14326605   5.925   2.055   7.086  1.1997  0.0656  0.8198
  102MOL   H14426606   6.001   2.054   6.924  0.9587 -1.3780 -0.4883
  102MOL   C14526607   5.841   2.510   7.045 -0.4042 -0.5019  0.6025
  102MOL   C14626608   5.820   2.520   7.193  1.0050  0.3136 -0.3415
  102MOL   O14726609   5.894   2.626   7.247  0.8010  0.4085 -0.1425
  102MOL   C14826610   5.836   2.754   7.227 -0.1169  0.4328 -0.3281
  102MOL   C14926611   5.942   2.853   7.273 -0.3295 -0.5611 -0.5576
  102MOL   H15026612   5.758   2.461   6.995 -1.5351  1.1547  0.7902
  102MOL   H15126613   5.843   2.608   6.996 -1.7998  0.7658  3.0217
  102MOL   H15226614   5.714   2.538   7.213  0.8029 -1.1408 -0.0374
  102MOL   H15326615   5.742   2.767   7.281  0.7410 -0.4440  1.4051
  102MOL   H15426616   5.825   2.770   7.119 -0.4883  0.1869 -0.3310
  102MOL   H15526617   5.961   2.825   7.376 -0.9670 -0.0392 -0.3012
  102MOL   H15626618   6.041   2.831   7.232 -0.5314 -1.0556 -0.7846
  102MOL   H15726619   5.916   2.959   7.267 -1.2212 -0.8531 -1.9226
  102MOL   C15826620   5.852   2.387   7.274 -0.2438  0.2871 -0.0730
  102MOL   C15926621   5.813   2.379   7.425  0.2257 -0.0871 -0.0956
  102MOL   O16026622   5.870   2.268   7.482 -0.2449 -0.2198  0.4965
  102MOL   C16126623   6.000   2.266   7.538 -0.1345 -0.4367  0.6741
  102MOL   C16226624   6.023   2.119   7.592 -0.3157  0.0266  0.0941
  102MOL   H16326625   5.955   2.353   7.269 -0.4234 -0.6470  1.9608
  102MOL   H16426626   5.794   2.301   7.239 -1.6584  0.6818  1.2428
  102MOL   H16526627   5.854   2.466   7.475  0.6795  0.0129 -0.6299
  102MOL   H16626628   6.007   2.345   7.613  1.8838  0.6210 -0.5670
  102MOL   H16726629   6.076   2.303   7.469 -2.4088  2.4541 -0.3738
  102MOL   H16826630   6.026   2.039   7.518  0.0948  0.9215 -0.8639
  102MOL   H16926631   6.107   2.118   7.660  0.8665  0.3375 -1.3419
  102MOL   H17026632   5.951   2.091   7.669 -0.0044  0.5497  0.5781
  102MOL   C17126633   5.666   2.373   7.451  0.1173 -0.3314  0.7064
  102MOL   C17226634   5.585   2.508   7.470 -0.1856 -0.6028  0.7548
  102MOL   O17326635   5.614   2.550   7.596  0.7257  0.1186 -0.5051
  102MOL   C17426636   5.675   2.677   7.596 -0.4703  0.4572  0.4045
  102MOL   C17526637   5.719   2.722   7.733 -0.5287 -0.0556 -0.2808
  102MOL   H17626638   5.638   2.315   7.539 -0.3418 -0.5817  0.3997
  102MOL   H17726639   5.619   2.313   7.373 -0.2753  0.0957  0.6083
  102MOL   H17826640   5.624   2.567   7.387  1.4911 -2.5364  0.1022
  102MOL   H17926641   5.602   2.753   7.566 -0.8713 -0.3033 -0.5954
  102MOL   H18026642   5.753   2.681   7.520 -0.9234 -0.9344 -0.1569
  102MOL   H18126643   5.778   2.814   7.734  1.4290 -1.1635  5.4513
  102MOL   H18226644   5.640   2.722   7.807 -0.0488  0.2017  0.2378
  102MOL   H18326645   5.789   2.644   7.763 -1.2507 -0.3469  0.6426
  102MOL   C18426646   5.435   2.491   7.458  0.0154  0.5353  0.3118
  102MOL   C18526647   5.382   2.481   7.309  0.1395  0.1232 -0.3526
  102MOL   O18626648   5.424   2.600   7.235 -0.5767  0.3650  0.1304
  102MOL   C18726649   5.437   2.575   7.097 -0.4658  0.0647 -0.4728
  102MOL   C18826650   5.488   2.704   7.032  1.2384  0.1013  0.3725
  102MOL   H18926651   5.381   2.575   7.499  1.5998  0.9705  1.5632
  102MOL   H19026652   5.415   2.408   7.526  1.7853  0.9847  1.4211
  102MOL   H19126653   5.425   2.395   7.256 -1.1749 -0.2555 -0.8223
  102MOL   H19226654   5.350   2.544   7.039 -1.6454 -1.3460  1.9667
  102MOL   H19326655   5.524   2.510   7.092 -0.4550  0.0007  0.5156
  102MOL   H19426656   5.399   2.766   7.021  1.0032 -0.1902  0.5984
  102MOL   H19526657   5.573   2.746   7.087  1.2163 -2.6302  2.6454
  102MOL   H19626658   5.521   2.676   6.932  0.7603 -0.9241  0.4857
  102MOL   C19726659   5.234   2.457   7.291  0.1559 -0.3558 -0.5781
  102MOL   C19826660   5.175   2.330   7.365  0.3329  0.1115  0.0585
  102MOL   O19926661   5.135   2.243   7.253  0.5946  0.2099  0.4976
  102MOL   C20026662   5.109   2.109   7.286  0.2949 -0.7672 -0.5187
  102MOL   C20126663   5.076   2.021   7.167  0.4787 -0.3054 -0.1409
  102MOL   H20226664   5.201   2.450   7.187  1.8926  1.1861 -1.2476
  102MOL   H20326665   5.184   2.539   7.343  1.9483 -0.9694  2.2192
  102MOL   H20426666   5.251   2.272   7.418  0.1112  0.1807  0.4450
  102MOL   H20526667   5.027   2.091   7.355  1.1049 -2.7318 -0.0445
  102MOL   H20626668   5.203   2.073   7.328 -0.1674  0.0076  1.2426
  102MOL   H20726669   5.161   1.995   7.104  2.6455 -2.8183  3.6439
  102MOL   H20826670   5.043   1.928   7.213  0.0914 -0.8300 -1.4787
  102MOL   H20926671   4.985   2.059   7.120  1.7250  0.7802 -1.7203
  102MOL   C21026672   5.053   2.361   7.455  0.0929 -0.1442  0.3039
  102MOL   C21126673   5.089   2.417   7.591  0.4692 -0.4920 -0.5728
  102MOL   O21226674   5.176   2.327   7.653  0.5398  0.6916  0.3438
  102MOL   C21326675   5.246   2.363   7.770  0.2046 -0.0644  0.2285
  102MOL   C21426676   5.352   2.257   7.780  0.7328  1.0591  0.3686
  102MOL   H21526677   5.004   2.271   7.494  0.5507  0.1343  1.5301
  102MOL   H21626678   4.978   2.431   7.419  1.6485  1.7014  0.6132
  102MOL   H21726679   5.147   2.509   7.578 -1.4350  1.4160  3.5280
  102MOL   H21826680   5.179   2.356   0.012 -0.6819 -0.3369 -0.4867
  102MOL   H21926681   5.301   2.456   7.781 -1.4871  0.8863  0.8623
  102MOL   H22026682   5.407   2.255   7.686  1.1285 -1.0089  0.6205
  102MOL   H22126683   5.415   2.270   0.025  0.1174  1.5321  0.7365
  102MOL   H22226684   5.304   2.160   7.795  0.0459  1.2802 -0.3753
  102MOL   C22326685   4.968   2.432   7.691  0.1430  0.3442  0.2418
  102MOL   C22426686   4.856   2.522   7.653 -0.2837  0.5446  0.0720
  102MOL   O22526687   4.915   2.650   7.634 -0.4750  0.0722  0.3364
  102MOL   C22626688   4.859   2.721   7.531  0.0299  0.3577 -0.0010
  102MOL   C22726689   4.985   2.801   7.493 -0.0292 -0.0562 -0.4197
  102MOL   H22826690   4.990   2.449   7.796 -0.7544 -3.2172  1.0696
  102MOL   H22926691   4.920   2.334   7.688  3.6195 -1.5218  2.6198
  102MOL   H23026692   4.794   2.481   7.573 -1.0571 -1.1861  1.5297
  102MOL   H23126693   4.778   2.779   7.576 -0.4237  0.1354 -0.5224
  102MOL   H23226694   4.834   2.671   7.437  1.6046  0.4269 -0.4588
  102MOL   H23326695   5.077   2.745   7.511 -0.2447  0.0650  1.1569
  102MOL   H23426696   4.986   2.817   7.386 -0.4343 -0.7312 -0.5249
  102MOL   H23526697   4.988   2.903   7.531  3.8565 -0.5599  0.8587
  102MOL   C23626698   4.750   2.539   7.766 -0.6718  0.5805  0.0406
  102MOL   C23726699   4.663   2.416   7.801  0.6173 -0.1579  0.2492
  102MOL   O23826700   4.579   2.376   7.694  0.3191 -0.1864 -0.1778
  102MOL   C23926701   4.603   2.244   7.635 -0.1181 -0.0287 -0.2756
  102MOL   C24026702   4.528   2.210   7.510 -0.7263  0.1085 -0.2632
  102MOL   H24126703   4.680   2.618   7.737 -0.5010 -0.2751 -2.7627
  102MOL   H24226704   4.795   2.573   0.016  2.6604 -0.3779 -1.1822
  102MOL   H24326705   4.731   2.333   7.822  1.8527  0.4958 -1.0510
  102MOL   H24426706   4.600   2.168   7.713  0.4390 -0.1820 -0.3987
  102MOL   H24526707   4.706   2.246   7.600 -0.1966 -0.7582 -0.5516
  102MOL   H24626708   4.421   2.201   7.525 -1.0693  0.9653 -2.0305
  102MOL   H24726709   4.553   2.280   7.430  0.8550  0.1102  0.2122
  102MOL   H24826710   4.568   2.116   7.474 -0.9087 -0.1569  0.2194
  102MOL   C24926711   4.573   2.440   0.084 -0.1463 -0.0935  0.1110
  102MOL   C25026712   4.500   2.314   0.134  0.3849  0.5779  0.2755
  102MOL   O25126713   4.587   2.219   0.196 -0.2886  0.1382 -0.2471
  102MOL   C25226714   4.506   2.125   0.266 -0.3526  0.4102 -0.2402
  102MOL   C25326715   4.601   2.018   0.328 -0.4629 -0.3948  0.1345
  102MOL   H25426716   4.501   2.521   0.071 -0.6499 -0.1276  2.5418
  102MOL   H25526717   4.633   2.472   0.168  2.1812  0.5693 -1.7530
  102MOL   H25626718   4.415   2.346   0.194 -1.3356 -0.4746 -1.5548
  102MOL   H25726719   4.436   2.076   0.199  0.8246 -2.1626  0.3458
  102MOL   H25826720   4.443   2.160   0.349 -0.4914 -2.2531  0.8179
  102MOL   H25926721   4.545   1.933   0.366 -0.9903  0.0787  0.4269
  102MOL   H26026722   4.667   1.979   0.251  1.8822  0.9881  1.3964
  102MOL   H26126723   4.664   2.059   0.406  0.5197 -0.1043 -0.7937
  102MOL   H26226724   4.453   2.263   0.050 -0.0760  0.6166  0.5120
  103MOL     C126725   6.888   0.271   0.543  0.0905  0.2371 -0.1246
  103MOL     C226726   6.763   0.337   0.489  0.1536  0.0463 -0.1427
  103MOL     O326727   6.683   0.343   0.604 -0.2209  0.1692  0.6580
  103MOL     C426728   6.563   0.417   0.582 -0.5387  0.2642 -0.0335
  103MOL     C526729   6.445   0.336   0.640  0.0203 -0.1188 -0.3949
  103MOL     H626730   6.874   0.166   0.569  0.9706 -0.2660 -1.6159
  103MOL     H726731   6.966   0.301   0.473  1.0650  0.6521  1.1294
  103MOL     H826732   6.791   0.439   0.461 -0.8917 -0.0653 -1.6595
  103MOL     H926733   6.550   0.445   0.477  0.2836 -1.7471 -0.6962
  103MOL    H1026734   6.568   0.515   0.629  0.1087  1.0887 -1.7825
  103MOL    H1126735   6.452   0.308   0.745 -0.6307  1.1016 -0.0252
  103MOL    H1226736   6.357   0.397   0.621 -0.4801  0.0682  2.3380
  103MOL    H1326737   6.434   0.245   0.581  2.9860 -0.2151 -0.8514
  103MOL    H1426738   6.918   0.329   0.629  1.2480 -1.6135  0.7705
  103MOL    C1526739   6.700   0.264   0.365  0.1097  0.4154  0.1876
  103MOL    C1626740   6.716   0.336   0.227 -0.5017  0.0184 -0.0340
  103MOL    O1726741   6.647   0.459   0.236 -0.0512 -0.1229  0.1816
  103MOL    C1826742   6.691   0.568   0.160  0.1164 -0.6775  0.1457
  103MOL    C1926743   6.579   0.675   0.153 -0.1929  0.3335  0.4874
  103MOL    H2026744   6.593   0.249   0.374  0.2610 -1.1056 -0.4582
  103MOL    H2126745   6.751   0.167   0.363 -2.0284 -0.8290  2.9284
  103MOL    H2226746   6.820   0.361   0.206 -1.0107  0.1252 -2.5246
  103MOL    H2326747   6.719   0.546   0.058 -1.3479 -1.8943 -0.0121
  103MOL    H2426748   6.787   0.611   0.189  0.1963 -0.7041 -0.0825
  103MOL    H2526749   6.488   0.653   0.098  0.1384  1.9368 -0.7457
  103MOL    H2626750   6.623   0.769   0.118 -1.1939  0.7960  0.4654
  103MOL    H2726751   6.551   0.690   0.257 -1.5199 -0.5824  0.2695
  103MOL    C2826752   6.659   0.262   0.099  0.2702 -0.0623  0.0813
  103MOL    C2926753   6.731   0.129   0.066 -0.0100 -0.0076  0.4056
  103MOL    O3026754   6.868   0.170   0.023 -0.6824  0.5050  0.1145
  103MOL    C3126755   6.975   0.081   0.055  0.2478  0.3117 -0.2565
  103MOL    C3226756   7.067   0.065   7.778  0.4004 -0.2519 -1.0607
  103MOL    H3326757   6.666   0.331   0.016 -0.5763 -1.3143 -1.0524
  103MOL    H3426758   6.550   0.253   0.110  0.3253 -1.9412 -0.6942
  103MOL    H3526759   6.740   0.066   0.154 -2.3214  3.3033  3.1324
  103MOL    H3626760   6.936   7.828   0.089 -2.0467  1.7062  1.1969
  103MOL    H3726761   7.019   0.128   0.143  2.3960  1.9600 -2.1775
  103MOL    H3826762   7.147   7.839   7.804  1.1319  0.2684 -1.8632
  103MOL    H3926763   7.010   0.038   7.690 -3.1993  1.2555  0.6917
  103MOL    H4026764   7.122   0.156   7.753  1.0634  0.3069  2.2212
  103MOL    C4126765   6.681   0.048   7.791 -0.2889  0.2551 -0.2014
  103MOL    C4226766   6.541   7.837   7.809  0.2270  0.4152  0.1011
  103MOL    O4326767   6.544   7.746   0.078 -0.2513 -0.2626 -0.4339
  103MOL    C4426768   6.415   7.736   0.144  0.2283  1.2170 -0.3925
  103MOL    C4526769   6.395   0.004   0.237  0.3002 -0.1040 -0.5887
  103MOL    H4626770   6.748   7.809   7.769  0.2219  0.1059  1.8271
  103MOL    H4726771   6.679   0.118   7.707  1.1071  1.4587  0.7275
  103MOL    H4826772   6.479   0.079   7.837  1.3059  1.1906  0.1087
  103MOL    H4926773   6.400   7.642   0.197 -0.1311  0.7701 -1.2767
  103MOL    H5026774   6.330   7.746   0.076 -0.3336  0.4191  0.1782
  103MOL    H5126775   6.299   7.831   0.285  0.5988 -3.4767 -1.0559
  103MOL    H5226776   6.466   0.011   0.320 -0.5561  0.9903  0.0633
  103MOL    H5326777   6.391   0.101   0.186 -2.0110 -0.2463 -0.7204
  103MOL    C5426778   6.485   7.776   7.679  0.6781  0.3183 -0.1064
  103MOL    C5526779   6.558   7.645   7.632  0.1807 -0.8426 -0.9301
  103MOL    O5626780   6.548   7.644   7.498 -0.0947 -0.1088  0.5459
  103MOL    C5726781   6.659   7.714   7.438 -0.2168 -0.6282  1.2102
  103MOL    C5826782   6.625   7.745   7.292  0.4707 -0.2911  0.2597
  103MOL    H5926783   6.500   0.011   7.606  1.6377 -0.0271 -0.2900
  103MOL    H6026784   6.376   7.770   7.681  0.6566 -0.0432 -1.9102
  103MOL    H6126785   6.662   7.661   7.660  0.5205  3.2095 -4.0664
  103MOL    H6226786   6.742   7.644   7.449 -0.0758 -0.5040  0.9510
  103MOL    H6326787   6.700   7.800   7.491  2.1609 -0.6918 -0.4147
  103MOL    H6426788   6.587   7.656   7.243  1.1761  0.0265 -0.8690
  103MOL    H6526789   6.560   7.832   7.289 -1.2960 -1.5436  1.0201
  103MOL    H6626790   6.712   7.788   7.244 -0.7388  0.3939 -1.3415
  103MOL    C6726791   6.512   7.502   7.679  0.3529 -0.3740 -0.2132
  103MOL    C6826792   6.353   7.455   7.659 -0.1422  0.8371  0.4577
  103MOL    O6926793   6.328   7.330   7.717  0.3654 -0.6496  0.0651
  103MOL    C7026794   6.347   7.337   0.018  0.5069  0.3695  0.8354
  103MOL    C7126795   6.249   7.249   0.103 -0.3541  0.4423  0.2230
  103MOL    H7226796   6.540   7.475   7.781 -1.6299 -1.7433 -0.0055
  103MOL    H7326797   6.571   7.436   7.614 -0.9766 -1.8450  0.0420
  103MOL    H7426798   6.282   7.529   7.697  0.5170  1.0389  1.3322
  103MOL    H7526799   6.338   7.442   0.047  0.9401  0.3417  1.0728
  103MOL    H7626800   6.446   7.302   0.045  0.6913 -0.1665 -0.5025
  103MOL    H7726801   6.234   7.274   0.208  2.0183  3.2077 -0.0179
  103MOL    H7826802   6.150   7.236   0.059 -0.2909 -2.5844  0.8310
  103MOL    H7926803   6.288   7.147   0.093 -0.3317  0.4084  0.6123
  103MOL    C8026804   6.325   7.432   7.507  0.0704 -0.1304  0.9022
  103MOL    C8126805   6.176   7.380   7.478 -0.1617  0.1120  0.3525
  103MOL    O8226806   6.174   7.361   7.338 -0.4705 -0.2138 -0.2968
  103MOL    C8326807   6.068   7.278   7.289 -0.7918 -0.3792 -0.3832
  103MOL    C8426808   6.064   7.263   7.135 -0.2144  0.4692 -0.3890
  103MOL    H8526809   6.395   7.359   7.466  1.0212 -0.5297  3.1690
  103MOL    H8626810   6.339   7.522   7.447  1.5732 -0.5482  0.6053
  103MOL    H8726811   6.172   7.283   7.527 -2.4318  0.5626  1.1299
  103MOL    H8826812   5.970   7.320   7.312 -1.4347 -1.7985 -0.4846
  103MOL    H8926813   6.063   7.183   7.341 -3.4861 -0.0974 -0.0782
  103MOL    H9026814   5.972   7.208   7.111  1.0395 -2.1212  0.4902
  103MOL    H9126815   6.061   7.358   7.083 -1.7264  1.7583  1.9816
  103MOL    H9226816   6.146   7.203   7.096  0.9257  2.2034 -0.6620
  103MOL    C9326817   6.062   7.480   7.527  0.1385 -0.2729 -0.6128
  103MOL    C9426818   6.045   7.602   7.435  0.1551  0.0551 -0.1285
  103MOL    O9526819   6.149   7.701   7.468  0.7194 -0.3610 -0.2388
  103MOL    C9626820   6.164   7.806   7.373 -0.0906  0.7966 -0.4567
  103MOL    C9726821   6.309   7.842   7.374  0.4574 -0.0468  0.3438
  103MOL    H9826822   6.081   7.535   7.619 -3.2361  0.6168 -0.3479
  103MOL    H9926823   5.964   7.432   7.531  0.3712 -0.6101  1.6833
  103MOL   H10026824   6.046   7.572   7.330 -1.9381 -1.6135  0.2673
  103MOL   H10126825   6.102   0.049   7.395 -0.0273  0.7659 -0.1556
  103MOL   H10226826   6.135   7.780   7.271  1.0757  1.9464 -1.1013
  103MOL   H10326827   6.323   0.046   7.278 -1.2616 -0.4364 -0.1226
  103MOL   H10426828   6.337   0.067   7.454  3.0904 -2.9753  2.0188
  103MOL   H10526829   6.379   7.760   7.382  2.0552  1.1673 -0.9931
  103MOL   C10626830   5.909   7.673   7.467 -0.3073  0.2166  0.6296
  103MOL   C10726831   5.784   7.616   7.392  0.4597 -0.1028 -0.1446
  103MOL   O10826832   5.796   7.651   7.253 -0.5828 -0.0091 -0.7021
  103MOL   C10926833   5.726   7.559   7.167 -0.6436  0.7361 -0.0907
  103MOL   C11026834   5.786   7.563   7.030  0.4363  0.4357 -0.4077
  103MOL   H11126835   5.915   7.778   7.439 -1.7236 -0.0418 -0.7083
  103MOL   H11226836   5.882   7.670   7.572 -0.9803 -0.1945  0.4520
  103MOL   H11326837   5.796   7.508   7.404 -0.1254 -0.4109 -2.1329
  103MOL   H11426838   5.617   7.562   7.167 -0.6040  2.7825  0.0363
  103MOL   H11526839   5.745   7.454   7.190  1.5839  1.3404  0.8941
  103MOL   H11626840   5.893   7.584   7.028  0.1760  1.7985 -1.2761
  103MOL   H11726841   5.777   7.466   6.981 -0.9727  0.4187 -0.1539
  103MOL   H11826842   5.742   7.640   6.966  0.9665  1.9761  1.0419
  103MOL   C11926843   5.644   7.656   7.442 -0.5454  0.2419  0.4693
  103MOL   C12026844   5.543   7.542   7.441  0.5738  0.2364  0.0094
  103MOL   O12126845   5.412   7.597   7.449 -0.4023 -0.2453  0.2802
  103MOL   C12226846   5.338   7.594   7.333  0.5541 -0.4047 -0.3591
  103MOL   C12326847   5.307   7.450   7.288 -0.1667  0.0335  0.6084
  103MOL   H12426848   5.594   7.739   7.391 -3.6274 -2.3705 -0.9042
  103MOL   H12526849   5.645   7.694   7.545 -1.8304 -1.0354  0.9756
  103MOL   H12626850   5.565   7.484   7.351 -1.2095 -1.7188  0.7719
  103MOL   H12726851   5.404   7.628   7.252 -0.2302 -0.8063 -1.1694
  103MOL   H12826852   5.253   7.663   7.334  1.2318  0.5147 -2.5798
  103MOL   H12926853   5.250   7.385   7.354  0.9206 -0.2825  1.2422
  103MOL   H13026854   5.240   7.455   7.202 -0.6572 -1.1711  0.9127
  103MOL   H13126855   5.397   7.397   7.256  0.0500  0.4615  0.4998
  103MOL   C13226856   5.560   7.445   7.553 -0.0155  0.0754  0.0805
  103MOL   C13326857   5.511   7.482   7.689  0.4535  0.4872  0.4652
  103MOL   O13426858   5.601   7.579   7.730  0.0406  0.7065 -0.6262
  103MOL   C13526859   5.556   7.658   7.839  0.0180 -0.4141  0.0956
  103MOL   C13626860   5.652   7.765   0.027 -0.1542  0.2038  0.8024
  103MOL   H13726861   5.667   7.427   7.560  0.0212  0.1389 -0.3078
  103MOL   H13826862   5.516   7.346   7.536 -2.3339  1.3187 -1.4653
  103MOL   H13926863   5.411   7.525   7.683  0.5691  0.6239 -0.5884
  103MOL   H14026864   5.549   7.590   0.081 -1.4475 -2.0820 -1.3270
  103MOL   H14126865   5.460   7.704   7.818  0.1986  0.0658  0.3097
  103MOL   H14226866   5.737   7.726   0.083  1.4492  0.1338 -1.6133
  103MOL   H14326867   5.679   7.815   7.778  0.2651 -0.7614  0.3954
  103MOL   H14426868   5.603   7.836   0.093 -1.0885  0.2523  0.0721
  103MOL   C14526869   5.501   7.362   7.787  0.2401 -0.5247  0.5618
  103MOL   C14626870   5.631   7.289   7.809 -0.1292  0.1533  0.3494
  103MOL   O14726871   5.656   7.202   7.699 -0.5118 -0.1493  0.3188
  103MOL   C14826872   5.800   7.177   7.676  0.5507  0.2614 -0.0800
  103MOL   C14926873   5.807   7.100   7.546  0.3392 -0.1804  0.0516
  103MOL   H15026874   5.423   7.292   7.758  0.4863 -0.5896  0.0463
  103MOL   H15126875   5.477   7.391   0.046 -1.8937  1.0907 -0.3380
  103MOL   H15226876   5.717   7.354   7.825 -0.7993  0.5652  2.5045
  103MOL   H15326877   5.831   7.109   7.756 -0.2644 -1.2287 -1.0017
  103MOL   H15426878   5.850   7.274   7.682  1.5989 -0.2245 -0.6780
  103MOL   H15526879   5.797   7.167   7.460  0.7825 -0.9447 -0.5952
  103MOL   H15626880   5.908   7.063   7.534  0.0360 -0.7890 -0.6491
  103MOL   H15726881   5.746   7.014   7.523  0.2166  0.1827 -0.9861
  103MOL   C15826882   5.607   7.197   0.086  0.0742  0.3916  0.2631
  103MOL   C15926883   5.655   7.264   0.217  0.8596  0.8748  0.5678
  103MOL   O16026884   5.754   7.185   0.287  0.3238  0.3873  0.9544
  103MOL   C16126885   5.892   7.224   0.262 -0.1328  0.4569 -0.1232
  103MOL   C16226886   5.973   7.144   0.356 -0.0386  0.1783  0.5244
  103MOL   H16326887   5.664   7.104   0.079  1.7453  1.5860 -2.6425
  103MOL   H16426888   5.502   7.167   0.088 -0.0491  0.8431  1.4448
  103MOL   H16526889   5.689   7.365   0.196  1.7062  0.7226  1.1908
  103MOL   H16626890   5.906   7.331   0.279 -0.0903  0.2818  0.9874
  103MOL   H16726891   5.916   7.203   0.158  1.0909 -0.1561  0.2743
  103MOL   H16826892   6.078   7.141   0.328 -0.9717 -0.3081 -3.1245
  103MOL   H16926893   5.963   7.165   0.463  3.2908 -0.5892  1.0320
  103MOL   H17026894   5.920   7.049   0.347 -1.4109  0.7888  1.9736
  103MOL   C17126895   5.538   7.279   0.315 -0.3339  0.0047 -0.1018
  103MOL   C17226896   5.573   7.366   0.442 -0.9913 -0.4667 -0.0022
  103MOL   O17326897   5.463   7.351   0.531  0.1891  0.0960  0.3152
  103MOL   C17426898   5.459   7.230   0.604  0.2042  0.1900 -0.0792
  103MOL   C17526899   5.339   7.245   0.702 -0.4097 -0.1053 -0.2544
  103MOL   H17626900   5.518   7.177   0.347  0.4611  0.8290  3.3121
  103MOL   H17726901   5.451   7.319   0.264 -0.0302 -1.3197 -1.6916
  103MOL   H17826902   5.664   7.319   0.478 -0.4865  0.5945  0.1322
  103MOL   H17926903   5.557   7.205   0.647  1.2547 -0.5203 -2.8308
  103MOL   H18026904   5.444   7.147   0.536  1.1136  1.0607 -1.3831
  103MOL   H18126905   5.249   7.247   0.640 -0.4405  0.1051 -0.2046
  103MOL   H18226906   5.341   7.160   0.770  1.1389 -2.1577 -2.8101
  103MOL   H18326907   5.340   7.333   0.766  0.0879  0.8325 -1.5224
  103MOL   C18426908   5.588   7.520   0.420 -0.7157  0.5901  0.3554
  103MOL   C18526909   5.669   7.589   0.527  0.5194 -0.4446 -0.3610
  103MOL   O18626910   5.666   7.728   0.500 -0.2656  0.8320 -0.2407
  103MOL   C18726911   5.553   7.801   0.550  0.3939 -0.4910  0.7062
  103MOL   C18826912   5.574   0.106   0.529 -0.1578  0.0081 -0.2389
  103MOL   H18926913   5.488   7.562   0.421 -0.1437  1.9675  0.5673
  103MOL   H19026914   5.632   7.538   0.322 -0.5120  2.1772  0.7354
  103MOL   H19126915   5.638   7.562   0.628  1.0679  1.6982  0.4047
  103MOL   H19226916   5.544   7.789   0.658 -0.7370  0.0732  0.6834
  103MOL   H19326917   5.457   7.776   0.503 -1.3285  1.5532  2.9828
  103MOL   H19426918   5.667   0.133   0.579  0.2454 -0.4374 -0.7470
  103MOL   H19526919   5.575   0.124   0.421 -0.2991 -1.0664 -0.4197
  103MOL   H19626920   5.492   0.162   0.575 -1.9547 -2.2097 -0.6657
  103MOL   C19726921   5.818   7.551   0.524  0.3058  0.0278 -0.2571
  103MOL   C19826922   5.909   7.602   0.638 -0.5721 -0.0913  0.3274
  103MOL   O19926923   6.040   7.562   0.607 -0.1570  0.6740 -0.8336
  103MOL   C20026924   6.112   7.648   0.524 -0.3579  0.2435 -0.1057
  103MOL   C20126925   6.245   7.592   0.469  0.0753 -0.0408 -0.0082
  103MOL   H20226926   5.861   7.567   0.425  2.2611 -2.7709  0.0710
  103MOL   H20326927   5.828   7.442   0.529  0.7449 -0.1521 -3.7347
  103MOL   H20426928   5.911   7.711   0.644  1.7775 -0.0204 -0.9289
  103MOL   H20526929   6.133   7.744   0.571  0.7517  0.0678 -0.2185
  103MOL   H20626930   6.051   7.670   0.436  0.6238  0.9150 -0.6359
  103MOL   H20726931   6.239   7.500   0.410 -0.8251 -1.1513  1.7498
  103MOL   H20826932   6.300   7.663   0.408 -0.0193  1.8848  2.1245
  103MOL   H20926933   6.314   7.569   0.550  0.8935  2.0583 -0.0879
  103MOL   C21026934   5.867   7.557   0.780 -0.2927  0.1008 -0.1151
  103MOL   C21126935   5.831   7.407   0.802 -0.9693 -0.0977 -0.1862
  103MOL   O21226936   5.786   7.386   0.936  0.6647  0.2585 -0.6600
  103MOL   C21326937   5.660   7.452   0.965 -0.6037  0.3769 -0.6636
  103MOL   C21426938   5.579   7.368   1.071 -0.5475 -0.2139  0.4405
  103MOL   H21526939   5.775   7.605   0.813  0.0929 -0.1098  1.3014
  103MOL   H21626940   5.941   7.589   0.854  2.1718 -0.2164 -2.3692
  103MOL   H21726941   5.748   7.374   0.739 -0.6402 -0.4915 -0.4193
  103MOL   H21826942   5.596   7.448   0.877  1.2687 -0.8023 -2.0049
  103MOL   H21926943   5.673   7.558   0.990  0.3007  0.1367 -0.1049
  103MOL   H22026944   5.562   7.267   1.034 -1.2875 -0.2029  0.7555
  103MOL   H22126945   5.637   7.373   1.163  1.1297  3.0071 -0.7154
  103MOL   H22226946   5.482   7.416   1.080 -0.8561 -0.8283  0.3946
  103MOL   C22326947   5.953   7.313   0.778 -0.3379  0.4195 -1.6105
  103MOL   C22426948   5.937   7.171   0.846 -0.6869 -0.2254  0.9390
  103MOL   O22526949   6.050   7.094   0.818  0.7773  0.0729  0.1595
  103MOL   C22626950   6.151   7.117   0.911 -0.2768  0.2976 -0.4302
  103MOL   C22726951   6.269   7.040   0.860  0.0865  0.4773 -0.3456
  103MOL   H22826952   6.044   7.355   0.822 -1.1316  1.7894 -1.2334
  103MOL   H22926953   5.969   7.312   0.670  1.8283 -0.8153 -1.2991
  103MOL   H23026954   5.925   7.184   0.954 -0.3772  1.1235  0.8241
  103MOL   H23126955   6.122   7.088   1.012 -1.0812  0.1591 -0.7015
  103MOL   H23226956   6.179   7.222   0.906 -0.8223  0.6058  2.1939
  103MOL   H23326957   6.238   6.936   0.872 -0.6861  0.7135 -0.2740
  103MOL   H23426958   6.283   7.067   0.756  2.0107  1.9814  0.2679
  103MOL   H23526959   6.356   7.069   0.920 -0.7883  1.7896  0.3097
  103MOL   C23626960   5.811   7.105   0.795  0.3294  0.2707  1.1304
  103MOL   C23726961   5.773   6.965   0.842 -0.9522 -0.4966 -0.1546
  103MOL   O23826962   5.654   6.921   0.783  0.7530  0.6700 -0.7528
  103MOL   C23926963   5.685   6.854   0.661 -0.3502 -0.0836 -0.3540
  103MOL   C24026964   5.558   6.781   0.623 -0.4479  0.1976  0.2087
  103MOL   H24126965   5.813   7.104   0.686 -1.3923  1.7800  1.0624
  103MOL   H24226966   5.721   7.164   0.809 -1.4582 -1.5670 -2.2093
  103MOL   H24326967   5.846   6.885   0.831 -1.5655 -0.8613 -1.7132
  103MOL   H24426968   5.757   6.772   0.656 -1.7534 -1.2948 -1.2566
  103MOL   H24526969   5.702   6.940   0.596  3.0064  1.3165  2.2180
  103MOL   H24626970   5.525   6.711   0.699 -1.0401 -0.6558 -0.8319
  103MOL   H24726971   5.473   6.848   0.616 -1.5729 -1.1818  0.5240
  103MOL   H24826972   5.590   6.731   0.532  0.4862  2.7177 -0.9182
  103MOL   C24926973   5.741   6.976   0.997  0.5445  0.4781 -0.0326
  103MOL   C25026974   5.711   6.834   1.058  0.1547  0.1518 -0.2667
  103MOL   O25126975   5.696   6.847   1.197  0.7053 -0.2597 -0.1929
  103MOL   C25226976   5.681   6.717   1.246  0.1867 -0.4951  0.2284
  103MOL   C25326977   5.712   6.727   1.396 -0.2766  0.0468 -0.0284
  103MOL   H25426978   5.671   7.056   1.022  0.1675 -1.0359  4.1801
  103MOL   H25526979   5.825   7.017   1.052  0.1868  0.7586  0.3069
  103MOL   H25626980   5.622   6.790   1.012  0.9095 -1.2367 -0.4372
  103MOL   H25726981   5.748   6.642   1.205 -0.8104 -0.9111 -0.6530
  103MOL   H25826982   5.578   6.684   1.237  0.3065 -1.0090  0.7430
  103MOL   H25926983   5.807   6.779   1.410 -1.1280  1.3428  1.1463
  103MOL   H26026984   5.637   6.794   1.437 -0.3453 -1.3613  2.2011
  103MOL   H26126985   5.705   6.626   1.435  3.1007 -0.8222 -1.5376
  103MOL   H26226986   5.798   6.781   1.019  1.3001  0.2333  2.1123
  104MOL     C126987   1.064   3.097   5.972  0.4045 -0.3271  0.2547
  104MOL     C226988   1.007   2.954   5.961  0.4112 -0.1376  0.6090
  104MOL     O326989   1.109   2.881   5.908  0.7032  0.2377  0.1781
  104MOL     C426990   1.107   2.740   5.923  0.4769 -0.7422  0.3867
  104MOL     C526991   1.208   2.657   5.846  0.7402 -0.0755  0.5398
  104MOL     H626992   1.130   3.114   5.886 -1.4167  1.6054 -0.8149
  104MOL     H726993   0.994   3.179   5.991  0.1220 -0.4057 -0.3996
  104MOL     H826994   1.005   2.921   6.064  0.6678  0.1960  0.7234
  104MOL     H926995   1.010   2.695   5.902  0.6295 -0.4009 -1.1393
  104MOL    H1026996   1.123   2.722   6.029 -1.1270  0.7327  0.9139
  104MOL    H1126997   1.298   2.634   5.903  2.7112  0.6428 -2.1938
  104MOL    H1226998   1.163   2.561   5.822  0.1756 -0.0268  1.3896
  104MOL    H1326999   1.245   2.703   5.754 -2.4232  0.1036 -0.7064
  104MOL    H1427000   1.125   3.102   6.062 -0.5933  1.1274  0.8801
  104MOL    C1527001   0.880   2.937   5.886 -0.1754 -0.7435 -0.1294
  104MOL    C1627002   0.763   3.000   5.953 -0.1686  0.1764  0.4940
  104MOL    O1727003   0.742   2.962   6.092  0.2695  0.3902  0.2610
  104MOL    C1827004   0.786   3.053   6.189 -0.2681  0.4918  1.0815
  104MOL    C1927005   0.763   2.987   6.330 -0.3199 -0.7284 -0.4433
  104MOL    H2027006   0.857   2.830   5.882 -1.5190 -0.4734 -0.0588
  104MOL    H2127007   0.892   2.976   5.785 -0.3284 -0.4564 -0.0371
  104MOL    H2227008   0.779   3.108   5.950  1.8695 -0.1295 -0.1552
  104MOL    H2327009   0.737   3.150   6.191  0.8994  1.1209 -0.0077
  104MOL    H2427010   0.893   3.076   6.185  0.2794 -1.6175  2.7906
  104MOL    H2527011   0.805   2.888   6.344  1.2349  0.1187  1.0799
  104MOL    H2627012   0.655   2.984   6.348  0.0873 -0.9801  2.0901
  104MOL    H2727013   0.802   3.042   6.416 -2.4191  1.3373 -0.7545
  104MOL    C2827014   0.640   2.957   5.877 -0.3344  0.2642 -0.1440
  104MOL    C2927015   0.513   3.035   5.899 -0.4626  0.2148 -0.0938
  104MOL    O3027016   0.463   3.016   6.027 -0.1867  0.4228 -0.0237
  104MOL    C3127017   0.396   3.124   6.080 -0.3816 -0.0738  0.0095
  104MOL    C3227018   0.476   3.223   6.161 -0.1290 -0.1496  0.1743
  104MOL    H3327019   0.621   2.851   5.891 -0.4020  0.1395 -1.1265
  104MOL    H3427020   0.665   2.957   5.771 -2.2885 -1.2012 -0.6240
  104MOL    H3527021   0.535   3.140   5.880 -0.5051  0.9428  3.5350
  104MOL    H3627022   0.315   3.093   6.146  0.6494  1.4093  2.0249
  104MOL    H3727023   0.335   3.165   5.999 -1.3745 -1.4026  0.0642
  104MOL    H3827024   0.530   3.170   6.239 -0.3942  0.5845  0.8621
  104MOL    H3927025   0.553   3.268   6.098  1.0079 -0.1722  1.5118
  104MOL    H4027026   0.416   3.305   6.200 -2.0407 -0.7498 -1.4341
  104MOL    C4127027   0.402   2.980   5.802  0.4672  0.0062  1.1665
  104MOL    C4227028   0.410   3.031   5.656 -0.3674  0.2000  0.0047
  104MOL    O4327029   0.426   3.174   5.671  0.5685  0.4626  0.2836
  104MOL    C4427030   0.471   3.236   5.548 -0.2241  0.4940 -0.2597
  104MOL    C4527031   0.458   3.390   5.575 -0.6788 -0.1632 -0.0720
  104MOL    H4627032   0.305   3.009   5.842 -0.2330 -2.6725  1.5542
  104MOL    H4727033   0.396   2.871   5.806 -0.6204  0.0794  1.7805
  104MOL    H4827034   0.499   2.993   5.605 -0.6818 -1.0619  0.3882
  104MOL    H4927035   0.420   3.219   5.454  1.6385 -0.7188 -1.0727
  104MOL    H5027036   0.578   3.218   5.544 -0.7303 -2.0627 -4.4808
  104MOL    H5127037   0.355   3.418   5.596 -1.1829  0.3264 -2.8971
  104MOL    H5227038   0.520   3.400   5.664  0.1530  2.0770 -0.8576
  104MOL    H5327039   0.499   3.455   5.497 -0.4551  0.5744  0.6612
  104MOL    C5427040   0.278   2.997   5.586  0.3867 -0.6132 -0.6651
  104MOL    C5527041   0.258   2.849   5.557  0.9602  0.3863  0.2487
  104MOL    O5627042   0.380   2.803   5.488  0.2044 -0.1816 -0.0915
  104MOL    C5727043   0.450   2.690   5.532 -0.5701 -0.6426  0.7333
  104MOL    C5827044   0.531   2.626   5.420 -0.5299  0.1535 -0.2571
  104MOL    H5927045   0.268   3.061   5.498  1.6726  0.9804  0.3204
  104MOL    H6027046   0.199   3.034   5.652  1.1474 -0.1591 -0.0009
  104MOL    H6127047   0.250   2.788   5.647 -1.0181 -0.1768 -0.2796
  104MOL    H6227048   0.378   2.615   5.568 -0.3336 -1.1767  0.1056
  104MOL    H6327049   0.507   2.698   5.624  0.3430 -1.6850  0.2674
  104MOL    H6427050   0.634   2.660   5.413  0.4026 -2.5335 -0.2724
  104MOL    H6527051   0.563   2.522   5.433  1.4929  0.7165 -0.5865
  104MOL    H6627052   0.487   2.644   5.322  0.1594  0.4853 -0.5040
  104MOL    C6727053   0.131   2.841   5.473 -0.7686  0.3238  0.3769
  104MOL    C6827054   0.084   2.698   5.440  0.0275  0.9721  0.7102
  104MOL    O6927055   7.824   2.686   5.346  0.3462  0.5423  0.1125
  104MOL    C7027056   7.842   2.731   5.210 -0.5499  0.1722 -0.1992
  104MOL    C7127057   7.722   2.684   5.132  0.3557 -0.1240  0.0011
  104MOL    H7227058   0.143   2.899   5.381 -1.0496  1.3623  0.9851
  104MOL    H7327059   0.058   2.897   5.532  1.3766  2.7468  0.8287
  104MOL    H7427060   0.163   2.643   5.390 -1.5963  1.2080 -2.2428
  104MOL    H7527061   0.090   2.707   5.156 -0.5327 -0.6388  0.1854
  104MOL    H7627062   7.835   2.840   5.212 -1.0434  0.1281  0.8490
  104MOL    H7727063   7.691   2.583   5.161 -0.7523  0.3839  0.6347
  104MOL    H7827064   7.636   2.749   5.152  0.7486 -0.0082  1.3074
  104MOL    H7927065   7.739   2.694   5.025  0.2821  0.1717  0.0175
  104MOL    C8027066   0.039   2.623   5.563  0.4330 -0.3824 -0.0860
  104MOL    C8127067   7.826   2.481   5.544 -0.4493 -0.3066 -0.1439
  104MOL    O8227068   7.759   2.458   5.665 -0.0686 -0.1989 -0.2322
  104MOL    C8327069   7.621   2.450   5.650  0.3517 -0.2866 -0.5345
  104MOL    C8427070   7.556   2.591   5.645  0.0479  0.0183  0.5929
  104MOL    H8527071   7.796   2.682   5.593  1.6164  1.6617 -0.6103
  104MOL    H8627072   0.118   2.632   5.638  1.3337 -0.5698 -0.9999
  104MOL    H8727073   7.753   2.468   5.465 -1.5051 -1.1075  0.9437
  104MOL    H8827074   7.598   2.409   5.748  0.8211  0.6260 -0.0353
  104MOL    H8927075   7.592   2.374   5.577 -0.5712  0.5221 -1.0213
  104MOL    H9027076   7.575   2.650   5.555 -2.3448  0.6903  0.4867
  104MOL    H9127077   7.448   2.580   5.636 -0.1920  0.9061  2.1762
  104MOL    H9227078   7.577   2.653   5.732 -1.7343  0.1520  0.9503
  104MOL    C9327079   0.097   2.382   5.530  0.5373 -0.6148 -0.0892
  104MOL    C9427080   0.096   2.301   5.396  0.1701 -0.2587 -0.3509
  104MOL    O9527081   0.143   2.170   5.429 -0.6047  0.4250  0.2498
  104MOL    C9627082   0.051   2.061   5.451  0.8638 -0.2124 -0.3243
  104MOL    C9727083   0.116   1.923   5.476 -0.6625  0.1836 -0.5886
  104MOL    H9827084   0.080   2.310   5.610 -0.0934 -1.0255 -0.5846
  104MOL    H9927085   0.192   2.434   5.535  0.9670 -1.4387  0.5414
  104MOL   H10027086   7.833   2.293   5.372 -0.0012 -3.9570  1.2680
  104MOL   H10127087   7.822   2.043   5.371  0.6751  3.7401 -1.1306
  104MOL   H10227088   7.827   2.081   5.533  1.2138  0.9906 -0.3208
  104MOL   H10327089   0.159   1.912   5.575 -0.0437  0.3690 -0.8313
  104MOL   H10427090   0.035   1.850   5.472 -1.2058  0.6609  1.5164
  104MOL   H10527091   0.195   1.889   5.407  0.2959 -0.7346  0.9279
  104MOL   C10627092   0.175   2.376   5.284  0.0510  0.0090 -0.1506
  104MOL   C10727093   0.158   2.318   5.140  0.0159 -0.4184 -0.2330
  104MOL   O10827094   0.210   2.419   5.047 -0.2088 -0.1103  0.1455
  104MOL   C10927095   0.349   2.414   5.013 -0.4768  0.0672  0.9106
  104MOL   C11027096   0.404   2.541   4.946 -0.1453 -0.1617  0.2347
  104MOL   H11127097   0.279   2.396   5.310  0.0624  0.9409 -0.8708
  104MOL   H11227098   0.134   2.477   5.278  1.3881  0.7036  1.9845
  104MOL   H11327099   0.220   2.229   5.131  0.0224 -0.4612  0.2666
  104MOL   H11427100   0.372   2.328   4.951 -1.8029  0.7838 -0.5893
  104MOL   H11527101   0.408   2.404   5.105  1.3867 -1.5193 -0.4142
  104MOL   H11627102   0.501   2.520   4.901 -0.2151  2.5059 -1.2555
  104MOL   H11727103   0.333   2.549   4.863  0.4615 -1.8165 -0.4603
  104MOL   H11827104   0.395   2.642   4.984  2.5721  0.6799 -1.1895
  104MOL   C11927105   0.022   2.272   5.101 -0.5277  0.3984  0.2329
  104MOL   C12027106   0.003   2.251   4.947 -1.0908 -0.0723 -0.1625
  104MOL   O12127107   7.714   2.207   4.948  0.6319 -0.1339 -0.1044
  104MOL   C12227108   7.628   2.267   4.853 -0.3335  0.2904  0.5111
  104MOL   C12327109   7.554   2.381   4.918  0.1671  0.6345  0.2532
  104MOL   H12427110   7.810   2.360   5.133 -0.2004  0.4681  0.6074
  104MOL   H12527111   7.837   2.181   5.153  0.0170 -0.5179 -1.0267
  104MOL   H12627112   0.004   2.346   4.893 -1.5485 -0.6689 -1.2088
  104MOL   H12727113   7.560   2.187   4.826 -0.6925  0.3798  1.1585
  104MOL   H12827114   7.683   2.304   4.766  0.7479  1.1367  1.5342
  104MOL   H12927115   7.465   2.408   4.862 -0.9374  2.6560  2.8665
  104MOL   H13027116   7.514   2.358   5.017 -3.2129 -0.8285 -1.3694
  104MOL   H13127117   7.613   2.473   4.915  1.0553  0.0278 -2.2680
  104MOL   C13227118   0.094   2.140   4.877 -0.4115 -0.7853  0.3994
  104MOL   C13327119   0.074   2.129   4.715 -0.2798 -0.5806  0.0972
  104MOL   O13427120   0.163   2.028   4.666 -0.2315  0.7485  0.6977
  104MOL   C13527121   0.105   1.900   4.669 -0.1432  0.0583 -0.1833
  104MOL   C13627122   0.208   1.791   4.677  0.3576  0.1998  0.4692
  104MOL   H13727123   0.054   2.046   4.915 -1.4616 -0.9170 -0.9893
  104MOL   H13827124   0.199   2.153   4.904 -0.4816 -0.8023  0.6770
  104MOL   H13927125   7.814   2.119   4.685 -0.1933 -2.2562  0.3251
  104MOL   H14027126   0.038   1.883   4.585 -1.3421 -1.2701  0.9936
  104MOL   H14127127   0.051   1.900   4.764  1.0295  0.1415  0.4918
  104MOL   H14227128   0.151   1.699   4.667  0.0403  0.3649  0.7566
  104MOL   H14327129   0.293   1.785   4.609  0.1299 -0.6851  0.2565
  104MOL   H14427130   0.254   1.786   4.775  1.3533 -1.0267 -0.0382
  104MOL   C14527131   0.125   2.265   4.650 -0.0193 -0.7054 -0.1034
  104MOL   C14627132   0.110   2.280   4.492 -0.0401 -0.4815  0.0518
  104MOL   O14727133   0.146   2.414   4.452 -0.3113  0.1460  0.1005
  104MOL   C14827134   0.288   2.446   4.460  0.1215 -0.2240  0.0707
  104MOL   C14927135   0.291   2.601   4.467 -0.2780 -0.2280 -1.2215
  104MOL   H15027136   0.232   2.274   4.667 -0.0307 -3.0365  1.4988
  104MOL   H15127137   0.083   2.352   4.700  2.4438 -0.2284  1.2232
  104MOL   H15227138   0.168   2.199   4.448 -1.4638 -1.8405  0.6385
  104MOL   H15327139   0.327   2.407   4.367 -0.3327  0.0815 -0.2479
  104MOL   H15427140   0.341   2.391   4.538  0.3909  0.3705  0.3129
  104MOL   H15527141   0.249   2.642   4.375 -0.0835  0.4664 -1.0023
  104MOL   H15627142   0.246   2.638   4.558  0.3692  1.0533 -1.4162
  104MOL   H15727143   0.398   2.623   4.459  0.2254 -1.9231  0.5188
  104MOL   C15827144   7.800   2.266   4.449 -1.1783 -0.0716 -0.4191
  104MOL   C15927145   7.761   2.130   4.384  0.1577  0.2346  0.0138
  104MOL   O16027146   0.001   2.092   4.268  1.0569  0.1279  0.3328
  104MOL   C16127147   0.031   2.178   4.160 -0.1041  0.0679  0.0275
  104MOL   C16227148   0.132   2.100   4.080  0.2849  0.2276  0.1742
  104MOL   H16327149   7.777   2.349   4.382  0.3659  0.5891 -0.1516
  104MOL   H16427150   7.747   2.290   4.541  3.1917  1.9279  1.7186
  104MOL   H16527151   7.776   2.051   4.458  0.7661 -0.7608 -1.1566
  104MOL   H16627152   0.071   2.272   4.198 -0.4141  0.5157 -0.7479
  104MOL   H16727153   7.788   2.202   4.098 -1.0009 -0.6706  0.9832
  104MOL   H16827154   0.102   1.999   4.054 -1.1906  0.4978  0.7548
  104MOL   H16927155   0.165   2.151   3.990  1.4594  1.8974  1.5057
  104MOL   H17027156   0.221   2.086   4.142  0.0618 -1.6406  0.1069
  104MOL   C17127157   7.606   2.138   4.340 -0.7508 -0.0372 -0.2007
  104MOL   C17227158   7.508   2.177   4.453 -1.0465 -0.1141  0.9152
  104MOL   O17327159   7.521   2.089   4.560  0.4281 -0.3795 -0.1612
  104MOL   C17427160   7.505   1.953   4.555  0.3560 -0.2709  0.2960
  104MOL   C17527161   7.522   1.889   4.694  0.0610 -0.1789 -0.4458
  104MOL   H17627162   7.578   2.048   4.286  0.4321 -0.9875  0.7381
  104MOL   H17727163   7.608   2.218   4.266  0.1066  1.6540  1.6003
  104MOL   H17827164   7.528   2.281   4.479 -0.9587 -0.2811  1.5182
  104MOL   H17927165   7.591   1.918   4.499  1.1149 -1.6416  2.2282
  104MOL   H18027166   7.414   1.924   4.503 -0.4669  1.2290  0.8486
  104MOL   H18127167   7.618   1.927   4.728  0.2774 -0.6584 -0.5290
  104MOL   H18227168   7.448   1.910   4.772  1.5636  1.8472  0.4738
  104MOL   H18327169   7.527   1.780   4.695 -0.0535 -0.1796  0.3659
  104MOL   C18427170   7.360   2.183   4.404  0.2562  0.8072  0.2269
  104MOL   C18527171   7.262   2.244   4.502  0.0031  0.4862  0.0438
  104MOL   O18627172   7.136   2.179   4.470 -0.2754  0.0917 -0.0611
  104MOL   C18727173   7.098   2.084   4.564  0.4105 -0.3450 -0.1852
  104MOL   C18827174   6.961   2.040   4.530 -0.2847 -0.0447 -0.5970
  104MOL   H18927175   7.335   2.078   4.389  0.7511  0.8722 -1.2234
  104MOL   H19027176   7.347   2.225   4.303 -2.3550 -0.7775 -0.1398
  104MOL   H19127177   7.297   2.243   4.606 -0.2339  1.1767  0.1317
  104MOL   H19227178   7.101   2.118   4.667 -0.4795 -1.3728  0.1897
  104MOL   H19327179   7.169   2.003   4.559 -1.2351 -1.7155 -3.1057
  104MOL   H19427180   6.918   1.963   4.593 -0.9689  0.4834 -0.4031
  104MOL   H19527181   6.887   2.120   4.531  0.1363  0.3617  3.3560
  104MOL   H19627182   6.940   2.000   4.431  2.2670 -0.2925 -1.0586
  104MOL   C19727183   7.243   2.391   4.476 -0.1996 -0.6804 -0.2784
  104MOL   C19827184   7.144   2.450   4.587  0.1603  0.3635 -0.0799
  104MOL   O19927185   7.082   2.572   4.541 -0.3929 -0.1008  0.0711
  104MOL   C20027186   6.989   2.562   4.433 -1.4522 -0.6082 -0.6202
  104MOL   C20127187   6.853   2.559   4.496  0.0200  0.1438  0.2138
  104MOL   H20227188   7.213   2.422   4.376 -2.0562  0.3826  0.5901
  104MOL   H20327189   7.342   2.437   4.488 -0.0119 -0.8702 -1.0074
  104MOL   H20427190   7.066   2.378   4.612  0.2272  0.4990  0.5336
  104MOL   H20527191   7.020   2.486   4.361  1.1773  0.3966 -0.6082
  104MOL   H20627192   7.001   2.659   4.386 -2.0721 -0.6540 -0.8770
  104MOL   H20727193   6.778   2.576   4.419 -0.3467  3.2404  1.1984
  104MOL   H20827194   6.831   2.462   4.541 -0.4625 -0.2035 -0.7473
  104MOL   H20927195   6.838   2.642   4.565 -2.6439 -1.8111  2.0513
  104MOL   C21027196   7.200   2.471   4.729 -0.0691 -0.0883  0.3145
  104MOL   C21127197   7.119   2.546   4.832 -0.2027 -0.3579 -0.2851
  104MOL   O21227198   7.217   2.598   4.927 -0.4528 -0.2612 -0.3507
  104MOL   C21327199   7.168   2.689   5.032 -0.1330 -0.4066 -0.4865
  104MOL   C21427200   7.296   2.741   5.106  0.7941 -0.1059 -0.0610
  104MOL   H21527201   7.291   2.528   4.710 -0.0617 -0.5052 -0.8837
  104MOL   H21627202   7.224   2.378   4.781  1.8239  0.3462  0.2402
  104MOL   H21727203   7.056   2.625   4.792 -0.1092 -0.6258 -0.9645
  104MOL   H21827204   7.093   2.637   5.093 -0.9924 -1.0876 -2.0856
  104MOL   H21927205   7.129   2.771   4.972 -0.0478 -0.5355 -0.7184
  104MOL   H22027206   7.342   2.662   5.164 -1.0404  0.2152  1.8998
  104MOL   H22127207   7.360   2.776   5.025 -0.1565  0.2518 -0.6681
  104MOL   H22227208   7.270   2.823   5.174  1.2621  0.8455 -1.0087
  104MOL   C22327209   7.020   2.443   4.901  0.5281 -0.0650 -0.6500
  104MOL   C22427210   7.064   2.350   5.016 -0.5818  0.2948  0.0285
  104MOL   O22527211   7.114   2.224   4.957 -0.2135 -0.1442 -0.2171
  104MOL   C22627212   7.227   2.163   5.025 -0.1372 -0.0588  0.1572
  104MOL   C22727213   7.250   2.036   4.941  0.9389  0.4080  0.2808
  104MOL   H22827214   6.963   2.401   4.818 -0.1453 -1.5075  0.5338
  104MOL   H22927215   6.941   2.507   4.940 -1.6560 -1.7593 -2.1887
  104MOL   H23027216   7.145   2.397   5.073  0.6298  0.0231 -1.4196
  104MOL   H23127217   7.216   2.150   5.133  3.2020 -1.1952  0.4347
  104MOL   H23227218   7.314   2.229   5.024 -0.2733  0.2373  3.2512
  104MOL   H23327219   7.274   2.064   4.839 -1.0935 -0.4407 -0.4504
  104MOL   H23427220   7.330   1.970   4.973 -1.2701 -3.0986 -1.1885
  104MOL   H23527221   7.159   1.976   4.941  1.1645  0.0338 -1.7866
  104MOL   C23627222   6.942   2.319   5.110 -0.3492  0.2255  0.3639
  104MOL   C23727223   6.824   2.239   5.055 -0.4150 -0.0834  0.7765
  104MOL   O23827224   6.746   2.187   5.162 -0.3190  0.9816 -0.4919
  104MOL   C23927225   6.672   2.274   5.241  0.0777  0.3209  0.4085
  104MOL   C24027226   6.581   2.204   5.338  0.0005 -0.3651  0.3633
  104MOL   H24127227   6.898   2.405   5.159 -3.1295 -0.2313 -1.2310
  104MOL   H24227228   6.985   2.248   5.181  1.0764  0.2076 -0.4961
  104MOL   H24327229   6.767   2.305   4.988  2.3317  0.8615 -0.7034
  104MOL   H24427230   6.612   2.335   5.172  0.0601 -0.7218 -0.5079
  104MOL   H24527231   6.731   2.354   5.286  0.3389  0.6505 -0.5060
  104MOL   H24627232   6.526   2.120   5.296  0.2999  0.3370 -1.4522
  104MOL   H24727233   6.635   2.179   5.430 -1.1167  1.3294  1.5104
  104MOL   H24827234   6.519   2.286   5.375  2.4989  0.1105  3.8343
  104MOL   C24927235   6.859   2.113   4.965 -0.3639 -0.0084  0.0146
  104MOL   C25027236   6.735   2.020   4.949  0.0217  0.2456  0.7312
  104MOL   O25127237   6.618   2.091   4.904 -0.5899 -0.4214  0.7420
  104MOL   C25227238   6.491   2.033   4.913  0.8268  0.2204 -0.4208
  104MOL   C25327239   6.406   2.082   5.035 -0.1040  0.1471  0.1388
  104MOL   H25427240   6.943   2.062   5.011  0.4578  0.1530 -1.2752
  104MOL   H25527241   6.898   2.131   4.864  0.1820  0.2154  0.2611
  104MOL   H25627242   6.760   1.939   4.880  1.8255  0.3732  1.1933
  104MOL   H25727243   6.493   1.925   4.923 -0.4256  0.2529  0.3431
  104MOL   H25827244   6.430   2.059   4.827 -1.1581 -1.1158  0.5545
  104MOL   H25927245   6.464   2.035   5.115  1.4844 -0.6520 -1.4618
  104MOL   H26027246   6.395   2.191   5.037  1.7876  0.3472  2.8684
  104MOL   H26127247   6.303   2.047   5.024  0.9378 -2.8168 -0.4125
  104MOL   H26227248   6.710   1.971   5.043 -0.0882 -0.6356  0.2470
  105MOL     C127249   7.244   0.011   6.068 -0.4565 -0.2351  0.4630
  105MOL     C227250   7.267   7.822   5.924  0.3909 -0.0077  0.1655
  105MOL     O327251   7.147   7.812   5.853  0.1588  1.0761 -0.0449
  105MOL     C427252   7.103   0.080   5.775  0.2502  0.0713 -0.5131
  105MOL     C527253   7.034   0.041   5.648 -0.2234  0.6609  0.5066
  105MOL     H627254   7.213   7.767   6.126 -0.4686 -0.2712  0.4028
  105MOL     H727255   7.339   0.041   6.112 -0.9848  1.9754  0.1508
  105MOL     H827256   7.327   0.061   5.887 -0.5764 -0.1873 -1.8870
  105MOL     H927257   7.179   0.157   5.769  1.6494 -1.1912  0.7098
  105MOL    H1027258   7.028   0.134   5.832  0.3055  2.2287 -2.4219
  105MOL    H1127259   7.092   7.807   5.597 -0.0729  1.4651 -0.5686
  105MOL    H1227260   6.952   7.828   5.692  1.6576 -2.1787  0.4939
  105MOL    H1327261   6.992   0.125   5.593 -0.9003  0.7330  1.1337
  105MOL    H1427262   7.165   0.086   6.074 -0.6514 -0.6036  3.3819
  105MOL    C1527263   7.339   7.691   5.899 -0.3996  0.3620 -0.0006
  105MOL    C1627264   7.346   7.652   5.752 -0.9579  0.5626 -0.5694
  105MOL    O1727265   7.341   7.514   5.744  0.0349 -0.7132  0.1712
  105MOL    C1827266   7.218   7.454   5.700  0.0955 -0.1573  0.6747
  105MOL    C1927267   7.199   7.475   5.550 -0.6172 -0.4570 -0.2235
  105MOL    H2027268   7.287   7.618   5.961 -1.2399  0.5514 -0.4780
  105MOL    H2127269   7.440   7.690   5.939  0.3719  1.1371 -1.8718
  105MOL    H2227270   7.273   7.706   5.693 -0.3685  2.3600  0.2999
  105MOL    H2327271   7.144   7.505   5.762 -1.3984 -0.9066 -0.4642
  105MOL    H2427272   7.214   7.351   5.737 -1.1813 -0.5282 -0.4705
  105MOL    H2527273   7.279   7.438   5.486 -0.1521 -1.7806  1.1058
  105MOL    H2627274   7.170   7.578   5.525 -0.2563 -0.0854  0.8838
  105MOL    H2727275   7.110   7.420   5.517  0.2020 -1.5932 -0.5596
  105MOL    C2827276   7.481   7.694   5.684 -0.1263  0.6350 -0.4472
  105MOL    C2927277   7.502   7.835   5.636  0.0468 -0.0733  0.3856
  105MOL    O3027278   7.498   0.085   5.743 -0.4935 -0.2096 -0.0819
  105MOL    C3127279   7.599   0.077   5.829  0.6310  0.4462 -0.1232
  105MOL    C3227280   7.604   0.188   5.918 -0.6179 -0.2393 -0.3465
  105MOL    H3327281   7.495   7.637   5.592 -1.0086  0.3270 -0.3940
  105MOL    H3427282   7.563   7.659   5.746  0.3639 -0.0202 -1.4410
  105MOL    H3527283   7.605   7.841   5.600 -0.0034  0.4391  0.3226
  105MOL    H3627284   7.693   0.087   5.775  0.6810  2.5786  0.2816
  105MOL    H3727285   7.591   7.829   5.886  0.1150  1.6594  1.8010
  105MOL    H3827286   7.518   0.184   5.984 -0.2001 -1.3915  0.1484
  105MOL    H3927287   7.691   0.176   5.983 -0.6867 -0.9375 -0.3789
  105MOL    H4027288   7.599   0.284   5.866  1.9734 -0.5462 -1.2376
  105MOL    C4127289   7.402   0.032   5.526 -0.2798 -0.2431 -0.1386
  105MOL    C4227290   7.453   0.147   5.434  0.4611  0.0103 -0.4496
  105MOL    O4327291   7.353   0.207   5.346  0.7830  0.0245  0.0172
  105MOL    C4427292   7.241   0.251   5.407  0.5102  0.4013 -0.4595
  105MOL    C4527293   7.174   0.353   5.318 -0.4681  0.1971  0.4652
  105MOL    H4627294   7.306   0.053   5.574  0.1317 -0.4598  0.7806
  105MOL    H4727295   7.378   7.797   5.454 -1.4365 -0.2206  0.2046
  105MOL    H4827296   7.480   0.231   5.498  0.0381 -0.8241  0.8323
  105MOL    H4927297   7.277   0.302   5.496  1.3835 -1.0430  0.0168
  105MOL    H5027298   7.176   0.168   5.434 -0.1869  1.4021  1.0255
  105MOL    H5127299   7.250   0.423   5.286 -2.0542  1.7967  0.1086
  105MOL    H5227300   7.135   0.305   5.228 -0.1783 -0.8330  0.8729
  105MOL    H5327301   7.095   0.404   5.373 -0.6043  0.6614 -0.1551
  105MOL    C5427302   7.578   0.116   5.352 -1.6315  0.0705  0.1364
  105MOL    C5527303   7.572   0.004   5.244  0.1009 -0.3974  0.2577
  105MOL    O5627304   7.586   7.724   5.308 -0.5791 -0.3255  0.5633
  105MOL    C5727305   7.532   7.604   5.254 -0.7039  0.4661 -0.0092
  105MOL    C5827306   7.569   7.493   5.349 -0.0679 -0.3866  0.2133
  105MOL    H5927307   7.657   0.105   5.427 -0.4552  1.3228 -0.8684
  105MOL    H6027308   7.611   0.207   5.300  1.3417 -0.6936  0.5946
  105MOL    H6127309   7.470   0.021   5.208 -0.3182 -0.8244  1.2382
  105MOL    H6227310   7.572   7.581   5.156 -0.7799  0.4856 -0.0448
  105MOL    H6327311   7.423   7.614   5.256 -0.8968 -1.4068  0.9695
  105MOL    H6427312   7.523   7.397   5.325  0.0165 -0.3646 -0.0269
  105MOL    H6527313   7.677   7.482   5.358 -0.4250 -4.4628  0.4894
  105MOL    H6627314   7.536   7.503   5.453  2.8067 -0.4699  1.1843
  105MOL    C6727315   7.669   0.013   5.128  0.0673 -0.1017  0.3531
  105MOL    C6827316   7.822   0.001   5.155 -0.1930  0.1152  0.5409
  105MOL    O6927317   0.025   0.107   5.242  0.4127 -0.1899 -0.2846
  105MOL    C7027318   0.085   0.058   5.355  0.4108 -0.3703  0.2161
  105MOL    C7127319   0.130   0.169   5.448 -0.0857 -0.1318  0.6307
  105MOL    H7227320   7.642   0.109   5.085  0.6438 -0.4224 -0.7352
  105MOL    H7327321   7.643   7.785   5.051 -1.7483 -0.9649  1.7329
  105MOL    H7427322   7.835   7.752   5.213  0.6750  1.0209  1.8372
  105MOL    H7527323   0.170   0.002   5.315  0.2964  0.1579 -0.7967
  105MOL    H7627324   0.023   7.836   5.415 -0.1038  1.1195  1.3644
  105MOL    H7727325   0.038   0.215   5.484 -0.0651 -0.2586  0.8479
  105MOL    H7827326   0.192   0.123   5.525  0.0538 -1.9224 -0.5214
  105MOL    H7927327   0.180   0.245   5.387 -0.4857 -0.1338  0.2992
  105MOL    C8027328   0.055   0.020   5.027 -0.3479 -0.1582 -0.2814
  105MOL    C8127329   0.078   7.734   4.946  0.4963 -0.3194  0.1494
  105MOL    O8227330   0.200   7.668   4.952 -0.1660  0.1534  0.3726
  105MOL    C8327331   0.265   7.652   5.075  0.8097 -0.8031  0.2517
  105MOL    C8427332   0.392   7.577   5.061  1.1372  0.1127  0.5600
  105MOL    H8527333   0.156   0.047   5.055  0.3438 -1.8811 -1.0459
  105MOL    H8627334   0.030   0.107   4.966 -1.2532 -1.1465 -1.3450
  105MOL    H8727335   0.001   7.662   4.975  0.3461 -1.9250 -3.8529
  105MOL    H8827336   0.193   7.606   5.144  0.0567  1.1666  0.8206
  105MOL    H8927337   0.292   7.751   5.112 -1.2063 -0.4473  0.8232
  105MOL    H9027338   0.459   7.634   4.996  1.2966 -1.4694 -0.6941
  105MOL    H9127339   0.453   7.567   5.151  1.3601 -1.7007  0.2378
  105MOL    H9227340   0.351   7.482   5.027 -0.2098  1.5998 -2.1035
  105MOL    C9327341   0.048   7.754   4.796  0.2834 -0.1588  0.6856
  105MOL    C9427342   7.785   7.656   4.740 -0.2140  0.6030  0.5058
  105MOL    O9527343   7.664   7.690   4.801 -0.6246 -0.2363  0.3996
  105MOL    C9627344   7.553   7.694   4.714 -0.3974 -0.3818  0.0506
  105MOL    C9727345   7.438   7.763   4.790 -0.1789 -0.7462  0.1333
  105MOL    H9827346   0.139   7.738   4.737 -0.1819 -1.6891  0.3693
  105MOL    H9927347   0.006   0.010   4.780 -1.2732 -0.8427  0.4685
  105MOL   H10027348   7.778   7.671   4.632  0.0997  0.0829  0.4094
  105MOL   H10127349   7.516   7.594   4.690  0.0490 -0.8316  1.2241
  105MOL   H10227350   7.571   7.759   4.629  0.6138  0.2035  0.7013
  105MOL   H10327351   7.474   0.005   4.847 -2.0627  1.4533 -1.8690
  105MOL   H10427352   7.367   7.804   4.719 -0.6888  1.9384  2.1015
  105MOL   H10527353   7.386   7.700   4.863 -0.2574 -0.6025  0.2019
  105MOL   C10627354   7.818   7.507   4.749 -0.1117  0.3500  0.1602
  105MOL   C10727355   0.104   7.459   4.673  0.5820 -0.6679  0.3070
  105MOL   O10827356   0.061   7.474   4.535  0.4409  0.5358  0.5146
  105MOL   C10927357   0.154   7.504   4.440  0.1611  0.6251  0.5026
  105MOL   C11027358   0.096   7.494   4.301  0.0095  0.3006 -0.0457
  105MOL   H11127359   7.733   7.452   4.709 -1.2674 -0.3872  3.4159
  105MOL   H11227360   7.822   7.482   4.855 -0.7813  2.1000  0.6266
  105MOL   H11327361   0.187   7.527   4.691  0.2629 -1.0327  3.3124
  105MOL   H11427362   0.245   7.447   4.455  0.0457 -0.4507 -2.4980
  105MOL   H11527363   0.185   7.607   4.459  2.3365 -0.0362  0.6159
  105MOL   H11627364   0.059   7.394   4.275  0.0813  0.6880 -1.6994
  105MOL   H11727365   0.016   7.566   4.282 -1.8344 -1.7957 -0.5023
  105MOL   H11827366   0.179   7.527   4.240  0.7823 -2.7376 -0.7321
  105MOL   C11927367   0.146   7.315   4.708  0.2216  0.1891 -0.8143
  105MOL   C12027368   0.234   7.297   4.838  0.4683  0.4733 -0.8058
  105MOL   O12127369   0.369   7.337   4.815  0.0543 -0.1012 -0.1184
  105MOL   C12227370   0.456   7.237   4.761 -0.4202 -0.2979 -0.2197
  105MOL   C12327371   0.569   7.327   4.708  0.1526 -0.1656  0.1957
  105MOL   H12427372   0.205   7.283   4.622 -0.1091 -0.1470 -0.9199
  105MOL   H12527373   0.060   7.253   4.734  2.0925 -1.6366  1.2953
  105MOL   H12627374   0.193   7.377   4.900 -1.6956  0.4162 -2.0804
  105MOL   H12727375   0.415   7.192   4.670 -0.7098 -0.6624  0.0888
  105MOL   H12827376   0.501   7.175   4.839 -0.4146 -1.6179 -1.2420
  105MOL   H12927377   0.539   7.388   4.623  0.8853  0.8020  0.6181
  105MOL   H13027378   0.615   7.391   4.783  1.1028 -2.1074  1.3122
  105MOL   H13127379   0.648   7.257   4.678 -0.4202 -0.8634  0.3040
  105MOL   C13227380   0.230   7.159   4.906  0.1982  0.7001 -0.8216
  105MOL   C13327381   0.283   7.164   5.054 -0.9714  0.6035  0.2002
  105MOL   O13427382   0.326   7.034   5.108 -0.3243  0.2185 -0.1440
  105MOL   C13527383   0.436   6.972   5.035 -0.1942 -0.2960  0.2278
  105MOL   C13627384   0.483   6.847   5.109  0.4717 -0.3111 -0.5202
  105MOL   H13727385   0.279   7.081   4.847 -0.8184 -1.3451  0.9486
  105MOL   H13827386   0.126   7.127   4.898 -0.3192  1.3108  2.6804
  105MOL   H13927387   0.376   7.221   5.055 -0.1781 -0.6727 -0.1909
  105MOL   H14027388   0.520   7.040   5.046 -0.2045  0.0308 -1.6114
  105MOL   H14127389   0.426   6.950   4.929  0.6361  1.6610 -0.2827
  105MOL   H14227390   0.527   6.866   5.207  0.4793 -2.7089 -0.0087
  105MOL   H14327391   0.405   6.772   5.122  0.1319  0.3263  1.2703
  105MOL   H14427392   0.563   6.799   5.053  0.5116 -1.3396  0.3985
  105MOL   C14527393   0.177   7.209   5.159  0.8610 -0.2607  0.3560
  105MOL   C14627394   0.232   7.220   5.301 -0.1476 -0.6023  0.7222
  105MOL   O14727395   0.131   7.229   5.397  0.7221 -0.5817 -0.2609
  105MOL   C14827396   0.064   7.099   5.426 -0.0021  0.0987  0.0469
  105MOL   C14927397   7.812   7.104   5.552 -0.0767  0.4689 -0.5425
  105MOL   H15027398   0.097   7.134   5.154  3.5165 -3.1784 -0.2082
  105MOL   H15127399   0.138   7.303   5.122 -0.0391 -2.1262 -3.6612
  105MOL   H15227400   0.289   7.134   5.336 -0.6631 -0.9169  0.7815
  105MOL   H15327401   0.138   7.036   5.475  1.5329  2.1419  0.4517
  105MOL   H15427402   0.027   7.037   5.345  1.7698 -2.2455  0.9661
  105MOL   H15527403   0.020   7.154   5.633 -1.5525 -0.4344  0.9888
  105MOL   H15627404   7.720   7.158   5.530  0.2068  1.3305  0.3947
  105MOL   H15727405   7.768   7.008   5.581  0.7648 -0.5866 -2.6661
  105MOL   C15827406   0.329   7.343   5.321 -1.0677 -0.3394  0.0176
  105MOL   C15927407   0.384   7.380   5.462  0.7231 -0.1961  0.2861
  105MOL   O16027408   0.459   7.505   5.442  0.1718  0.5045  0.2337
  105MOL   C16127409   0.377   7.612   5.484  0.0292  0.9639  0.1925
  105MOL   C16227410   0.465   7.742   5.465  0.3769 -0.5628  0.2614
  105MOL   H16327411   0.264   7.424   5.288 -0.5558  0.6270  1.3094
  105MOL   H16427412   0.414   7.324   5.256 -1.0270  0.8758 -0.3051
  105MOL   H16527413   0.310   7.381   5.543 -1.7565  1.0377 -1.9162
  105MOL   H16627414   0.351   7.606   5.590 -0.3402  2.4886  0.1948
  105MOL   H16727415   0.288   7.638   5.426 -0.8481 -1.4418  0.4076
  105MOL   H16827416   0.480   7.768   5.360 -3.1165 -0.3098 -0.2389
  105MOL   H16927417   0.420   7.833   5.504  1.3612 -1.1909  2.9857
  105MOL   H17027418   0.556   7.720   5.521 -1.4964 -1.9087  2.8377
  105MOL   C17127419   0.484   7.274   5.508 -0.0160 -0.1572 -0.6014
  105MOL   C17227420   0.537   7.297   5.651  0.2033  0.0166 -0.1508
  105MOL   O17327421   0.647   7.378   5.643 -0.0859 -0.3470 -0.1386
  105MOL   C17427422   0.666   7.448   5.766 -0.1086  0.7514 -0.0040
  105MOL   C17527423   0.814   7.459   5.783  0.3530 -0.8309  1.1846
  105MOL   H17627424   0.572   7.258   5.447 -1.1171 -1.8965 -1.7673
  105MOL   H17727425   0.420   7.186   5.499 -0.4758  0.1828 -0.6812
  105MOL   H17827426   0.463   7.348   5.712  0.0402  1.2231 -1.3302
  105MOL   H17927427   0.626   7.386   5.846  1.6755 -1.2318 -0.6108
  105MOL   H18027428   0.611   7.541   5.776 -0.1072  0.5804  1.5897
  105MOL   H18127429   0.845   7.528   5.861  0.3436 -1.4934  1.7721
  105MOL   H18227430   0.861   7.364   5.806  0.7719 -0.4863  1.7599
  105MOL   H18327431   0.867   7.501   5.697 -0.5046 -1.3608  0.3864
  105MOL   C18427432   0.576   7.155   5.710 -0.4888  0.1145 -0.5273
  105MOL   C18527433   0.464   7.063   5.758  0.0371  0.2257  0.3118
  105MOL   O18627434   0.408   6.995   5.649  0.2659  0.0072 -0.1558
  105MOL   C18727435   0.493   6.884   5.606 -0.0157 -0.1989  0.1659
  105MOL   C18827436   0.409   6.794   5.510  0.5179  0.5370  0.0380
  105MOL   H18927437   0.648   7.175   5.789 -0.9345 -1.2474  0.2262
  105MOL   H19027438   0.636   7.098   5.639 -0.5438 -0.4902 -0.0824
  105MOL   H19127439   0.512   7.001   5.833  2.0689  3.3655  1.7111
  105MOL   H19227440   0.523   6.821   5.690  3.2166  1.6737  0.5231
  105MOL   H19327441   0.587   6.911   5.556  0.2391 -1.3323  0.0078
  105MOL   H19427442   0.455   6.704   5.469  1.7135  0.3355  1.7586
  105MOL   H19527443   0.319   6.771   5.567  1.1620 -3.4803 -0.4097
  105MOL   H19627444   0.376   6.850   5.423  0.5904  0.6931  0.1092
  105MOL   C19727445   0.339   7.131   5.819 -0.0623  0.4527 -0.3490
  105MOL   C19827446   0.353   7.200   5.958 -0.2428  0.3033 -0.1500
  105MOL   O19927447   0.416   7.109   6.051 -0.2849  0.7868  0.1792
  105MOL   C20027448   0.463   7.160   6.167 -0.2821 -0.0369 -0.4111
  105MOL   C20127449   0.401   7.099   6.294  0.1519 -0.0794  0.1146
  105MOL   H20227450   0.250   7.068   5.815 -0.0378  0.4279 -0.4817
  105MOL   H20327451   0.315   7.210   5.747  0.5245  0.8745 -0.0859
  105MOL   H20427452   0.417   7.284   5.933 -0.8707  0.6586 -0.5869
  105MOL   H20527453   0.464   7.269   6.169  3.0308 -0.0339  0.3739
  105MOL   H20627454   0.569   7.138   6.154  0.6077  0.8835  4.3736
  105MOL   H20727455   0.292   7.104   6.291  0.2256  2.9311  0.4079
  105MOL   H20827456   0.436   6.996   6.301  1.3251  0.3358  0.5808
  105MOL   H20927457   0.440   7.147   6.384  0.5592 -0.1531 -0.0207
  105MOL   C21027458   0.215   7.249   6.013 -0.0969  0.4272  0.3849
  105MOL   C21127459   0.187   7.400   5.983 -0.1791  0.0376  0.0410
  105MOL   O21227460   0.267   7.460   6.079 -0.2680  0.2751 -0.0306
  105MOL   C21327461   0.329   7.579   6.034 -0.0969 -1.2439  1.0928
  105MOL   C21427462   0.395   7.653   6.155  1.0428 -0.3298 -0.7469
  105MOL   H21527463   0.191   7.231   6.118  0.0170  0.5290  0.4284
  105MOL   H21627464   0.137   7.185   5.971 -0.7084 -0.8316  3.2687
  105MOL   H21727465   0.222   7.426   5.883  1.8156 -1.6836  0.2624
  105MOL   H21827466   0.246   7.635   5.990  1.8147  1.9716  1.4418
  105MOL   H21927467   0.406   7.556   5.959 -1.2490  0.3395 -0.6209
  105MOL   H22027468   0.483   7.600   6.189 -0.9430 -3.1135  0.2238
  105MOL   H22127469   0.424   7.754   6.125 -0.1619 -0.1299 -1.2778
  105MOL   H22227470   0.326   7.676   6.236  2.2543 -0.4060  0.3237
  105MOL   C22327471   0.038   7.436   5.994  0.0288  0.4233  0.1906
  105MOL   C22427472   7.804   7.402   5.868  0.0304 -0.1959  0.8504
  105MOL   O22527473   7.836   7.507   5.769 -0.0220  0.8566  0.8478
  105MOL   C22627474   0.018   7.455   5.641  1.3417 -0.6485 -0.0515
  105MOL   C22727475   0.037   7.580   5.548 -0.6910  0.7743  0.3270
  105MOL   H22827476   0.025   7.537   6.034  3.4323  0.1329  2.2725
  105MOL   H22927477   0.000   7.371   6.072 -1.9325  2.3600  0.9151
  105MOL   H23027478   0.004   7.311   5.828  0.1766  0.8073 -1.3340
  105MOL   H23127479   7.773   7.404   5.604 -0.3685  0.9981  1.6175
  105MOL   H23227480   0.103   7.389   5.658 -0.2060 -1.7840  3.9888
  105MOL   H23327481   0.035   7.552   5.442  0.7116  1.6908  0.0517
  105MOL   H23427482   7.795   7.648   5.552 -1.2362  0.0749  0.7065
  105MOL   H23527483   0.134   7.625   5.566  0.7948 -2.1157 -0.1002
  105MOL   C23627484   7.645   7.373   5.873  0.0640 -0.2771  0.7565
  105MOL   C23727485   7.602   7.245   5.939 -0.0802 -0.4659 -0.6361
  105MOL   O23827486   7.684   7.143   5.883  0.0220  0.5700  0.4093
  105MOL   C23927487   7.717   7.036   5.972  0.2871 -0.1357 -0.4765
  105MOL   C24027488   7.803   6.933   5.907 -0.3637 -0.5985 -0.0814
  105MOL   H24127489   7.595   7.390   5.777  2.2235 -2.5018 -0.8059
  105MOL   H24227490   7.610   7.461   5.927 -0.2508 -0.1302  0.3196
  105MOL   H24327491   7.628   7.261   6.044 -0.6960 -0.0196 -0.5497
  105MOL   H24427492   7.631   6.991   6.021 -0.3994 -1.6343 -2.9797
  105MOL   H24527493   7.775   7.081   6.052 -1.1911 -1.0424  1.1396
  105MOL   H24627494   0.041   6.988   5.861 -2.1199  1.4106 -0.9073
  105MOL   H24727495   7.834   6.858   5.979 -1.2347  2.0985  3.2038
  105MOL   H24827496   7.747   6.890   5.824  0.4282 -0.2248 -0.8201
  105MOL   C24927497   7.448   7.211   5.943  0.6704 -0.8757 -0.2590
  105MOL   C25027498   7.381   7.299   6.043  0.3704 -0.8657  0.3876
  105MOL   O25127499   7.238   7.309   6.007 -0.1634 -0.0499 -0.0142
  105MOL   C25227500   7.163   7.396   6.088  0.2012  0.0847 -0.0743
  105MOL   C25327501   7.080   7.313   6.185  0.4524  0.0852  0.6748
  105MOL   H25427502   7.424   7.107   5.965  0.6014 -0.9843 -0.8396
  105MOL   H25527503   7.411   7.239   5.844  0.5740  0.4419  0.1340
  105MOL   H25627504   7.396   7.258   6.143  3.7417  0.4591  0.4678
  105MOL   H25727505   7.095   7.441   6.015  0.1180 -2.1502 -1.4662
  105MOL   H25827506   7.218   7.475   6.138  4.4204 -2.4231 -0.5342
  105MOL   H25927507   7.001   7.373   6.230 -0.4074 -1.5391  1.3873
  105MOL   H26027508   7.046   7.222   6.136 -2.3182  1.5063 -0.1579
  105MOL   H26127509   7.145   7.290   6.270  2.3127  1.6675 -0.2884
  105MOL   H26227510   7.423   7.398   6.058 -0.7573 -0.7684  3.3763
  106MOL     C127511   2.505   5.358   6.517 -0.2109 -0.6572  1.3564
  106MOL     C227512   2.657   5.388   6.510 -0.1074 -0.2369  0.1853
  106MOL     O327513   2.709   5.281   6.580 -0.0894  0.1776 -0.1088
  106MOL     C427514   2.756   5.167   6.500  0.0834  0.2190  0.4622
  106MOL     C527515   2.782   5.048   6.600  0.1944  0.0665  0.2841
  106MOL     H627516   2.469   5.342   6.618 -0.1924 -0.1332  1.4428
  106MOL     H727517   2.443   5.438   6.476  0.7003 -0.8293 -0.4024
  106MOL     H827518   2.689   5.393   6.406  0.2660 -0.2392  0.2988
  106MOL     H927519   2.847   5.201   6.451  1.1829 -3.0819  0.1181
  106MOL    H1027520   2.678   5.140   6.428 -0.5672 -1.4505  1.7552
  106MOL    H1127521   2.856   5.082   6.672  0.1075 -0.8289  0.8135
  106MOL    H1227522   2.704   5.005   6.664  0.0657 -1.8748 -1.1287
  106MOL    H1327523   2.824   4.968   6.539 -1.4446 -0.8787  0.3687
  106MOL    H1427524   2.484   5.268   6.458 -1.0341  0.4079 -0.0206
  106MOL    C1527525   2.697   5.517   6.583  1.2260  0.6966  0.0695
  106MOL    C1627526   2.630   5.642   6.515 -0.3174 -0.3396 -0.6207
  106MOL    O1727527   2.653   5.628   6.373  0.6031 -0.7552  0.0223
  106MOL    C1827528   2.566   5.714   6.301  0.1720  0.7638 -0.8573
  106MOL    C1927529   2.605   5.719   6.157 -0.2689 -0.3422  0.2252
  106MOL    H2027530   2.805   5.525   6.582  1.4725 -2.1364 -1.3662
  106MOL    H2127531   2.663   5.508   6.686 -0.4474  0.9721 -0.4296
  106MOL    H2227532   2.522   5.645   6.526 -0.2130 -0.6843  0.6293
  106MOL    H2327533   2.552   5.816   6.337 -0.2665  0.6030 -0.5690
  106MOL    H2427534   2.464   5.678   6.314  0.1589  1.4725  1.1478
  106MOL    H2527535   2.613   5.618   6.116  0.8379 -0.2607  0.2263
  106MOL    H2627536   2.699   5.770   6.135 -0.5367 -0.9645 -2.5884
  106MOL    H2727537   2.536   5.774   6.093  0.8963 -0.9799 -1.6322
  106MOL    C2827538   2.679   5.777   6.574 -0.0797  0.0585  0.4616
  106MOL    C2927539   2.669   5.775   6.725  0.2742  1.2661 -0.1016
  106MOL    O3027540   2.531   5.757   6.762 -0.5332  0.3286 -0.2829
  106MOL    C3127541   2.503   5.727   6.890 -0.2221  0.5434 -0.1031
  106MOL    C3227542   2.364   5.661   6.897  0.3656  0.4148  0.0076
  106MOL    H3327543   2.617   5.857   6.535  0.9740  0.4109 -0.5210
  106MOL    H3427544   2.776   5.794   6.527  0.0782 -0.9409  0.4170
  106MOL    H3527545   2.724   5.695   6.773 -1.9796  0.1968  0.7430
  106MOL    H3627546   2.507   5.809   6.962  1.7341 -0.0162  0.4568
  106MOL    H3727547   2.573   5.650   6.920 -0.0170 -0.3628 -2.7923
  106MOL    H3827548   2.378   5.563   6.851  2.3870  0.9173 -0.5117
  106MOL    H3927549   2.337   5.630   6.997  3.6906 -0.0006  0.8618
  106MOL    H4027550   2.292   5.727   6.850  0.8527 -0.6796 -2.4160
  106MOL    C4127551   2.727   5.901   6.796  0.1771 -0.1178 -0.0016
  106MOL    C4227552   2.872   5.940   6.757  0.0210  0.5105 -0.2421
  106MOL    O4327553   2.866   5.993   6.617 -0.5614  0.2908  0.4059
  106MOL    C4427554   2.825   6.124   6.603  0.2168  0.2872 -0.3746
  106MOL    C4527555   2.943   6.216   6.623 -0.3688 -0.2390  0.4656
  106MOL    H4627556   2.729   5.889   6.905  3.5697  0.3187  0.0197
  106MOL    H4727557   2.658   5.985   6.788 -0.0324 -0.3069 -0.1715
  106MOL    H4827558   2.905   6.016   6.828  0.6833 -1.9504  2.1921
  106MOL    H4927559   2.740   6.146   6.668 -1.8831 -1.9604 -2.2806
  106MOL    H5027560   2.771   6.128   6.508  2.2565  0.1694 -1.5779
  106MOL    H5127561   3.024   6.182   6.687  0.3644 -3.5440 -2.1145
  106MOL    H5227562   2.989   6.230   6.525  1.6513 -0.4310  1.3842
  106MOL    H5327563   2.914   6.318   6.651  0.6288  0.6730 -1.7024
  106MOL    C5427564   2.972   5.823   6.761 -0.2374  0.0515  0.1130
  106MOL    C5527565   3.009   5.773   6.904 -0.1223 -0.4042  0.4712
  106MOL    O5627566   3.112   5.855   6.964  0.2884 -0.6416 -0.2205
  106MOL    C5727567   3.063   5.965   7.029 -0.2850  0.0287  0.2768
  106MOL    C5827568   3.160   5.995   7.138 -0.4958 -0.1145 -0.0995
  106MOL    H5927569   3.065   5.865   6.724 -0.1265 -1.8251 -1.8302
  106MOL    H6027570   2.942   5.736   6.703 -3.4325  0.1174  1.5405
  106MOL    H6127571   2.922   5.782   6.968  1.1613 -2.2107  2.5291
  106MOL    H6227572   2.970   5.945   7.083  0.5407 -1.6656  1.0926
  106MOL    H6327573   3.062   6.044   6.954 -0.9253 -0.7668 -0.5580
  106MOL    H6427574   3.130   6.088   7.186  0.0332  2.0836 -3.8539
  106MOL    H6527575   3.171   5.913   7.209 -0.0035 -0.2302 -0.3094
  106MOL    H6627576   3.258   6.023   7.100 -1.5993  4.3426  0.0583
  106MOL    C6727577   3.056   5.628   6.900 -0.9563 -0.4367  0.4480
  106MOL    C6827578   3.107   5.585   7.045  1.0572 -0.0291 -0.7240
  106MOL    O6927579   3.181   5.462   7.035  0.3465 -0.3596  0.5485
  106MOL    C7027580   3.323   5.488   7.011 -0.6181  0.3517 -0.5602
  106MOL    C7127581   3.401   5.367   6.988  0.0772 -0.2693 -0.3172
  106MOL    H7227582   3.142   5.612   6.836  1.6863  0.1006  3.7069
  106MOL    H7327583   2.969   5.577   6.858 -1.2415  0.0752  0.4146
  106MOL    H7427584   3.165   5.663   7.095 -2.5377  0.5549  2.7308
  106MOL    H7527585   3.359   5.544   7.097 -3.3694 -0.7179  1.3877
  106MOL    H7627586   3.335   5.552   6.925 -1.8040  1.1004 -0.1919
  106MOL    H7727587   3.371   5.333   6.889 -1.0727 -0.7698  0.1882
  106MOL    H7827588   3.509   5.379   6.989  0.0216  0.5612 -2.1784
  106MOL    H7927589   3.366   5.300   7.066 -0.6610 -0.8817 -1.1699
  106MOL    C8027590   3.009   5.537   7.148  0.0430 -0.2434 -0.5080
  106MOL    C8127591   3.063   5.531   7.296 -0.0860 -0.1013  0.0733
  106MOL    O8227592   3.139   5.416   7.303 -0.3641  0.1263  0.1866
  106MOL    C8327593   3.234   5.419   7.413  0.4085 -0.2423  0.7848
  106MOL    C8427594   3.306   5.287   7.412 -0.3344  0.0835 -0.9491
  106MOL    H8527595   2.957   5.444   7.126  0.1113 -0.4992  0.3827
  106MOL    H8627596   2.933   5.615   7.150  0.2434 -0.0677  0.6915
  106MOL    H8727597   3.123   5.617   7.326 -1.1547  0.4109  0.7496
  106MOL    H8827598   3.181   5.431   7.507 -0.9293  0.2663 -0.0150
  106MOL    H8927599   3.307   5.498   7.393 -2.1484  1.9039 -0.3329
  106MOL    H9027600   3.396   5.288   7.473 -1.2716  0.0080  0.4648
  106MOL    H9127601   3.235   5.208   7.438 -0.1917  0.5903  1.0258
  106MOL    H9227602   3.339   5.269   7.309  2.3760 -1.1610  0.0998
  106MOL    C9327603   2.946   5.524   7.395 -0.6616 -0.3911  0.7108
  106MOL    C9427604   2.910   5.659   7.447 -0.0360 -0.2192  0.0699
  106MOL    O9527605   2.854   5.730   7.342 -0.3564  0.2488 -0.2995
  106MOL    C9627606   2.743   5.815   7.366 -0.6379  0.5844  0.7759
  106MOL    C9727607   2.710   5.890   7.243  0.3138 -0.9376 -0.1058
  106MOL    H9827608   2.963   5.456   7.478  1.0583 -0.1087  0.6189
  106MOL    H9927609   2.855   5.482   7.353 -2.3143  1.5851  2.2574
  106MOL   H10027610   2.832   5.629   7.517 -0.2791 -2.6188 -1.1935
  106MOL   H10127611   2.768   5.884   7.446 -0.6171 -1.2137  2.3685
  106MOL   H10227612   2.656   5.762   7.405 -0.8343  1.1090  1.0543
  106MOL   H10327613   2.703   5.825   7.156  0.2562  0.4893 -1.1908
  106MOL   H10427614   2.627   5.961   7.238  0.4238 -0.6015  2.4438
  106MOL   H10527615   2.794   5.956   7.220 -0.2895 -0.1323 -0.0048
  106MOL   C10627616   3.019   5.726   7.525 -0.0528  0.7457 -0.6116
  106MOL   C10727617   2.984   5.853   7.621 -0.0686  0.1071  0.9213
  106MOL   O10827618   3.092   5.873   7.711 -0.3284  0.6249  0.6626
  106MOL   C10927619   3.210   5.925   7.659  0.8389 -0.8150  0.4753
  106MOL   C11027620   3.297   5.972   7.776 -0.6495  0.0439 -0.2171
  106MOL   H11127621   3.100   5.765   7.464 -0.4902  0.1217 -1.5948
  106MOL   H11227622   3.068   5.651   7.586 -0.8298  0.7244  0.0043
  106MOL   H11327623   2.965   5.942   7.560  0.7581 -0.3269  0.0150
  106MOL   H11427624   3.195   6.004   7.585 -0.5782 -1.2478  0.2849
  106MOL   H11527625   3.261   5.843   7.608  0.4758 -1.0236  0.4447
  106MOL   H11627626   3.299   5.898   0.013  0.0357  0.2444 -0.0528
  106MOL   H11727627   3.398   5.977   7.737 -0.3060  0.0152  0.6444
  106MOL   H11827628   3.275   6.069   7.820  0.3611 -0.7401  2.1070
  106MOL   C11927629   2.857   5.829   7.706 -0.0270 -0.2581  0.5196
  106MOL   C12027630   2.835   5.950   7.798  0.5851  0.1677 -0.2345
  106MOL   O12127631   2.736   5.899   0.051 -0.2163 -0.1341  0.0285
  106MOL   C12227632   2.726   5.972   0.174 -0.2291  0.3841  0.7047
  106MOL   C12327633   2.656   5.875   0.275 -0.5774  0.0404 -0.5695
  106MOL   H12427634   2.858   5.736   7.763  1.1168 -0.9177 -0.5264
  106MOL   H12527635   2.762   5.818   7.655 -0.4800 -0.5103  1.4206
  106MOL   H12627636   2.924   5.962   0.016 -1.2841  0.6624  2.4591
  106MOL   H12727637   2.674   6.067   0.177  0.7010  0.8749  1.2812
  106MOL   H12827638   2.828   5.988   0.209  0.7591  1.8363 -2.6107
  106MOL   H12927639   2.555   5.854   0.239 -1.0491  1.0421  0.1546
  106MOL   H13027640   2.708   5.781   0.292  4.0412  2.8161  1.3099
  106MOL   H13127641   2.660   5.918   0.375  1.7692 -1.1510 -0.1424
  106MOL   C13227642   2.786   6.083   7.737 -0.3123  0.2524  0.4320
  106MOL   C13327643   2.874   6.199   7.777  0.1265  0.0342 -0.5956
  106MOL   O13427644   2.864   6.205   0.074 -0.7742  0.3138  0.1777
  106MOL   C13527645   2.967   6.276   0.144  0.2039 -0.3283 -0.1883
  106MOL   C13627646   2.916   6.292   0.281  0.9149  0.1156 -0.3889
  106MOL   H13727647   2.680   6.100   7.757 -0.5887 -1.2347  0.3400
  106MOL   H13827648   2.791   6.073   7.628 -2.2875  1.4948  0.2062
  106MOL   H13927649   2.980   6.184   7.752 -0.1621  1.0347 -2.5325
  106MOL   H14027650   2.971   6.380   0.112  4.0062 -0.2800  0.2522
  106MOL   H14127651   3.064   6.228   0.135  0.7422  0.3432  1.6711
  106MOL   H14227652   3.001   6.336   0.333  1.5165 -1.6583  0.1687
  106MOL   H14327653   2.828   6.357   0.275 -0.3394 -1.7912 -3.9330
  106MOL   H14427654   2.896   6.197   0.330 -0.5466  0.5972 -0.0076
  106MOL   C14527655   2.840   6.335   7.707 -0.3355 -0.3508  0.3830
  106MOL   C14627656   2.878   6.353   7.553  0.0741 -0.2783  0.2921
  106MOL   O14727657   3.020   6.342   7.540  0.1150  0.8768 -0.5354
  106MOL   C14827658   3.062   6.249   7.450 -0.4245  0.0292  0.0274
  106MOL   C14927659   3.212   6.258   7.434 -0.4755  0.3002  0.9921
  106MOL   H15027660   2.877   6.429   7.748  0.3042 -0.1572 -0.6401
  106MOL   H15127661   2.734   6.339   7.733  0.0036  0.2423  1.7242
  106MOL   H15227662   2.836   6.272   7.494 -0.8588 -1.3451  2.3631
  106MOL   H15327663   3.009   6.273   7.357  0.3944  0.2028 -0.4068
  106MOL   H15427664   3.019   6.153   7.477 -0.7565 -0.0579 -0.7893
  106MOL   H15527665   3.254   6.353   7.401  1.2720 -1.3597 -1.7306
  106MOL   H15627666   3.262   6.237   7.528  0.8163 -2.6886 -0.3088
  106MOL   H15727667   3.229   6.176   7.364 -1.1292  0.2538  0.8840
  106MOL   C15827668   2.838   6.486   7.500 -0.2369 -0.0127 -0.0839
  106MOL   C15927669   2.682   6.501   7.479 -0.0449  0.0181  0.8792
  106MOL   O16027670   2.663   6.420   7.368 -0.5136  0.1744  0.2202
  106MOL   C16127671   2.561   6.327   7.383  0.4741  0.2743 -0.0264
  106MOL   C16227672   2.503   6.287   7.241 -0.4611  0.3968 -0.1795
  106MOL   H16327673   2.893   6.501   7.407 -1.8841  1.2542 -0.8816
  106MOL   H16427674   2.871   6.568   7.564 -0.4939 -0.0629  0.1128
  106MOL   H16527675   2.649   6.461   7.575  1.3464  1.9433  2.1947
  106MOL   H16627676   2.471   6.378   7.416  1.3308  3.8786 -2.9180
  106MOL   H16727677   2.588   6.242   7.446  0.2911  2.0980  2.5829
  106MOL   H16827678   2.488   6.370   7.172  1.1822 -0.1451 -1.1990
  106MOL   H16927679   2.567   6.210   7.198  1.6822  2.8518 -1.4969
  106MOL   H17027680   2.406   6.239   7.256  0.5986 -2.3098 -1.6341
  106MOL   C17127681   2.632   6.641   7.442 -0.1496 -0.0944 -0.6183
  106MOL   C17227682   2.651   6.749   7.552 -0.4550  0.4752 -0.3070
  106MOL   O17327683   2.588   6.704   7.670 -0.4603  0.3693 -0.1822
  106MOL   C17427684   2.661   6.730   7.788 -0.2146  0.9686  0.1026
  106MOL   C17527685   2.575   6.691   0.071 -0.0258 -0.0413 -0.6075
  106MOL   H17627686   2.527   6.634   7.414 -0.9517  0.5671  2.0635
  106MOL   H17727687   2.678   6.677   7.350  0.7497 -1.5225 -0.7426
  106MOL   H17827688   2.755   6.776   7.569 -0.7621  0.2644  2.0339
  106MOL   H17927689   2.667   6.838   7.799 -2.4489  1.3002 -1.5473
  106MOL   H18027690   2.758   6.681   7.791 -0.7572 -0.1064  0.3254
  106MOL   H18127691   2.557   6.584   0.067  0.3445 -0.0582 -1.8890
  106MOL   H18227692   2.629   6.721   0.161 -0.5109 -0.1476 -0.2813
  106MOL   H18327693   2.486   6.753   0.082 -0.7532 -0.8228 -2.1333
  106MOL   C18427694   2.601   6.882   7.514  0.4039 -0.3042  0.5049
  106MOL   C18527695   2.650   6.960   7.391  0.2173  0.0033  0.6418
  106MOL   O18627696   2.793   6.948   7.393  0.2903 -0.7347  0.4009
  106MOL   C18727697   2.867   7.022   7.486  0.4728  0.3926  0.1513
  106MOL   C18827698   3.011   6.972   7.473 -0.5185 -0.2827 -0.1065
  106MOL   H18927699   2.600   6.950   7.600  0.8089 -2.3647  2.1768
  106MOL   H19027700   2.493   6.873   7.504  0.5111  2.0692 -3.8546
  106MOL   H19127701   2.623   6.914   7.296  1.3090  2.2498 -0.7922
  106MOL   H19227702   2.846   7.015   7.592  0.9097  1.4008  0.3099
  106MOL   H19327703   2.866   7.123   7.445  2.2030  0.1617 -0.5432
  106MOL   H19427704   3.012   6.865   7.494  1.3392  0.1907  2.4477
  106MOL   H19527705   3.043   6.985   7.369 -2.1368  1.5118 -0.4006
  106MOL   H19627706   3.070   7.035   7.540  1.6868 -0.5355 -1.7278
  106MOL   C19727707   2.604   7.110   7.380 -0.2700  0.0113  0.4680
  106MOL   C19827708   2.659   7.173   7.247 -0.2909  0.1834 -0.0190
  106MOL   O19927709   2.654   7.316   7.273 -0.1316 -0.2438  0.2902
  106MOL   C20027710   2.736   7.388   7.181 -0.0156  0.6148  0.0191
  106MOL   C20127711   2.718   7.535   7.203 -0.0135  0.2445  0.1329
  106MOL   H20227712   2.648   7.164   7.463  0.5542  0.2214 -0.1056
  106MOL   H20327713   2.496   7.120   7.392  0.5002  4.5994  4.6437
  106MOL   H20427714   2.762   7.140   7.229 -0.5317  0.5120 -2.0256
  106MOL   H20527715   2.712   7.371   7.076 -1.2490 -0.3664  0.4461
  106MOL   H20627716   2.841   7.359   7.188 -0.3305 -0.8228 -0.9313
  106MOL   H20727717   2.619   7.572   7.174 -0.7456 -2.5616 -1.1568
  106MOL   H20827718   2.730   7.572   7.305 -1.1336  0.6392  0.1308
  106MOL   H20927719   2.795   7.587   7.147  0.5273  0.0748  0.7156
  106MOL   C21027720   2.579   7.141   7.112 -0.2937  0.4385 -0.4725
  106MOL   C21127721   2.663   7.086   6.996 -0.4129  0.1269 -0.0407
  106MOL   O21227722   2.729   7.189   6.922 -0.2442  0.2595 -0.5926
  106MOL   C21327723   2.870   7.158   6.910  0.1474 -0.6026  0.0297
  106MOL   C21427724   2.957   7.282   6.868 -0.1561  0.0276  0.2672
  106MOL   H21527725   2.523   7.225   7.072 -0.2028  0.6115 -0.2375
  106MOL   H21627726   2.526   7.052   7.145  0.9031  0.5692  1.8855
  106MOL   H21727727   2.728   7.012   7.043 -1.2956 -0.4626  0.2465
  106MOL   H21827728   2.882   7.085   6.830 -0.7207 -0.6214 -0.0848
  106MOL   H21927729   2.907   7.128   7.008  1.0240 -1.1963 -0.4730
  106MOL   H22027730   2.912   7.334   6.784 -1.1793 -0.2388  0.6496
  106MOL   H22127731   2.973   7.345   6.955  2.5574  0.9301 -0.8434
  106MOL   H22227732   3.060   7.249   6.852 -0.3382 -0.1390 -0.5974
  106MOL   C22327733   2.584   7.007   6.895  0.5493 -0.1283  0.1839
  106MOL   C22427734   2.545   6.860   6.923  0.2493  0.9277 -0.5470
  106MOL   O22527735   2.445   6.860   7.020 -0.2502 -0.1262 -0.0372
  106MOL   C22627736   2.337   6.775   7.005 -0.3578  0.7082 -0.2296
  106MOL   C22727737   2.226   6.828   7.096 -0.4257 -0.0123  0.5205
  106MOL   H22827738   2.634   6.994   6.799  0.7111 -0.5572  0.3242
  106MOL   H22927739   2.491   7.058   6.871 -0.8691 -0.9997  3.5291
  106MOL   H23027740   2.504   6.811   6.834 -0.4426  0.1699  0.1796
  106MOL   H23127741   2.364   6.672   7.023  0.4686  1.2065  1.4478
  106MOL   H23227742   2.299   6.778   6.902 -1.6558 -0.9142  0.1806
  106MOL   H23327743   2.134   6.773   7.075 -0.9310  1.4039 -1.1051
  106MOL   H23427744   2.252   6.828   7.202  2.1155 -0.1780 -0.0564
  106MOL   H23527745   2.199   6.929   7.067 -2.9264 -1.3073 -1.9743
  106MOL   C23627746   2.654   6.761   6.975 -0.5084 -0.3373  0.6537
  106MOL   C23727747   2.781   6.744   6.889  0.0289 -0.2142 -0.3466
  106MOL   O23827748   2.763   6.635   6.796  0.2640  0.2384 -0.9358
  106MOL   C23927749   2.695   6.663   6.673 -0.2905  0.3484 -0.1879
  106MOL   C24027750   2.740   6.559   6.563  0.3238  0.3878 -0.2016
  106MOL   H24127751   2.611   6.662   6.988 -1.1849 -0.3472 -1.4808
  106MOL   H24227752   2.669   6.792   7.078  2.4097 -2.3568  0.8766
  106MOL   H24327753   2.799   6.835   6.831  0.7137 -0.6974 -0.8995
  106MOL   H24427754   2.723   6.762   6.637 -0.0779 -0.2339 -1.6556
  106MOL   H24527755   2.587   6.661   6.681 -0.2254 -0.5918  0.4922
  106MOL   H24627756   2.690   6.582   6.469 -2.1121 -3.6793 -0.0158
  106MOL   H24727757   2.848   6.570   6.554  0.6556 -2.5513 -0.0578
  106MOL   H24827758   2.726   6.454   6.588  0.7578  0.8165  1.9184
  106MOL   C24927759   2.914   6.720   6.981  0.1967  0.1635  0.3216
  106MOL   C25027760   3.037   6.723   6.893 -0.2141 -0.4889  0.3030
  106MOL   O25127761   3.057   6.859   6.844  0.0874 -0.0555 -0.6553
  106MOL   C25227762   3.117   6.865   6.718  0.0021  0.3478 -0.7565
  106MOL   C25327763   3.157   7.008   6.682 -0.0388  0.1548 -0.0191
  106MOL   H25427764   2.916   6.626   7.035  2.9111 -0.4171 -0.7322
  106MOL   H25527765   2.927   6.805   7.048 -0.7254  0.1332  0.5422
  106MOL   H25627766   3.129   6.688   6.941  0.0672  0.6665  0.6211
  106MOL   H25727767   3.046   6.823   6.647  0.1641  0.6701 -1.1065
  106MOL   H25827768   3.198   6.791   6.711 -0.4574 -0.2200 -0.1512
  106MOL   H25927769   3.200   7.004   6.582 -3.2343 -0.8551 -1.4116
  106MOL   H26027770   3.076   7.081   6.683  0.6618  0.9752 -1.2093
  106MOL   H26127771   3.226   7.031   6.763  0.8812 -0.8111 -0.5186
  106MOL   H26227772   3.029   6.651   6.812  2.1591  1.6699 -1.9437
  107MOL     C127773   6.989   6.328   3.084 -0.0295  0.3802  0.4925
  107MOL     C227774   7.067   6.232   2.987  0.1802  0.8829  0.2930
  107MOL     O327775   7.020   6.095   3.007  0.1504 -0.1432  0.1561
  107MOL     C427776   6.906   6.070   2.933  0.1603  0.1685  0.1871
  107MOL     C527777   6.866   5.927   2.936  0.0936 -0.6256  0.6849
  107MOL     H627778   7.026   6.430   3.091  1.2115 -0.0506  0.4223
  107MOL     H727779   6.886   6.338   3.049  0.4549  0.8869 -0.7987
  107MOL     H827780   7.064   6.263   2.883  0.3390 -2.6787 -0.8360
  107MOL     H927781   6.926   6.098   2.830 -0.0192 -0.0581  0.0910
  107MOL    H1027782   6.825   6.126   2.980 -0.9153  0.2560 -1.7095
  107MOL    H1127783   6.946   5.859   2.908  0.3977 -0.9136  2.2412
  107MOL    H1227784   6.843   5.889   3.036  0.6012  1.2750  1.5347
  107MOL    H1327785   6.783   5.921   2.865  0.2019 -0.0342  0.5028
  107MOL    H1427786   6.998   6.291   3.186  0.0181  0.9617  0.7036
  107MOL    C1527787   7.220   6.215   3.017 -0.0298  0.0027  0.0829
  107MOL    C1627788   7.303   6.343   2.989 -1.1585 -0.3333  0.4875
  107MOL    O1727789   7.315   6.362   2.840  0.9474  0.3646 -0.0824
  107MOL    C1827790   7.232   6.466   2.794 -0.2536 -0.3298  0.2141
  107MOL    C1927791   7.319   6.532   2.685  0.6186 -0.1141 -0.2630
  107MOL    H2027792   7.264   6.135   2.957 -0.2186 -0.0311 -0.0135
  107MOL    H2127793   7.235   6.177   3.118  0.5066 -1.5539 -0.5645
  107MOL    H2227794   7.268   6.428   3.048  2.5398 -0.3529  2.8809
  107MOL    H2327795   7.224   6.550   2.862  2.0576 -0.1027  0.2518
  107MOL    H2427796   7.131   6.427   2.781 -0.0425 -1.1403  0.9159
  107MOL    H2527797   7.259   6.594   2.618 -3.0845 -1.7331  1.4098
  107MOL    H2627798   7.366   6.461   2.617  1.5506 -1.5189  1.7914
  107MOL    H2727799   7.387   6.599   2.738  0.6083  0.5517 -1.0785
  107MOL    C2827800   7.455   6.330   3.020  0.2726 -1.1396 -0.1008
  107MOL    C2927801   7.495   6.299   3.162 -0.5775  0.2467  0.7487
  107MOL    O3027802   7.471   6.412   3.243  0.0483  0.0734  0.2748
  107MOL    C3127803   7.412   6.384   3.371  0.0165  1.1919  0.0600
  107MOL    C3227804   7.381   6.528   3.427 -0.1294 -0.0260  0.9110
  107MOL    H3327805   7.506   6.421   2.989  0.1925 -0.6001  1.3390
  107MOL    H3427806   7.486   6.257   2.945  0.9918 -1.7460  0.7856
  107MOL    H3527807   7.447   6.213   3.210 -2.0584  0.5652 -0.1120
  107MOL    H3627808   7.483   6.337   3.438 -1.5602  1.3822  1.8988
  107MOL    H3727809   7.321   6.325   3.356  1.6746 -1.3389 -0.4392
  107MOL    H3827810   7.324   6.590   3.357  0.5060 -1.9758 -1.4195
  107MOL    H3927811   7.347   6.532   3.530 -1.1802  0.4970  0.5512
  107MOL    H4027812   7.480   6.571   3.436 -0.4866  0.9952  0.0967
  107MOL    C4127813   7.645   6.276   3.163  0.6806  0.3779  0.3458
  107MOL    C4227814   7.706   6.177   3.056  0.0260 -0.0535  0.4522
  107MOL    O4327815   7.670   6.040   3.093 -0.3342  0.2690 -1.0569
  107MOL    C4427816   7.629   5.957   2.991  0.2353  0.3105 -0.0508
  107MOL    C4527817   7.631   5.814   3.048  0.6270 -0.1430 -0.4518
  107MOL    H4627818   7.678   6.256   3.265  0.8299  1.4147  0.5025
  107MOL    H4727819   7.696   6.371   3.147 -0.7182  1.6203  2.9344
  107MOL    H4827820   7.667   6.189   2.955 -0.9502  1.6119  1.0217
  107MOL    H4927821   7.702   5.966   2.910  0.6489  0.2278  0.3101
  107MOL    H5027822   7.531   5.985   2.952 -0.2334 -0.5796  0.4767
  107MOL    H5127823   7.738   5.793   3.057  0.3682 -1.5666 -0.5101
  107MOL    H5227824   7.596   5.804   3.151  0.8057 -1.0486 -0.4751
  107MOL    H5327825   7.598   5.739   2.976 -1.9822 -0.5166  1.0913
  107MOL    C5427826   0.012   6.185   3.033 -0.6529  0.0344  0.4635
  107MOL    C5527827   0.060   6.326   2.988 -0.2133  0.0541 -0.2170
  107MOL    O5627828   7.836   6.369   2.868  0.6557  0.2608  0.2524
  107MOL    C5727829   7.843   6.504   2.840  0.3053  0.2549 -0.0159
  107MOL    C5827830   7.721   6.562   2.763 -0.3970  0.6440  0.3615
  107MOL    H5927831   0.049   6.121   2.954  0.5707 -0.3051  1.3019
  107MOL    H6027832   0.052   6.163   3.132 -0.3466 -1.4178  0.0229
  107MOL    H6127833   0.034   6.402   3.061 -0.0671 -0.3909  0.2960
  107MOL    H6227834   0.088   6.535   2.785 -0.7682  2.1793 -0.7318
  107MOL    H6327835   0.014   6.566   2.928  1.9518  1.1165 -0.8714
  107MOL    H6427836   7.634   6.563   2.830 -0.2422  0.2707  0.5690
  107MOL    H6527837   7.732   6.669   2.743 -0.2848  0.6693  0.5630
  107MOL    H6627838   7.722   6.511   2.667  0.0481  0.9156  0.2190
  107MOL    C6727839   0.217   6.339   2.990  0.0288  0.0911 -0.7008
  107MOL    C6827840   0.296   6.310   3.121 -0.2467  0.2404  0.2911
  107MOL    O6927841   0.232   6.373   3.241 -0.2863  0.1078  0.0871
  107MOL    C7027842   0.220   6.286   3.349 -0.0346  0.0726 -0.7633
  107MOL    C7127843   0.134   6.334   3.463  0.0121  0.4716 -0.1175
  107MOL    H7227844   0.243   6.438   2.952  0.0034  1.6815  3.1624
  107MOL    H7327845   0.253   6.275   2.910 -0.4404  1.7847 -2.3185
  107MOL    H7427846   0.310   6.204   3.145 -0.1902  0.3743  0.8520
  107MOL    H7527847   0.318   6.253   3.383 -0.3970 -1.8244 -1.4712
  107MOL    H7627848   0.171   6.194   3.317  1.5058 -1.0918  0.1591
  107MOL    H7727849   0.036   6.363   3.425 -0.7764 -1.5405  0.3088
  107MOL    H7827850   0.107   6.236   3.503 -0.3362 -0.7961 -3.3019
  107MOL    H7927851   0.170   6.410   3.533  1.2922 -0.2281  0.0061
  107MOL    C8027852   0.440   6.358   3.117 -0.1551 -0.6192  0.5264
  107MOL    C8127853   0.524   6.291   3.004 -0.4960  0.0182  0.4644
  107MOL    O8227854   0.533   6.152   3.031 -0.4439 -0.1561 -0.3229
  107MOL    C8327855   0.545   6.072   2.915 -0.4036  0.2168 -0.6930
  107MOL    C8427856   0.584   5.933   2.976 -0.8402  0.1049 -0.8785
  107MOL    H8527857   0.486   6.330   3.212  2.7111 -1.0745 -0.9196
  107MOL    H8627858   0.435   6.466   3.102 -0.0188 -0.7822 -0.7855
  107MOL    H8727859   0.488   6.325   2.908  2.4434 -0.0349 -0.7265
  107MOL    H8827860   0.623   6.107   2.847 -1.2393 -0.1573 -1.8638
  107MOL    H8927861   0.448   6.064   2.866 -0.0850 -0.6919 -1.1872
  107MOL    H9027862   0.630   5.872   2.898  0.6536  0.8443 -0.5920
  107MOL    H9127863   0.649   5.932   3.063  1.6368  2.1936 -2.6348
  107MOL    H9227864   0.497   5.872   3.002 -0.9760 -0.1654 -1.9169
  107MOL    C9327865   0.671   6.352   3.002 -0.2383  0.1286  0.1633
  107MOL    C9427866   0.754   6.333   2.870  0.4250  0.5105  0.3093
  107MOL    O9527867   0.880   6.394   2.893 -0.0362 -0.1442 -0.1619
  107MOL    C9627868   0.993   6.311   2.894  0.1086  0.2017 -0.0066
  107MOL    C9727869   1.045   6.279   2.755  0.1205 -0.8680  0.6608
  107MOL    H9827870   0.732   6.313   3.083 -2.1060 -2.0764  0.5619
  107MOL    H9927871   0.657   6.457   3.026  4.1386  0.5827  1.2724
  107MOL   H10027872   0.772   6.229   2.842 -2.4375 -0.5900  2.3353
  107MOL   H10127873   0.979   6.215   2.944 -1.8412  0.2716 -0.3794
  107MOL   H10227874   1.076   6.363   2.943  1.8591  1.3344 -3.9843
  107MOL   H10327875   1.113   6.195   2.759  0.1683 -0.8476  0.2896
  107MOL   H10427876   0.964   6.240   2.693  2.1426 -1.4164 -1.6880
  107MOL   H10527877   1.095   6.366   2.714  1.9990 -1.3039  1.9842
  107MOL   C10627878   0.696   6.414   2.753  0.2834  0.0752  0.6631
  107MOL   C10727879   0.632   6.337   2.635 -0.4196  0.4658  0.3674
  107MOL   O10827880   0.736   6.295   2.548  0.1178  0.1111  0.5538
  107MOL   C10927881   0.692   6.200   2.455  0.5124 -0.5701 -0.5914
  107MOL   C11027882   0.811   6.147   2.393 -0.0714 -0.2968  0.5455
  107MOL   H11127883   0.768   6.483   2.707 -0.0109  0.9980  1.5736
  107MOL   H11227884   0.617   6.475   2.797 -0.9080 -1.4399  0.6477
  107MOL   H11327885   0.579   6.249   2.672  2.2654 -1.1331  0.5330
  107MOL   H11427886   0.625   6.236   2.376  1.7769  1.6200 -0.7125
  107MOL   H11527887   0.640   6.127   2.515 -0.4473  1.1006  0.6505
  107MOL   H11627888   0.845   6.223   2.323 -1.0615  0.3489  0.7594
  107MOL   H11727889   0.886   6.114   2.465  1.0785 -1.8185 -1.2832
  107MOL   H11827890   0.777   6.067   2.327  0.3946 -0.3237  0.3316
  107MOL   C11927891   0.544   6.436   2.563  0.0239  0.1631  0.1927
  107MOL   C12027892   0.395   6.424   2.598 -0.1947  0.1833  0.1944
  107MOL   O12127893   0.341   6.321   2.516 -0.3888  0.6367 -0.0077
  107MOL   C12227894   0.232   6.248   2.570 -0.3166 -0.1054 -0.7553
  107MOL   C12327895   0.200   6.117   2.495 -0.6171 -0.6458  0.1778
  107MOL   H12427896   0.558   6.413   2.457 -2.1724  0.2109 -0.1143
  107MOL   H12527897   0.571   6.541   2.571 -1.3317  0.7240 -2.2625
  107MOL   H12627898   0.385   6.409   2.706  0.8919  0.4955  0.3419
  107MOL   H12727899   0.144   6.311   2.555 -0.0847  0.5320  0.5198
  107MOL   H12827900   0.262   6.232   2.674  2.3576  0.7622 -1.3480
  107MOL   H12927901   0.114   6.069   2.543 -0.5017 -1.5365 -0.5119
  107MOL   H13027902   0.170   6.127   2.391 -0.6432  2.6482  0.4371
  107MOL   H13127903   0.287   6.052   2.501 -0.1221 -0.2991 -2.8563
  107MOL   C13227904   0.320   6.554   2.569  0.6471  0.3725  0.7169
  107MOL   C13327905   0.347   6.678   2.656  0.0698  0.4670 -0.0407
  107MOL   O13427906   0.319   6.634   2.788 -0.5665  0.0530 -0.1297
  107MOL   C13527907   0.376   6.721   2.885 -0.3925  0.0481  0.2865
  107MOL   C13627908   0.284   6.725   3.009  0.0800  0.4536  0.0938
  107MOL   H13727909   0.215   6.528   2.582  0.6097 -0.2293 -0.7259
  107MOL   H13827910   0.337   6.575   2.463 -1.4126 -0.2879  0.2276
  107MOL   H13927911   0.452   6.710   2.651  0.7774 -1.7477  0.0687
  107MOL   H14027912   0.390   6.826   2.861  0.2410 -0.5510 -2.1130
  107MOL   H14127913   0.478   6.691   2.912 -0.6728 -1.4546 -0.2801
  107MOL   H14227914   0.177   6.724   2.989  0.3178 -4.5685 -1.7522
  107MOL   H14327915   0.303   6.645   3.081  1.9615 -0.8698 -1.7840
  107MOL   H14427916   0.318   6.814   3.061 -0.4787 -0.8328  2.7614
  107MOL   C14527917   0.257   6.804   2.616 -0.2980  0.2101 -0.1469
  107MOL   C14627918   0.272   6.842   2.466  1.2401 -0.4018 -0.6884
  107MOL   O14727919   0.409   6.891   2.452 -0.3485  0.5767  0.1041
  107MOL   C14827920   0.489   6.832   2.346  0.2963 -0.6071  0.1200
  107MOL   C14927921   0.624   6.909   2.344 -0.2034  1.0011 -0.2829
  107MOL   H15027922   0.282   6.891   2.677  0.2501 -0.2362  0.2660
  107MOL   H15127923   0.154   6.782   2.643 -0.0384 -1.4235 -0.4891
  107MOL   H15227924   0.262   6.754   2.403  1.7697 -0.7952 -0.2327
  107MOL   H15327925   0.447   6.832   2.246  0.8323 -1.7070 -0.1112
  107MOL   H15427926   0.489   6.726   2.370 -2.3618 -0.6243  0.1780
  107MOL   H15527927   0.683   6.887   2.433 -1.2152 -0.0181  0.1530
  107MOL   H15627928   0.675   6.865   2.258 -1.2330 -1.9916  0.5833
  107MOL   H15727929   0.611   7.016   2.335 -3.4984  0.5698 -1.3106
  107MOL   C15827930   0.170   6.951   2.430  0.4197 -0.3571  0.0642
  107MOL   C15927931   0.171   6.991   2.279 -0.2306  0.0184  0.0814
  107MOL   O16027932   0.176   7.130   2.247 -0.5594 -0.8953 -0.3933
  107MOL   C16127933   0.289   7.203   2.277 -0.3759  0.3899 -0.7261
  107MOL   C16227934   0.282   7.333   2.199  0.3700 -0.0830  0.2535
  107MOL   H16327935   0.207   7.029   2.497  0.1608 -1.0911  1.0656
  107MOL   H16427936   0.067   6.946   2.465 -0.0605  0.6715 -1.1660
  107MOL   H16527937   0.260   6.944   2.237  0.2374  1.3953 -0.5157
  107MOL   H16627938   0.390   7.163   2.262  1.2147  2.8928  2.6133
  107MOL   H16727939   0.277   7.219   2.384  2.2890 -1.7550 -0.0509
  107MOL   H16827940   0.291   7.311   2.092  1.0693  1.2362  0.0149
  107MOL   H16927941   0.181   7.373   2.205  0.9613  1.4890 -0.0410
  107MOL   H17027942   0.352   7.410   2.232 -0.3165  0.9154 -0.5909
  107MOL   C17127943   0.046   6.947   2.208 -0.0359 -0.6744 -0.1464
  107MOL   C17227944   0.036   6.795   2.187  0.5206  0.4314  0.2912
  107MOL   O17327945   0.086   6.759   2.062  0.2957 -0.3791 -0.4112
  107MOL   C17427946   0.218   6.747   2.031 -0.2736 -0.0605 -0.0965
  107MOL   C17527947   0.238   6.672   1.893 -0.0321 -0.1215 -0.0380
  107MOL   H17627948   0.041   7.001   2.113  0.7980  1.0454  0.7505
  107MOL   H17727949   7.815   6.967   2.285 -0.0657 -3.0289  0.4591
  107MOL   H17827950   0.097   6.742   2.260  0.0058 -0.2146  0.2577
  107MOL   H17927951   0.271   6.682   2.101  0.2925  0.2268 -0.2573
  107MOL   H18027952   0.278   6.837   2.026 -0.5407  0.1332  0.1775
  107MOL   H18127953   0.188   6.732   1.817  0.0225 -0.2598 -0.1844
  107MOL   H18227954   0.346   6.670   1.876  0.5593  0.7373  3.2941
  107MOL   H18327955   0.201   6.570   1.900 -0.3678 -0.1277 -1.7097
  107MOL   C18427956   7.733   6.745   2.182 -0.2840 -0.5453 -0.6836
  107MOL   C18527957   7.699   6.594   2.177 -0.1517 -0.3219 -0.2415
  107MOL   O18627958   7.559   6.580   2.150 -0.6860  0.2493 -0.0111
  107MOL   C18727959   7.530   6.563   2.013  0.1888 -0.0351 -0.1681
  107MOL   C18827960   7.387   6.600   1.989 -0.5251  0.4308  0.3963
  107MOL   H18927961   7.700   6.796   2.092  0.5406 -0.2180 -0.8052
  107MOL   H19027962   7.682   6.785   2.270 -0.7449  3.6743 -2.7488
  107MOL   H19127963   7.761   6.559   2.095  2.3410 -0.4887  1.6476
  107MOL   H19227964   7.545   6.457   1.989  1.4389  0.0778  0.0927
  107MOL   H19327965   7.598   6.613   1.944 -0.9975  2.3090  0.3180
  107MOL   H19427966   7.332   6.537   2.059 -2.1133  0.1980 -1.0182
  107MOL   H19527967   7.365   6.705   2.006  0.7631  0.5609  1.3465
  107MOL   H19627968   7.359   6.564   1.890  1.7037  0.3145 -0.2139
  107MOL   C19727969   7.730   6.524   2.309 -0.0002 -0.6462 -0.3592
  107MOL   C19827970   7.779   6.383   2.291  0.1614  0.0247  0.0366
  107MOL   O19927971   0.052   6.363   2.205 -0.5398 -0.0148  0.0983
  107MOL   C20027972   0.168   6.434   2.258 -0.2268  0.7647  0.1294
  107MOL   C20127973   0.295   6.395   2.181 -0.2021 -0.0499 -0.5765
  107MOL   H20227974   7.641   6.532   2.373 -0.8374 -0.7031 -1.5049
  107MOL   H20327975   7.813   6.575   2.358 -1.0703 -1.1426  2.0626
  107MOL   H20427976   7.799   6.340   2.389  3.5591  2.1909  0.3975
  107MOL   H20527977   0.173   6.398   2.361  0.0747  0.1921 -0.0822
  107MOL   H20627978   0.146   6.540   2.252 -0.1070  0.7031 -1.5868
  107MOL   H20727979   0.271   6.407   2.075 -0.6309 -0.7527 -0.5648
  107MOL   H20827980   0.380   6.458   2.206 -1.0183  0.0385  2.1623
  107MOL   H20927981   0.329   6.292   2.187 -1.4283 -0.3542  2.1310
  107MOL   C21027982   7.666   6.289   2.234  0.2656  0.5683 -0.1063
  107MOL   C21127983   7.678   6.139   2.265  0.3060  0.0284 -0.0299
  107MOL   O21227984   7.712   6.119   2.403  0.2593  0.5354  0.0574
  107MOL   C21327985   7.617   6.174   2.499 -0.5810  0.0543  0.1157
  107MOL   C21427986   7.665   6.129   2.633 -0.3451  0.7042  0.6910
  107MOL   H21527987   7.674   6.303   2.126  1.2645  0.8286  0.0012
  107MOL   H21627988   7.568   6.322   2.271 -1.2877 -4.0812  0.1553
  107MOL   H21727989   7.579   6.095   2.254  0.9038 -1.1131 -0.9089
  107MOL   H21827990   7.522   6.127   2.474 -0.5060 -0.2949  0.4817
  107MOL   H21927991   7.614   6.283   2.500  1.9576  0.1569  1.0360
  107MOL   H22027992   7.767   6.160   2.657 -0.1469  0.6687 -0.0900
  107MOL   H22127993   7.592   6.158   2.708 -3.6119 -2.0906 -1.2875
  107MOL   H22227994   7.675   6.020   2.640 -0.6165  0.8203  3.6932
  107MOL   C22327995   7.771   6.063   2.178 -0.1683 -0.6459  0.0285
  107MOL   C22427996   7.725   6.031   2.033  0.6643  0.1574  0.2798
  107MOL   O22527997   7.626   5.938   2.057 -0.3437  0.4079 -0.1143
  107MOL   C22627998   7.548   5.910   1.947  0.5162 -0.0249 -0.1102
  107MOL   C22727999   7.417   5.838   1.962  0.0588 -0.4014  0.0602
  107MOL   H22828000   7.784   5.965   2.224  1.4352 -1.4011 -1.9405
  107MOL   H22928001   0.025   6.111   2.181  0.8962 -2.6798 -1.0250
  107MOL   H23028002   7.694   6.124   1.984  1.6052 -0.0142 -0.6603
  107MOL   H23128003   7.601   5.844   1.879 -1.2903 -2.5418  0.8439
  107MOL   H23228004   7.516   6.000   1.894 -2.2767 -0.0800  1.3549
  107MOL   H23328005   7.379   5.802   1.866  0.5425 -2.8775  0.7632
  107MOL   H23428006   7.437   5.745   2.015  1.2549  1.3468  2.7710
  107MOL   H23528007   7.346   5.885   2.029  0.1880 -1.8613  1.2353
  107MOL   C23628008   7.835   5.959   1.952 -0.3634 -0.6150  0.5193
  107MOL   C23728009   0.121   6.038   1.930  0.6487  0.0523  0.0181
  107MOL   O23828010   0.102   6.148   1.836  0.1075  0.1031 -0.2936
  107MOL   C23928011   0.094   6.278   1.888  0.0476 -0.0363  0.7757
  107MOL   C24028012   7.835   6.353   1.795  0.6477  0.2332  0.0317
  107MOL   H24128013   7.797   5.930   1.854  1.4913 -0.6127 -0.2273
  107MOL   H24228014   0.010   5.861   1.997 -1.9793 -1.1352  0.0686
  107MOL   H24328015   0.149   6.072   2.030 -3.3581  0.0648  1.2277
  107MOL   H24428016   0.195   6.318   1.896  0.3587 -0.2817 -1.4770
  107MOL   H24528017   0.048   6.288   1.986 -0.1523  0.1525  0.6636
  107MOL   H24628018   7.835   6.462   1.805  0.7592  0.2537 -0.2055
  107MOL   H24728019   0.006   6.313   1.695 -1.4870 -0.2365 -0.1184
  107MOL   H24828020   7.732   6.321   1.813  0.9586 -0.2183  1.0075
  107MOL   C24928021   0.236   5.953   1.866 -0.1563  0.8157  0.4014
  107MOL   C25028022   0.294   5.865   1.977 -0.6373 -0.1023  0.0489
  107MOL   O25128023   0.373   5.956   2.056  0.0373 -0.4406 -0.0119
  107MOL   C25228024   0.398   5.911   2.189  0.7443 -0.5839 -0.1252
  107MOL   C25328025   0.496   6.001   2.257  0.3171  0.4178 -0.5856
  107MOL   H25428026   0.319   6.017   1.836  0.7320  0.1767  1.4710
  107MOL   H25528027   0.198   5.899   1.778 -1.9459  2.4488  0.1388
  107MOL   H25628028   0.211   5.815   2.026 -1.5531  0.2310 -1.1429
  107MOL   H25728029   0.421   5.805   2.184  0.8400 -0.6720  1.5780
  107MOL   H25828030   0.305   5.910   2.247  0.7215  1.5579 -0.0847
  107MOL   H25928031   0.508   5.968   2.360 -0.1570 -0.0834 -0.6853
  107MOL   H26028032   0.586   5.987   2.197  0.9126 -0.8773  0.5773
  107MOL   H26128033   0.461   6.104   2.256  0.2527  0.3999 -0.2892
  107MOL   H26228034   0.355   5.787   1.932 -0.4518 -0.5477  1.0447
  108MOL     C128035   6.948   4.816   5.064 -0.0666  0.6260 -0.5635
  108MOL     C228036   6.907   4.936   4.981 -0.3328 -0.7705  0.1511
  108MOL     O328037   6.891   4.899   4.848  0.1964  0.1712 -0.0153
  108MOL     C428038   6.766   4.832   4.823 -0.2128  0.0044  0.1906
  108MOL     C528039   6.735   4.817   4.678  0.3419 -0.0929 -0.2144
  108MOL     H628040   6.960   4.845   5.168  1.7766 -2.1588  0.0472
  108MOL     H728041   6.868   4.742   5.057  1.0465 -0.8912  2.2614
  108MOL     H828042   6.826   4.994   5.025  0.5763 -0.9340  2.1124
  108MOL     H928043   6.681   4.879   4.873  0.7909  0.2088  1.7630
  108MOL    H1028044   6.785   4.733   4.863 -3.0324 -0.0843  1.3699
  108MOL    H1128045   6.814   4.770   4.620 -0.0467  1.4380 -2.0508
  108MOL    H1228046   6.638   4.769   4.663 -0.7024  1.9719 -0.2390
  108MOL    H1328047   6.727   4.921   4.644 -2.4721  0.0444  0.7011
  108MOL    H1428048   7.045   4.777   5.035 -0.1137  0.1988 -0.1491
  108MOL    C1528049   7.029   5.033   4.985 -0.1869 -0.6740  0.5988
  108MOL    C1628050   7.001   5.165   4.913 -0.7636 -0.2472 -0.1555
  108MOL    O1728051   7.128   5.228   4.896 -0.7550 -0.6655 -0.2127
  108MOL    C1828052   7.176   5.243   4.762 -0.0723 -0.0438 -0.7265
  108MOL    C1928053   7.307   5.318   4.762  0.3315 -0.1840 -0.1165
  108MOL    H2028054   7.112   4.977   4.941  1.2453  0.3365  1.9489
  108MOL    H2128055   7.047   5.056   5.090 -1.7248  0.3412  0.6599
  108MOL    H2228056   6.961   5.146   4.813 -0.1625  0.3087 -0.5068
  108MOL    H2328057   7.105   5.298   4.700 -1.6317 -1.7077 -0.4649
  108MOL    H2428058   7.179   5.148   4.709 -0.1492 -0.3409 -0.2015
  108MOL    H2528059   7.392   5.259   4.797 -0.1757 -1.3648 -0.8512
  108MOL    H2628060   7.298   5.413   4.815  0.8735 -0.8588  1.1843
  108MOL    H2728061   7.327   5.355   4.661  4.0711 -1.2626  0.1715
  108MOL    C2828062   6.921   5.264   5.007  0.0999 -0.4573  0.1512
  108MOL    C2928063   6.848   5.385   4.935 -1.4929 -0.4526  0.4164
  108MOL    O3028064   6.766   5.344   4.823 -0.0539  0.0226 -0.0934
  108MOL    C3128065   6.632   5.307   4.846 -0.5994 -0.1026  0.1517
  108MOL    C3228066   6.553   5.293   4.719  0.5626 -0.1581 -0.4627
  108MOL    H3328067   6.991   5.300   5.083  0.5960  0.2436 -0.6316
  108MOL    H3428068   6.844   5.208   5.061  1.0270 -3.1055 -1.1851
  108MOL    H3528069   6.781   5.443   5.000 -1.8471 -1.0033  0.5451
  108MOL    H3628070   6.592   5.384   4.912 -1.7127 -1.2165  0.7989
  108MOL    H3728071   6.623   5.216   4.906  0.2665  0.7331  1.5762
  108MOL    H3828072   6.455   5.251   4.741 -0.9224  3.6468  0.5854
  108MOL    H3928073   6.534   5.384   4.663  0.4292 -0.0908 -0.3090
  108MOL    H4028074   6.609   5.225   4.655  0.6040 -1.0500  0.5083
  108MOL    C4128075   6.943   5.495   4.897  0.0240 -0.2121  0.3653
  108MOL    C4228076   6.994   5.601   5.003  0.2572  0.4900 -0.0180
  108MOL    O4328077   6.936   5.735   4.984 -0.5627  0.4265 -0.4354
  108MOL    C4428078   6.986   5.807   4.864  0.7791  0.0882  0.2736
  108MOL    C4528079   7.000   5.950   4.905 -0.3363 -0.1202  0.3892
  108MOL    H4628080   6.880   5.556   4.832 -1.4230 -0.2601  1.6907
  108MOL    H4728081   7.020   5.477   4.822  0.1464 -0.7182  0.6128
  108MOL    H4828082   6.962   5.561   5.099  0.9022 -0.5217 -0.2186
  108MOL    H4928083   6.910   5.808   4.786 -0.5790 -1.3315  1.5520
  108MOL    H5028084   7.085   5.781   4.829  1.1869  0.7439  0.9335
  108MOL    H5128085   7.094   5.968   4.957  0.1127  0.6797 -0.6688
  108MOL    H5228086   7.007   6.012   4.815  0.7984 -1.5310 -0.5217
  108MOL    H5328087   6.919   5.994   4.964 -0.4173 -1.0576  0.9829
  108MOL    C5428088   7.149   5.593   5.013 -0.1006 -0.4050  0.3447
  108MOL    C5528089   7.205   5.699   5.111  0.3332  0.6667 -0.6282
  108MOL    O5628090   7.340   5.699   5.088  0.1864 -0.7621 -0.2733
  108MOL    C5728091   7.411   5.816   5.121 -0.4073  0.2839 -0.5538
  108MOL    C5828092   7.417   5.900   4.995 -0.2091  0.7778 -0.0069
  108MOL    H5928093   7.200   5.596   4.917 -1.8075  2.3642 -0.5531
  108MOL    H6028094   7.177   5.496   5.054  0.5486 -1.0261 -1.5468
  108MOL    H6128095   7.168   5.798   5.084 -2.4327  0.0085  0.5455
  108MOL    H6228096   7.512   5.787   5.148 -1.8736 -4.0442  0.6067
  108MOL    H6328097   7.367   5.874   5.203  0.5695  1.0332 -0.5511
  108MOL    H6428098   7.319   5.946   4.983  0.1269  1.4070 -0.3824
  108MOL    H6528099   7.491   5.977   5.016  0.2787 -0.1798  1.8869
  108MOL    H6628100   7.443   5.850   4.902 -0.6910  0.3929  0.0635
  108MOL    C6728101   7.181   5.671   5.262  0.9544  0.8654 -0.3698
  108MOL    C6828102   7.072   5.772   5.323 -0.4972 -0.3931  0.3365
  108MOL    O6928103   7.144   5.899   5.341  0.0591  0.1750  0.3338
  108MOL    C7028104   7.055   6.009   5.345  0.2341 -0.2966  0.6343
  108MOL    C7128105   7.126   6.142   5.345  0.1761 -0.7936 -0.5059
  108MOL    H7228106   7.272   5.678   5.322 -1.5856 -2.1003  4.1938
  108MOL    H7328107   7.161   5.564   5.269  0.9526  0.8176 -1.1040
  108MOL    H7428108   6.993   5.781   5.249 -0.2922 -1.9180 -0.0912
  108MOL    H7528109   6.982   5.997   5.425  0.5203 -1.4793  0.7367
  108MOL    H7628110   7.008   6.015   5.247 -1.3541  1.7176  1.4966
  108MOL    H7728111   7.186   6.168   5.433 -1.2377  0.8646 -0.0241
  108MOL    H7828112   7.196   6.146   5.262  1.2867  1.3954  0.4904
  108MOL    H7928113   7.054   6.222   5.334 -1.3599 -1.5694  2.9922
  108MOL    C8028114   7.019   5.725   5.465  0.4549  0.6978  0.0400
  108MOL    C8128115   6.915   5.605   5.457 -0.2438 -0.0589 -0.1799
  108MOL    O8228116   6.800   5.659   5.388 -0.1199 -0.4873  0.1669
  108MOL    C8328117   6.698   5.569   5.362 -0.3461 -0.0616 -0.9105
  108MOL    C8428118   6.589   5.648   5.292 -0.3708 -0.7241 -0.3114
  108MOL    H8528119   6.964   5.803   5.517  1.0006 -0.2798  2.1450
  108MOL    H8628120   7.106   5.699   5.527  0.4103 -0.4249 -0.3604
  108MOL    H8728121   6.954   5.527   5.391  1.1804  1.1850 -0.8453
  108MOL    H8828122   6.658   5.535   5.458  1.0524  0.1817 -0.2188
  108MOL    H8928123   6.730   5.485   5.300  0.2563 -0.0882 -0.5649
  108MOL    H9028124   6.619   5.691   5.196 -0.5135 -1.9527 -0.9319
  108MOL    H9128125   6.519   5.568   5.267 -0.3906 -0.2019 -2.0032
  108MOL    H9228126   6.545   5.716   5.364 -0.6532 -1.0805 -0.1433
  108MOL    C9328127   6.896   5.541   5.597  0.9088 -0.7244 -0.1708
  108MOL    C9428128   6.862   5.392   5.611 -1.0055  0.3686  0.0133
  108MOL    O9528129   6.869   5.340   5.748 -0.0868 -0.4327  0.0474
  108MOL    C9628130   6.812   5.426   5.848 -0.3807 -0.3595  0.3009
  108MOL    C9728131   6.809   5.349   5.982  0.1408 -0.3899  0.0437
  108MOL    H9828132   6.807   5.595   5.630  1.3536  0.5361 -0.9834
  108MOL    H9928133   6.976   5.559   5.669  0.0844  1.4244  0.2609
  108MOL   H10028134   6.760   5.382   5.575 -0.5587  1.9516 -1.7595
  108MOL   H10128135   6.715   5.466   5.816  0.3669  1.0146 -0.3005
  108MOL   H10228136   6.868   5.517   5.872 -1.7834  0.9384 -1.1883
  108MOL   H10328137   6.904   5.316   6.026  1.0169  0.8367 -0.9099
  108MOL   H10428138   6.762   5.396   6.068 -1.0758 -1.0047 -0.2677
  108MOL   H10528139   6.768   5.249   5.965  0.1662 -0.5212  0.7225
  108MOL   C10628140   6.953   5.293   5.528 -0.2166  0.0581 -0.2574
  108MOL   C10728141   6.908   5.146   5.535 -0.2254 -0.3167 -0.6382
  108MOL   O10828142   6.998   5.058   5.461  0.1756  0.6015  0.2949
  108MOL   C10928143   7.086   4.993   5.548 -1.1445  0.5342  0.2687
  108MOL   C11028144   7.158   4.890   5.480 -0.0165 -0.0225  0.3291
  108MOL   H11128145   7.053   5.298   5.572 -1.3978 -0.2948  2.6171
  108MOL   H11228146   6.953   5.321   5.423 -1.5093  1.6312  0.1510
  108MOL   H11328147   6.906   5.121   5.641  1.2520 -1.7037 -0.9124
  108MOL   H11428148   7.027   4.935   5.619 -0.2936 -2.1131 -1.0907
  108MOL   H11528149   7.144   5.063   5.607 -0.2948 -0.3183  0.4639
  108MOL   H11628150   7.086   4.815   5.445  0.2415  0.1320 -0.5657
  108MOL   H11728151   7.213   4.933   5.396 -0.6549  0.4139  0.1290
  108MOL   H11828152   7.230   4.838   5.543  0.2228 -0.8652 -0.6148
  108MOL   C11928153   6.779   5.114   5.464  0.0861  0.3603  0.1267
  108MOL   C12028154   6.721   4.985   5.521  0.3482  0.5767 -0.0153
  108MOL   O12128155   6.607   4.960   5.439 -0.1356  0.5499 -0.3685
  108MOL   C12228156   6.623   4.892   5.317  0.0183 -0.8316  0.0510
  108MOL   C12328157   6.556   4.992   5.212  1.2096  0.1273  0.5148
  108MOL   H12428158   6.794   5.103   5.357  1.7489 -3.4996  0.6973
  108MOL   H12528159   6.696   5.181   5.486 -0.0954 -0.0262  0.6452
  108MOL   H12628160   6.785   4.897   5.508 -2.8668 -2.1399  1.6788
  108MOL   H12728161   6.570   4.797   5.315 -0.3140 -0.6312 -1.7753
  108MOL   H12828162   6.725   4.893   5.279 -1.3153  2.5487 -3.8625
  108MOL   H12928163   6.455   4.997   5.252  0.5351 -3.7240 -0.5359
  108MOL   H13028164   6.599   5.092   5.207 -1.4139  1.3368  1.6235
  108MOL   H13128165   6.556   4.949   5.112  1.7336  2.6293 -0.5819
  108MOL   C13228166   6.676   4.996   5.667 -0.0606 -0.1689  0.2563
  108MOL   C13328167   6.629   4.871   5.746 -0.1262  0.0926 -0.2559
  108MOL   O13428168   6.583   4.917   5.873 -0.5671  0.3589 -0.5832
  108MOL   C13528169   6.477   4.837   5.924  0.3373 -0.1519 -0.2340
  108MOL   C13628170   6.438   4.907   6.041 -0.3384 -1.0790 -0.3558
  108MOL   H13728171   6.604   5.078   5.669  0.3737  0.2152  0.2495
  108MOL   H13828172   6.747   5.043   5.735  0.7240 -1.2739  0.2215
  108MOL   H13928173   6.550   4.829   5.683 -1.5702 -0.7218  2.0262
  108MOL   H14028174   6.520   4.740   5.950  0.7129 -0.2548 -1.2137
  108MOL   H14128175   6.397   4.829   5.851  0.1462 -2.6681  0.1813
  108MOL   H14228176   6.332   4.887   6.053 -0.2288 -1.7274 -0.4463
  108MOL   H14328177   6.507   4.880   6.121  1.6136  3.5789 -0.2916
  108MOL   H14428178   6.426   5.015   6.031 -1.1218 -1.2471 -1.2643
  108MOL   C14528179   6.731   4.763   5.755 -0.1131 -0.5037 -0.5015
  108MOL   C14628180   6.735   4.657   5.633  0.7888 -0.0148  0.0826
  108MOL   O14728181   6.631   4.552   5.641  0.2200 -0.1835 -0.2966
  108MOL   C14828182   6.495   4.596   5.597 -0.2987  0.1156  0.2791
  108MOL   C14928183   6.407   4.468   5.583  0.6385  0.4830 -0.1195
  108MOL   H15028184   6.723   4.704   5.846  1.2835  0.2530  0.1465
  108MOL   H15128185   6.830   4.809   5.761  0.6167 -1.7275 -2.5744
  108MOL   H15228186   6.720   4.714   5.541 -0.5223  0.1445  0.3782
  108MOL   H15328187   6.485   4.655   5.506 -0.0431  0.5938  0.5589
  108MOL   H15428188   6.447   4.659   5.671  1.6795  0.2482  1.4802
  108MOL   H15528189   6.308   4.500   5.551 -0.5577 -2.6589  0.3127
  108MOL   H15628190   6.452   4.402   5.509  0.2781 -0.7849  0.7731
  108MOL   H15728191   6.390   4.420   5.679  1.6677  1.4701  0.5643
  108MOL   C15828192   6.867   4.591   5.622  0.3570 -0.3858 -0.7389
  108MOL   C15928193   6.885   4.492   5.506 -0.2886  0.3259 -0.0386
  108MOL   O16028194   6.993   4.402   5.541 -0.2860 -0.4487 -0.2415
  108MOL   C16128195   6.965   4.281   5.606 -0.1989  0.1692 -0.6848
  108MOL   C16228196   7.081   4.206   5.668 -0.0694  0.0271  0.2460
  108MOL   H16328197   6.873   4.538   5.717  2.0472 -0.1257 -0.6898
  108MOL   H16428198   6.941   4.671   5.626  0.1366 -0.2501  1.0720
  108MOL   H16528199   6.802   4.423   5.491 -0.3941  0.2033  1.0929
  108MOL   H16628200   6.902   4.214   5.548 -0.7392 -0.8612  1.0756
  108MOL   H16728201   6.890   4.303   5.682 -0.1934 -2.0993  0.0124
  108MOL   H16828202   7.140   4.172   5.583  0.0404 -0.2606  0.4394
  108MOL   H16928203   7.143   4.272   5.730  1.0175 -0.9228  0.1925
  108MOL   H17028204   7.052   4.119   5.726 -0.6870  0.5059  0.6622
  108MOL   C17128205   6.934   4.565   5.383  0.2294  0.3331 -0.6562
  108MOL   C17228206   6.908   4.476   5.250  0.4504  1.0902 -0.0675
  108MOL   O17328207   7.009   4.504   5.156 -0.0328 -0.2177  0.0072
  108MOL   C17428208   7.133   4.455   5.192 -0.0732  0.2369 -0.5303
  108MOL   C17528209   7.230   4.522   5.092 -0.8665 -0.3524 -0.3706
  108MOL   H17628210   7.036   4.602   5.395  0.8082 -1.6697  0.7514
  108MOL   H17728211   6.867   4.651   5.381 -2.3454 -1.5410  1.6893
  108MOL   H17828212   6.913   4.369   5.271 -1.0711  0.9662 -0.3038
  108MOL   H17928213   7.126   4.348   5.171  1.0951 -0.0436  0.4604
  108MOL   H18028214   7.158   4.461   5.298 -3.3858 -0.4188  0.3413
  108MOL   H18128215   7.208   4.626   5.111 -0.9167 -0.6576  1.2948
  108MOL   H18228216   7.334   4.508   5.122  0.1839  1.3312 -3.0689
  108MOL   H18328217   7.205   4.498   4.989 -1.7855 -0.7574 -0.0598
  108MOL   C18428218   6.759   4.497   5.197 -1.4163  0.2326 -0.2706
  108MOL   C18528219   6.723   4.387   5.095 -0.2414 -0.6920  0.1461
  108MOL   O18628220   6.794   4.426   4.978 -0.2051 -0.0462  0.5958
  108MOL   C18728221   6.855   4.329   4.899  0.4675  0.7802 -0.2981
  108MOL   C18828222   6.913   4.397   4.766  0.1109 -0.4039  0.0166
  108MOL   H18928223   6.759   4.593   5.146 -0.3165 -0.3755 -1.4457
  108MOL   H19028224   6.685   4.511   5.276 -0.8844 -0.6744  0.4048
  108MOL   H19128225   6.762   4.291   5.130 -1.3860 -0.5031  2.0618
  108MOL   H19228226   6.782   4.249   4.881  0.5465  1.1741 -2.4221
  108MOL   H19328227   6.935   4.289   4.962  1.8727  1.4601 -1.6115
  108MOL   H19428228   6.842   4.462   4.715 -0.2884  1.0898  2.4050
  108MOL   H19528229   6.998   4.460   4.792 -0.5201  1.2207 -1.7676
  108MOL   H19628230   6.960   4.325   4.699 -0.3826 -0.5269 -0.2023
  108MOL   C19728231   6.577   4.374   5.059  0.1938  0.4888 -0.1012
  108MOL   C19828232   6.479   4.322   5.179 -0.4040 -0.1008  0.5637
  108MOL   O19928233   6.526   4.193   5.206  0.0019  0.4208  0.2461
  108MOL   C20028234   6.601   4.170   5.325 -0.5603 -0.1340  0.9463
  108MOL   C20128235   6.678   4.039   5.289 -0.6181 -0.7232 -0.2422
  108MOL   H20228236   6.566   4.311   4.970 -1.1441  0.6216 -0.0350
  108MOL   H20328237   6.546   4.473   5.029 -0.8673 -0.1421 -1.1165
  108MOL   H20428238   6.496   4.390   5.262 -1.0169  1.0419 -0.2379
  108MOL   H20528239   6.536   4.153   5.411 -0.8771 -0.1775  0.6979
  108MOL   H20628240   6.674   4.246   5.352 -0.2945 -0.0082 -0.1171
  108MOL   H20728241   6.610   3.961   5.255  0.5583 -1.0255 -1.9585
  108MOL   H20828242   6.755   4.053   5.213  1.2520  1.5001  1.9421
  108MOL   H20928243   6.736   3.988   5.367  0.9835 -2.2162 -2.3635
  108MOL   C21028244   6.330   4.318   5.143 -0.4979  0.1044 -0.0497
  108MOL   C21128245   6.276   4.459   5.115  0.2041 -0.4030 -0.4467
  108MOL   O21228246   6.256   4.529   5.240 -0.1700 -0.4053  0.0498
  108MOL   C21328247   6.299   4.669   5.235 -0.4423  0.9578 -0.6258
  108MOL   C21428248   6.260   4.744   5.361  0.4567 -0.5364 -0.4482
  108MOL   H21528249   6.274   4.271   5.224 -1.5413  1.0712 -0.1926
  108MOL   H21628250   6.310   4.243   5.066  3.1778 -3.2075  2.0437
  108MOL   H21728251   6.355   4.510   5.060  0.5242 -1.4705 -0.9802
  108MOL   H21828252   6.251   4.725   5.154 -0.7335  0.4535 -0.8056
  108MOL   H21928253   6.408   4.666   5.234 -0.4720 -0.6027 -1.1255
  108MOL   H22028254   6.280   4.685   5.450 -0.5312 -0.4816 -0.1810
  108MOL   H22128255   6.304   4.841   5.382 -2.4249  0.8704 -0.6757
  108MOL   H22228256   6.152   4.759   5.366  0.2586 -1.7220 -0.9111
  108MOL   C22328257   6.141   4.450   5.042 -0.0082 -0.4001 -0.2307
  108MOL   C22428258   6.134   4.407   4.894 -0.1878 -0.0722  0.3858
  108MOL   O22528259   6.189   4.515   4.815  0.5788  0.2668  0.6219
  108MOL   C22628260   6.319   4.494   4.765 -0.9111  1.4077  1.0214
  108MOL   C22728261   6.336   4.602   4.655  0.1639 -1.0767  0.4754
  108MOL   H22828262   6.085   4.542   5.057 -0.6137 -0.8063  0.0729
  108MOL   H22928263   6.068   4.389   5.097  2.8566 -1.1970  2.8770
  108MOL   H23028264   6.194   4.316   4.887  0.5594  0.5358 -1.3599
  108MOL   H23128265   6.342   4.396   4.722 -0.8985  2.0217 -0.3702
  108MOL   H23228266   6.401   4.508   4.836  0.8958 -0.0960 -0.7061
  108MOL   H23328267   6.442   4.627   4.647  0.1194 -0.7878  0.7396
  108MOL   H23428268   6.298   4.579   4.556 -0.5656  0.0461  0.4823
  108MOL   H23528269   6.289   4.697   4.681  0.1413 -0.5305 -1.4810
  108MOL   C23628270   5.993   4.390   4.831 -0.1345 -0.2734 -0.2690
  108MOL   C23728271   5.902   4.278   4.882 -0.6747 -0.3331 -0.2309
  108MOL   O23828272   5.982   4.170   4.922  0.6196  0.2765 -0.0801
  108MOL   C23928273   5.904   4.057   4.974 -0.0263 -1.0502  0.2474
  108MOL   C24028274   5.987   3.956   5.057  0.3048  0.5159  0.8817
  108MOL   H24128275   6.014   4.364   4.727 -0.7326 -1.2342 -0.1552
  108MOL   H24228276   5.948   4.490   4.831  0.1684 -0.1323  0.4107
  108MOL   H24328277   5.844   4.312   4.969 -0.0756 -0.9795  0.4239
  108MOL   H24428278   5.862   4.005   4.889 -3.5976  0.2546  1.1244
  108MOL   H24528279   5.821   4.098   5.032  0.5455 -0.4261  0.6326
  108MOL   H24628280   6.053   3.895   4.996 -1.9911 -1.8243  0.6739
  108MOL   H24728281   6.060   3.998   5.127 -0.4999  0.3145  1.8422
  108MOL   H24828282   5.916   3.890   5.106  0.4786  0.5761  1.2196
  108MOL   C24928283   5.799   4.235   4.775  0.1744 -0.6328  0.9339
  108MOL   C25028284   5.706   4.354   4.736 -0.0518  0.3350  0.9023
  108MOL   O25128285   5.603   4.317   4.652  0.1475 -0.1863 -0.2255
  108MOL   C25228286   5.539   4.434   4.599 -0.1920 -1.1483 -0.3878
  108MOL   C25328287   5.442   4.371   4.500  0.3274  0.5017  0.0530
  108MOL   H25428288   5.724   4.166   4.812 -0.6912 -1.5146 -2.3117
  108MOL   H25528289   5.837   4.188   4.684 -0.7060 -1.9382  1.2359
  108MOL   H25628290   5.667   4.388   4.832  1.0485 -1.1577  1.9026
  108MOL   H25728291   5.601   4.516   4.564 -0.8434 -0.8396 -0.8359
  108MOL   H25828292   5.476   4.471   4.681 -1.4786 -1.6479 -1.1279
  108MOL   H25928293   5.342   4.414   4.499 -1.0431 -2.5751  0.0459
  108MOL   H26028294   5.484   4.391   4.401 -0.5427 -1.3397 -0.7065
  108MOL   H26128295   5.428   4.263   4.495  2.9280  0.1294 -0.0225
  108MOL   H26228296   5.774   4.431   4.700 -0.5543 -0.3812 -1.6712
  109MOL     C128297   2.178   5.803   0.692 -0.4732 -0.3420  0.1604
  109MOL     C228298   2.260   5.682   0.710 -0.1701 -0.6293  0.1177
  109MOL     O328299   2.312   5.659   0.576  0.7026  0.1012 -0.1637
  109MOL     C428300   2.433   5.577   0.579 -0.5178  0.2799 -0.3397
  109MOL     C528301   2.500   5.580   0.441  0.0263 -0.1263  0.8458
  109MOL     H628302   2.146   5.839   0.790  0.3813  0.5443  0.1253
  109MOL     H728303   2.237   5.880   0.642  0.0418 -0.0915  1.1295
  109MOL     H828304   2.335   5.698   0.788 -0.1607  0.0787 -0.0338
  109MOL     H928305   2.407   5.473   0.600  0.3003 -0.1765 -1.5571
  109MOL    H1028306   2.501   5.607   0.659 -0.9144 -0.5767  0.3193
  109MOL    H1128307   2.514   5.683   0.410 -3.6790  0.5692  1.2685
  109MOL    H1228308   2.600   5.537   0.446  1.0764  2.1958  0.3696
  109MOL    H1328309   2.436   5.528   0.369  0.5300 -0.6384  0.7640
  109MOL    H1428310   2.092   5.770   0.634 -0.3112 -2.8970  1.3030
  109MOL    C1528311   2.162   5.562   0.734 -0.8670  0.0214 -0.4775
  109MOL    C1628312   2.092   5.572   0.866  0.4674  0.4070 -0.6525
  109MOL    O1728313   2.195   5.617   0.958 -0.0240  0.4551 -0.1682
  109MOL    C1828314   2.153   5.702   1.068 -0.1121  0.1617  0.2227
  109MOL    C1928315   2.279   5.776   1.104  0.4932  0.5756  0.0595
  109MOL    H2028316   2.220   5.471   0.719  0.5568  0.8064  0.2016
  109MOL    H2128317   2.090   5.557   0.652 -1.6760  1.4892  0.1243
  109MOL    H2228318   2.010   5.644   0.868 -1.5387 -1.8654  1.4597
  109MOL    H2328319   2.116   5.645   1.153 -1.1969 -0.6701 -0.7853
  109MOL    H2428320   2.077   5.773   1.038 -1.5090 -0.3721  2.4071
  109MOL    H2528321   2.369   5.719   1.081  0.3601 -0.3938  1.8989
  109MOL    H2628322   2.291   5.810   1.206 -0.3420 -0.9963  0.7029
  109MOL    H2728323   2.289   5.862   1.038  0.7517  1.8128  1.7076
  109MOL    C2828324   2.028   5.439   0.919 -0.1827  0.1269  0.0586
  109MOL    C2928325   1.908   5.396   0.827 -0.1756 -0.0854 -0.6169
  109MOL    O3028326   1.821   5.503   0.833 -0.1276 -0.3601 -0.4116
  109MOL    C3128327   1.740   5.508   0.718 -0.0784 -0.3329  0.4339
  109MOL    C3228328   1.667   5.642   0.732  0.1548 -0.1823 -0.2045
  109MOL    H3328329   2.003   5.457   1.024  1.3954 -0.9128  0.6373
  109MOL    H3428330   2.109   5.367   0.912  0.5175  0.6689  2.1778
  109MOL    H3528331   1.951   5.366   0.732 -0.4125 -1.2531 -0.3743
  109MOL    H3628332   1.674   5.423   0.740  0.0073 -0.7204 -0.7877
  109MOL    H3728333   1.784   5.494   0.620 -1.6284  0.8390 -0.4607
  109MOL    H3828334   1.608   5.643   0.823  0.0611 -2.1702 -0.2202
  109MOL    H3928335   1.741   5.721   0.720 -1.2600  1.0980 -0.7215
  109MOL    H4028336   1.596   5.665   0.652  1.6112 -0.1020 -1.5145
  109MOL    C4128337   1.832   5.272   0.891  0.3498  0.6125  0.4500
  109MOL    C4228338   1.915   5.146   0.891 -0.3055 -0.5751 -0.4537
  109MOL    O4328339   1.963   5.128   0.759  0.0107  0.0598 -0.3494
  109MOL    C4428340   2.104   5.103   0.760 -0.3577  0.1758 -0.3426
  109MOL    C4528341   2.139   5.082   0.610 -0.2804  0.3854 -0.2792
  109MOL    H4628342   1.746   5.241   0.831  0.3632  0.8459  0.3063
  109MOL    H4728343   1.790   5.298   0.988  0.7387  1.3378  0.4317
  109MOL    H4828344   1.994   5.168   0.963 -0.3624  2.2645 -1.2066
  109MOL    H4928345   2.122   5.011   0.815  1.4811  0.3497 -0.6063
  109MOL    H5028346   2.161   5.192   0.787 -0.1270  0.4039 -1.5233
  109MOL    H5128347   2.073   5.150   0.555 -2.0601 -1.0477  0.0129
  109MOL    H5228348   2.238   5.122   0.588  0.2809  0.0021  1.4826
  109MOL    H5328349   2.129   4.983   0.564  2.4705 -1.1626  2.2869
  109MOL    C5428350   1.824   5.034   0.932  0.6937  0.5014 -0.1403
  109MOL    C5528351   1.831   4.995   1.073 -0.4607  0.0577  0.1064
  109MOL    O5628352   1.971   4.980   1.114  0.2575 -0.4714 -0.2516
  109MOL    C5728353   1.999   4.984   1.257  0.1993  0.0304  0.4902
  109MOL    C5828354   1.994   5.124   1.324 -0.5788  0.6949  0.6043
  109MOL    H5928355   1.868   4.949   0.878  0.7917 -0.2367  1.0971
  109MOL    H6028356   1.718   5.045   0.911  0.5464 -0.6988 -0.0739
  109MOL    H6128357   1.784   5.077   1.127  0.5477  0.9101 -0.2886
  109MOL    H6228358   2.102   4.951   1.262 -0.1292 -0.9853  0.6243
  109MOL    H6328359   1.942   4.926   1.330  2.6167 -0.6878  1.8565
  109MOL    H6428360   2.039   5.128   1.423  2.1671 -0.1675 -0.5571
  109MOL    H6528361   2.032   5.204   1.260 -2.7972  1.2523 -0.0640
  109MOL    H6628362   1.888   5.145   1.337 -0.4253  1.5253  0.5480
  109MOL    C6728363   1.747   4.873   1.112 -0.1646 -0.7776 -0.1169
  109MOL    C6828364   1.603   4.912   1.157 -0.6712  0.2808  0.6770
  109MOL    O6928365   1.627   4.982   1.286 -0.1909 -0.0401  0.0907
  109MOL    C7028366   1.535   5.088   1.328 -0.0662 -0.0227  0.3158
  109MOL    C7128367   1.582   5.227   1.260 -0.3068  0.1775  0.4290
  109MOL    H7228368   1.802   4.814   1.185  2.4200  0.8534 -0.7009
  109MOL    H7328369   1.735   4.810   1.023  0.3008 -1.3683  0.2326
  109MOL    H7428370   1.565   4.990   1.091  0.3459 -0.2247 -0.5270
  109MOL    H7528371   1.533   5.096   1.437  1.7436 -3.3973  0.6832
  109MOL    H7628372   1.437   5.064   1.288  0.6884 -0.2538 -1.4592
  109MOL    H7728373   1.669   5.251   1.320  1.2585  1.4376 -2.2466
  109MOL    H7828374   1.606   5.218   1.154  0.2703  0.2021  0.5532
  109MOL    H7928375   1.514   5.312   1.268 -1.9897 -0.8256 -2.6099
  109MOL    C8028376   1.514   4.782   1.170  0.0154  0.3470  0.3196
  109MOL    C8128377   1.453   4.722   1.040 -0.2065  0.3657 -0.1909
  109MOL    O8228378   1.360   4.821   0.997  0.2375  0.1626 -0.0853
  109MOL    C8328379   1.323   4.832   0.856 -0.0059  0.8463 -0.2364
  109MOL    C8428380   1.280   4.974   0.820 -0.3091 -0.1678 -0.1040
  109MOL    H8528381   1.424   4.797   1.230 -0.3129 -0.9183  0.1564
  109MOL    H8628382   1.571   4.708   1.225 -1.3754 -1.2906 -0.3847
  109MOL    H8728383   1.532   4.713   0.965 -1.5425 -0.2065 -1.5627
  109MOL    H8828384   1.241   4.761   0.838 -0.4428  1.0623  0.8563
  109MOL    H8928385   1.402   4.792   0.793 -0.3204  0.7141 -0.5505
  109MOL    H9028386   1.366   5.039   0.808 -1.0310  0.8336  0.0578
  109MOL    H9128387   1.229   4.976   0.723  0.0902  0.5854 -0.3010
  109MOL    H9228388   1.211   5.016   0.893  0.0259 -0.9073  0.6361
  109MOL    C9328389   1.386   4.584   1.065  1.7011  0.6424 -0.5818
  109MOL    C9428390   1.475   4.461   1.050 -1.1729  0.5005  0.1985
  109MOL    O9528391   1.516   4.448   0.909  0.1280  0.3833 -0.4508
  109MOL    C9628392   1.649   4.435   0.891 -0.5934 -0.6460 -0.0951
  109MOL    C9728393   1.667   4.449   0.738 -0.0837  0.5460  0.0310
  109MOL    H9828394   1.295   4.574   1.005  0.5476  0.5452  1.1616
  109MOL    H9928395   1.341   4.578   1.164  0.4062  0.0267 -1.2010
  109MOL   H10028396   1.568   4.474   1.105 -0.5099 -0.9737 -0.5555
  109MOL   H10128397   1.696   4.346   0.932 -0.4270  0.3857  2.0158
  109MOL   H10228398   1.703   4.512   0.946 -0.5116  0.3693 -1.5526
  109MOL   H10328399   1.774   4.440   0.718  0.0451 -0.4106  1.0965
  109MOL   H10428400   1.618   4.363   0.692  1.6442  0.5048 -1.8178
  109MOL   H10528401   1.626   4.540   0.693 -0.4900  1.4766  2.2189
  109MOL   C10628402   1.412   4.323   1.081  0.4065 -0.0033  0.0097
  109MOL   C10728403   1.403   4.277   1.230 -0.1243 -0.1700 -0.3222
  109MOL   O10828404   1.356   4.391   1.300  0.2798  0.5127 -0.7922
  109MOL   C10928405   1.217   4.398   1.305  0.0401 -0.2452  0.4222
  109MOL   C11028406   1.182   4.520   1.397 -0.5739  0.1585 -0.1224
  109MOL   H11128407   1.459   4.244   1.023  1.1088  0.1962  0.3063
  109MOL   H11228408   1.310   4.322   1.044 -0.5305 -0.5374  2.4858
  109MOL   H11328409   1.348   4.183   1.238  0.0810 -0.0971  2.7855
  109MOL   H11428410   1.159   4.313   1.343 -1.4410 -0.1970 -1.6134
  109MOL   H11528411   1.175   4.414   1.205  1.2591 -1.7471 -0.3647
  109MOL   H11628412   1.223   4.495   1.495  1.7385  0.2477 -1.0409
  109MOL   H11728413   1.228   4.613   1.365  0.0489  0.1064  0.6133
  109MOL   H11828414   1.076   4.547   1.400 -0.4625  0.7653 -1.3209
  109MOL   C11928415   1.546   4.251   1.289 -0.1740  0.3159 -0.4517
  109MOL   C12028416   1.601   4.105   1.253 -0.1191 -0.2043 -0.0600
  109MOL   O12128417   1.507   4.008   1.301  0.3754  0.6299  0.2395
  109MOL   C12228418   1.520   3.887   1.230 -0.5012 -0.3570  0.4286
  109MOL   C12328419   1.469   3.771   1.317  0.5994  1.1132  0.0316
  109MOL   H12428420   1.541   4.248   1.398  0.4021 -0.9833 -0.4415
  109MOL   H12528421   1.621   4.326   1.266 -0.1994  0.0982 -1.2399
  109MOL   H12628422   1.617   4.109   1.145  0.0053 -0.5604 -0.0528
  109MOL   H12728423   1.623   3.871   1.197 -0.5492 -3.8753  1.8020
  109MOL   H12828424   1.447   3.905   1.152 -0.9373 -0.9531  0.7020
  109MOL   H12928425   1.531   3.745   1.402  1.4355 -1.7017 -1.3874
  109MOL   H13028426   1.368   3.800   1.347 -0.0533  2.9204 -3.5779
  109MOL   H13128427   1.450   3.677   1.266 -1.1132  1.3078  0.2742
  109MOL   C13228428   1.741   4.093   1.321  0.0064  0.0125  0.7093
  109MOL   C13328429   1.871   4.110   1.237 -0.1805  0.2908  0.6106
  109MOL   O13428430   1.980   4.046   1.305 -0.4263 -0.3120  0.5191
  109MOL   C13528431   1.986   3.909   1.257 -0.2002  0.1850  0.1170
  109MOL   C13628432   2.085   3.840   1.343  0.6528 -0.1343  0.2433
  109MOL   H13728433   1.735   3.989   1.356  1.5805 -0.5486 -0.6328
  109MOL   H13828434   1.755   4.149   1.413 -1.9689 -0.5649  1.3998
  109MOL   H13928435   1.859   4.070   1.136 -0.4695  0.1320  0.7101
  109MOL   H14028436   2.012   3.887   1.154 -0.6806  2.1197 -0.4436
  109MOL   H14128437   1.894   3.858   1.285 -0.1931  0.5496  0.8236
  109MOL   H14228438   2.100   3.734   1.321 -2.1373 -0.4876 -0.0844
  109MOL   H14328439   2.182   3.889   1.356  0.3478  0.9215 -1.2802
  109MOL   H14428440   2.049   3.837   1.445  1.3874 -1.7790  0.4769
  109MOL   C14528441   1.927   4.251   1.209 -0.3398  0.3813  0.3294
  109MOL   C14628442   2.062   4.261   1.136  0.0894  0.2164 -0.0546
  109MOL   O14728443   2.076   4.388   1.078 -0.3724 -0.3425 -0.5313
  109MOL   C14828444   2.135   4.481   1.163  0.5593 -0.7430 -0.2745
  109MOL   C14928445   2.047   4.609   1.179  0.0560  0.0820  0.7945
  109MOL   H15028446   1.940   4.305   1.303  0.5978  0.2172  0.3051
  109MOL   H15128447   1.854   4.304   1.149 -2.0574 -0.1515  1.8932
  109MOL   H15228448   2.149   4.231   1.195 -1.2137 -0.2514  1.6560
  109MOL   H15328449   2.232   4.506   1.120  0.1227 -0.8586 -1.3448
  109MOL   H15428450   2.162   4.440   1.261 -1.1961 -0.4115  0.3598
  109MOL   H15528451   2.104   4.686   1.231  0.3126  0.5021 -0.0923
  109MOL   H15628452   2.028   4.641   1.077 -1.5205 -0.0114  1.0448
  109MOL   H15728453   1.944   4.604   1.215 -1.1320  0.7503 -2.3751
  109MOL   C15828454   2.061   4.172   1.000 -0.0603 -0.2084 -0.5005
  109MOL   C15928455   2.180   4.185   0.901 -0.2404  0.2349 -0.1132
  109MOL   O16028456   2.141   4.131   0.775  0.2029 -0.4063  0.1883
  109MOL   C16128457   2.069   4.221   0.688  0.3207  0.5484 -0.1310
  109MOL   C16228458   2.019   4.137   0.571  0.0901 -0.1360  0.5362
  109MOL   H16328459   1.969   4.182   0.943 -1.1834 -0.7922  1.1476
  109MOL   H16428460   2.068   4.064   1.015  1.0988  0.0571  1.0357
  109MOL   H16528461   2.196   4.292   0.895 -2.9741  0.5659 -3.2333
  109MOL   H16628462   2.133   4.303   0.657  3.1298 -1.9256 -1.0698
  109MOL   H16728463   1.975   4.256   0.731  0.0199  0.6725 -0.8837
  109MOL   H16828464   1.968   4.200   0.498  1.0959 -0.6170 -0.6171
  109MOL   H16928465   2.103   4.098   0.513 -0.0988  1.6952 -1.0094
  109MOL   H17028466   1.947   4.061   0.601 -0.3443  0.3730  0.7788
  109MOL   C17128467   2.300   4.103   0.954  0.5558  0.3995 -0.0792
  109MOL   C17228468   2.426   4.136   0.877 -0.5145 -0.3599  0.3645
  109MOL   O17328469   2.510   4.023   0.884  0.0926 -0.1316 -0.3024
  109MOL   C17428470   2.473   3.929   0.786 -0.2435  0.0425  0.1368
  109MOL   C17528471   2.548   3.797   0.820 -0.1400 -0.4814 -0.4807
  109MOL   H17628472   2.288   3.995   0.957  0.6556  0.4074  0.6173
  109MOL   H17728473   2.314   4.125   1.059  0.6070 -2.3151  0.5263
  109MOL   H17828474   2.406   4.168   0.775 -0.9645 -1.6240  0.0457
  109MOL   H17928475   2.515   3.960   0.690  0.7554 -0.5460  0.3828
  109MOL   H18028476   2.364   3.925   0.775 -0.2635  2.2416 -0.6398
  109MOL   H18128477   2.527   3.725   0.740 -0.4630  0.0238 -0.8532
  109MOL   H18228478   2.653   3.817   0.800 -0.7927  1.9392 -1.6901
  109MOL   H18328479   2.531   3.749   0.917 -0.6396  0.3274 -0.1696
  109MOL   C18428480   2.507   4.256   0.942 -0.3906 -0.8004 -0.0618
  109MOL   C18528481   2.641   4.281   0.870 -0.1884  0.3754  0.0283
  109MOL   O18628482   2.748   4.264   0.954  0.6714  0.0519 -0.2081
  109MOL   C18728483   2.774   4.132   0.996  0.3744 -0.5911 -0.1576
  109MOL   C18828484   2.925   4.126   1.029  0.2277  0.1621  0.4969
  109MOL   H18928485   2.516   4.238   1.050 -1.0501 -0.3727  0.0735
  109MOL   H19028486   2.439   4.340   0.928  0.8883  0.2261 -0.1136
  109MOL   H19128487   2.659   4.216   0.785 -0.5638  1.2685 -0.7437
  109MOL   H19228488   2.763   4.067   0.909 -0.0432 -2.6075  1.3561
  109MOL   H19328489   2.713   4.093   1.077 -0.5629 -2.4615 -1.7104
  109MOL   H19428490   2.938   4.192   1.115  2.6182  1.0212 -0.4948
  109MOL   H19528491   2.953   4.023   1.051 -1.4203 -0.6942 -1.2422
  109MOL   H19628492   2.991   4.166   0.951  0.0509  0.0841  0.3060
  109MOL   C19728493   2.654   4.426   0.823 -0.6488  0.3580 -0.5092
  109MOL   C19828494   2.779   4.469   0.737  0.1886  0.2104 -0.2824
  109MOL   O19928495   2.747   4.599   0.683 -0.4645 -0.3080 -0.3534
  109MOL   C20028496   2.748   4.715   0.770 -0.6090  0.1875  0.2666
  109MOL   C20128497   2.775   4.843   0.692  0.4366 -0.2896  0.1222
  109MOL   H20228498   2.649   4.494   0.907  0.7095 -0.9582  0.6586
  109MOL   H20328499   2.566   4.453   0.765 -1.8078 -0.2126  0.9659
  109MOL   H20428500   2.865   4.475   0.804  0.2002 -0.9899 -0.1701
  109MOL   H20528501   2.822   4.705   0.849 -0.6286  0.5609  0.3319
  109MOL   H20628502   2.644   4.713   0.804 -0.9455  2.9256 -0.4761
  109MOL   H20728503   2.754   4.927   0.758 -0.0880 -1.9074  2.0375
  109MOL   H20828504   2.880   4.843   0.663  0.0448  0.4361 -1.3919
  109MOL   H20928505   2.717   4.862   0.601 -0.8128 -2.2398  0.4831
  109MOL   C21028506   2.812   4.379   0.616 -0.0548  0.2552 -0.8767
  109MOL   C21128507   2.944   4.393   0.543  0.1108 -0.3807 -0.5895
  109MOL   O21228508   2.943   4.315   0.421 -0.6310  0.2831 -0.0502
  109MOL   C21328509   2.867   4.361   0.307  0.3656  0.5141 -0.2083
  109MOL   C21428510   2.900   4.275   0.185  0.6582 -0.4315  0.4942
  109MOL   H21528511   2.730   4.385   0.544 -0.7748  1.4685  0.0172
  109MOL   H21628512   2.798   4.282   0.664  0.1722  1.1969  1.1525
  109MOL   H21728513   2.960   4.500   0.529  1.9336 -0.6089 -0.4026
  109MOL   H21828514   2.905   4.462   0.291  0.2518  0.3539 -1.6152
  109MOL   H21928515   2.759   4.355   0.322  0.3578 -1.8529 -0.9689
  109MOL   H22028516   3.008   4.282   0.172  0.3515  0.8441 -1.5510
  109MOL   H22128517   2.867   4.171   0.190 -2.1175  0.4128  0.6472
  109MOL   H22228518   2.863   4.321   0.094  1.5482  0.7573  0.7290
  109MOL   C22328519   3.063   4.340   0.620  0.5515  0.6111  0.7490
  109MOL   C22428520   3.206   4.369   0.567 -0.3369 -0.2391 -0.1938
  109MOL   O22528521   3.293   4.299   0.653  0.2693  0.1585 -0.5677
  109MOL   C22628522   3.362   4.186   0.596  0.5625 -0.1951 -0.0016
  109MOL   C22728523   3.475   4.137   0.680  0.9374 -0.2991  0.3005
  109MOL   H22828524   3.050   4.232   0.629 -0.3010  0.7667  1.4556
  109MOL   H22928525   3.063   4.374   0.724  0.1736  1.2338  0.5508
  109MOL   H23028526   3.209   4.328   0.466  3.4235  0.9930 -0.6798
  109MOL   H23128527   3.398   4.199   0.494 -1.7636 -0.4271 -0.8894
  109MOL   H23228528   3.288   4.106   0.589 -0.3831  0.6550  0.1493
  109MOL   H23328529   3.564   4.199   0.671 -0.2805  1.3157 -0.8530
  109MOL   H23428530   3.437   4.122   0.781 -2.6685 -2.5179 -1.2923
  109MOL   H23528531   3.511   4.039   0.647 -1.5690 -1.1101 -0.1760
  109MOL   C23628532   3.245   4.513   0.563 -1.8212  0.3304  0.1426
  109MOL   C23728533   3.379   4.547   0.503 -0.1153  0.2959 -0.2323
  109MOL   O23828534   3.435   4.670   0.554 -0.4322  0.2209 -0.0525
  109MOL   C23928535   3.480   4.665   0.689 -0.6447  0.2178 -0.7930
  109MOL   C24028536   3.498   4.802   0.755 -0.0929 -0.1855  0.4449
  109MOL   H24128537   3.235   4.557   0.663  0.4362  0.9583  0.1276
  109MOL   H24228538   3.165   4.569   0.515 -0.8393  1.2836 -0.4208
  109MOL   H24328539   3.454   4.474   0.535  0.3986  0.6372 -0.6433
  109MOL   H24428540   3.577   4.615   0.696 -0.4680  0.7146  0.4081
  109MOL   H24528541   3.413   4.609   0.755 -0.3455 -0.3049 -0.9300
  109MOL   H24628542   3.534   4.803   0.858 -0.8745  0.7489  0.7150
  109MOL   H24728543   3.569   4.864   0.700 -1.6009  0.6899 -0.5323
  109MOL   H24828544   3.401   4.850   0.755  0.8290  1.7256 -1.6253
  109MOL   C24928545   3.370   4.561   0.352 -0.3300 -0.8293 -0.3336
  109MOL   C25028546   3.518   4.564   0.297 -0.4124 -0.6486 -0.6852
  109MOL   O25128547   3.521   4.574   0.157 -0.2430  0.2562  0.0527
  109MOL   C25228548   3.651   4.547   0.102 -0.2832 -0.1932  0.0514
  109MOL   C25328549   3.640   4.577   7.792 -0.3750 -0.3930 -0.2946
  109MOL   H25428550   3.307   4.639   0.309  1.8953  1.6608  0.7906
  109MOL   H25528551   3.316   4.469   0.328 -0.5301 -0.5021 -1.1539
  109MOL   H25628552   3.582   4.641   0.341  1.1817 -0.2731 -3.4868
  109MOL   H25728553   3.660   4.439   0.112  1.1910 -0.0467  0.4512
  109MOL   H25828554   3.728   4.607   0.151 -1.7352  0.9675  0.9288
  109MOL   H25928555   3.551   4.527   7.753 -0.3907 -1.6172  1.2533
  109MOL   H26028556   3.624   4.684   7.777 -0.1840 -0.2281  0.6539
  109MOL   H26128557   3.729   4.556   7.734  0.6610  0.5751  0.9256
  109MOL   H26228558   3.565   4.469   0.322  0.2563  0.1186  1.0594
  110MOL     C128559   0.344   2.920   2.415 -0.2069 -0.3605  0.6428
  110MOL     C228560   0.326   2.794   2.512 -0.0871 -0.5460 -0.4395
  110MOL     O328561   0.433   2.701   2.473 -0.0746 -0.5242  0.1785
  110MOL     C428562   0.561   2.727   2.542 -0.1668  0.1808  0.7536
  110MOL     C528563   0.670   2.767   2.442 -0.4898  0.2450  0.9019
  110MOL     H628564   0.307   3.011   2.460  0.0679  1.0334 -1.8777
  110MOL     H728565   0.452   2.935   2.410 -0.0972 -1.3085 -0.0757
  110MOL     H828566   0.323   2.821   2.617  1.6093 -0.2025 -0.4596
  110MOL     H928567   0.592   2.635   2.590  0.3792 -0.0210  0.0254
  110MOL    H1028568   0.558   2.805   2.618 -0.5565  2.1432 -1.2098
  110MOL    H1128569   0.770   2.753   2.484  0.2458  2.6310  0.0220
  110MOL    H1228570   0.658   2.704   2.354  0.5263  0.6117  0.4919
  110MOL    H1328571   0.665   2.870   2.405  1.4161 -0.5042 -1.6392
  110MOL    H1428572   0.320   2.903   2.310 -0.0358 -0.4667  0.6201
  110MOL    C1528573   0.195   2.721   2.478  0.4012  0.3867  0.1313
  110MOL    C1628574   0.067   2.804   2.505  0.3515 -0.6019  0.1775
  110MOL    O1728575   0.033   2.780   2.643  0.0896 -0.3000  0.3464
  110MOL    C1828576   7.833   2.890   2.721  0.5324 -0.7841 -0.0624
  110MOL    C1928577   7.734   2.835   2.824  0.1489  0.1249 -0.2753
  110MOL    H2028578   0.172   2.633   2.537  2.1859  1.0334  1.8448
  110MOL    H2128579   0.202   2.688   2.374  2.2025  0.6951  0.1339
  110MOL    H2228580   0.089   2.908   2.482 -1.3382 -0.1263  0.6034
  110MOL    H2328581   7.775   2.965   2.666  1.1038 -0.2055  0.1143
  110MOL    H2428582   0.071   2.942   2.771 -0.2138  1.0232 -0.6636
  110MOL    H2528583   7.666   2.785   2.756 -0.0958 -0.4210  0.3660
  110MOL    H2628584   7.693   2.907   2.895 -0.9167 -2.3907  1.7194
  110MOL    H2728585   7.788   2.756   2.876 -1.1533 -1.1320 -0.7870
  110MOL    C2828586   7.793   2.780   2.415  0.3772  0.6013  0.1364
  110MOL    C2928587   7.734   2.640   2.418 -0.3466 -0.2713  0.7644
  110MOL    O3028588   7.825   2.554   2.351 -0.2130 -0.8812  0.0791
  110MOL    C3128589   0.000   2.425   2.399  0.1355  0.1518  0.1342
  110MOL    C3228590   0.102   2.360   2.303  0.5290  0.4821 -1.3633
  110MOL    H3328591   7.825   2.805   2.314 -0.5993  0.1433 -0.2874
  110MOL    H3428592   7.719   2.853   2.447  1.0278  1.4779 -0.3232
  110MOL    H3528593   7.732   2.606   2.521 -1.8339 -0.2198  0.7705
  110MOL    H3628594   7.758   2.359   2.403 -1.4935  2.0657 -1.5602
  110MOL    H3728595   0.047   2.434   2.497  0.2267  0.4772  0.0624
  110MOL    H3828596   0.190   2.423   2.288  0.2457  1.7694  1.9970
  110MOL    H3928597   0.136   2.265   2.343 -2.7561  0.0178  0.5037
  110MOL    H4028598   0.052   2.340   2.208 -0.0216 -2.0042 -0.5905
  110MOL    C4128599   7.592   2.621   2.367  0.1488  0.1318 -0.6435
  110MOL    C4228600   7.572   2.672   2.218  0.1953  0.1994 -0.0108
  110MOL    O4328601   7.579   2.815   2.228 -0.2607  0.4601 -0.1168
  110MOL    C4428602   7.641   2.874   2.113 -0.2360  0.0023  0.1343
  110MOL    C4528603   7.604   3.018   2.101 -0.1485 -0.0559 -0.2534
  110MOL    H4628604   7.520   2.682   2.421 -0.0592 -0.6799 -0.0015
  110MOL    H4728605   7.569   2.515   2.378 -0.9936  0.7087  3.1070
  110MOL    H4828606   7.649   2.621   2.161  0.0281  1.7264 -1.6204
  110MOL    H4928607   7.614   2.812   2.028  2.8044  1.7597 -2.2161
  110MOL    H5028608   7.750   2.877   2.120 -0.1305  2.1704 -1.9240
  110MOL    H5128609   7.654   3.067   2.017  1.0544 -1.3668 -0.3074
  110MOL    H5228610   7.497   3.024   2.081 -0.0316  0.1170 -0.8263
  110MOL    H5328611   7.629   3.082   2.186  0.8913  2.2813 -2.2507
  110MOL    C5428612   7.442   2.621   2.154 -1.2324 -0.2854  0.1395
  110MOL    C5528613   7.444   2.467   2.118  0.1077 -0.0837  0.2705
  110MOL    O5628614   7.531   2.454   1.998 -0.1431  0.3004 -0.7178
  110MOL    C5728615   7.585   2.327   1.968 -0.1140 -0.1091 -0.0012
  110MOL    C5828616   7.631   2.334   1.822 -0.0672  0.1498 -0.0369
  110MOL    H5928617   7.422   2.671   2.059  0.1432 -2.1803 -1.2081
  110MOL    H6028618   7.358   2.641   2.220 -0.5101 -0.3759  1.0960
  110MOL    H6128619   7.479   2.406   2.200 -0.1364 -1.4534 -0.6362
  110MOL    H6228620   7.528   2.235   1.974  0.4812 -0.5557 -0.9165
  110MOL    H6328621   7.671   2.317   2.035  0.4863  1.8483 -0.4329
  110MOL    H6428622   7.549   2.325   1.751 -3.2560 -0.5828  3.5474
  110MOL    H6528623   7.696   2.418   1.795  0.1084  0.3266  0.9186
  110MOL    H6628624   7.687   2.250   1.783  0.3935  0.2656  0.3660
  110MOL    C6728625   7.305   2.424   2.080 -0.0053  0.9040  0.0910
  110MOL    C6828626   7.222   2.361   2.201 -0.0948  0.1315  0.1640
  110MOL    O6928627   7.146   2.251   2.157 -0.0601  1.0731 -0.4884
  110MOL    C7028628   7.228   2.131   2.150 -0.0481 -0.7383 -0.4083
  110MOL    C7128629   7.165   2.048   2.038 -0.4768  0.1291 -0.1530
  110MOL    H7228630   7.319   2.339   2.014 -2.5955 -0.6450  1.4759
  110MOL    H7328631   7.254   2.504   2.026  0.2066  0.9953  0.0251
  110MOL    H7428632   7.295   2.321   2.271  0.1479 -0.1380 -0.2404
  110MOL    H7528633   7.230   2.078   2.245  0.4918 -0.9346 -0.5302
  110MOL    H7628634   7.333   2.157   2.137 -0.1651 -0.0107  0.0907
  110MOL    H7728635   7.157   2.100   1.943  1.9069  2.6778  0.9611
  110MOL    H7828636   7.213   1.951   2.022 -0.1752  0.1083  0.8093
  110MOL    H7928637   7.060   2.024   2.056 -0.9258 -0.2942 -3.0739
  110MOL    C8028638   7.122   2.452   2.270 -0.3027 -0.5271  0.1659
  110MOL    C8128639   7.040   2.376   2.388  0.0843 -0.3674 -0.1266
  110MOL    O8228640   6.934   2.455   2.447 -0.1500 -0.3782 -0.8936
  110MOL    C8328641   6.831   2.495   2.362 -0.1749 -0.3097  0.5232
  110MOL    C8428642   6.716   2.560   2.447  0.0182 -0.2941  0.4194
  110MOL    H8528643   7.067   2.487   2.183  2.0776 -0.9427 -1.5507
  110MOL    H8628644   7.168   2.537   2.320 -1.4564 -0.3041  0.8742
  110MOL    H8728645   6.985   2.294   2.342 -0.4288 -1.4899  2.3828
  110MOL    H8828646   6.779   2.406   2.326  0.7338  0.1719 -2.0902
  110MOL    H8928647   6.869   2.543   2.271  1.9395 -0.1166  1.4836
  110MOL    H9028648   6.628   2.583   2.388  1.1977 -1.4536 -1.8335
  110MOL    H9128649   6.679   2.495   2.527  1.2946  0.3641  1.5651
  110MOL    H9228650   6.752   2.654   2.490 -0.9167 -0.6410  2.0112
  110MOL    C9328651   7.129   2.317   2.495 -0.6850  0.3372 -0.6588
  110MOL    C9428652   7.209   2.412   2.596 -0.1616 -0.4108 -0.4415
  110MOL    O9528653   7.344   2.354   2.602 -0.2135 -0.2324  0.3090
  110MOL    C9628654   7.441   2.447   2.651  0.1588 -0.0414  0.6898
  110MOL    C9728655   7.560   2.356   2.684  0.0649  0.2997  0.1349
  110MOL    H9828656   7.201   2.247   2.453 -2.3304 -0.9838 -1.3503
  110MOL    H9928657   7.065   2.257   2.560 -1.1041 -1.2768 -2.5466
  110MOL   H10028658   7.213   2.511   2.550 -2.4042 -0.4577 -0.7659
  110MOL   H10128659   7.409   2.495   2.744  1.7233 -2.1168  2.3452
  110MOL   H10228660   7.455   2.523   2.575 -0.6103 -2.4856 -1.9548
  110MOL   H10328661   7.649   2.416   2.703  0.3764 -0.1769  0.1954
  110MOL   H10428662   7.559   2.294   2.773  0.5499  0.9999  0.6362
  110MOL   H10528663   7.590   2.295   2.598  0.5416  2.3817 -1.2310
  110MOL   C10628664   7.155   2.417   2.746 -0.0628  0.0559  0.3205
  110MOL   C10728665   7.065   2.540   2.779  0.1764 -0.1380  0.5377
  110MOL   O10828666   7.125   2.669   2.763  0.3603  0.1626 -0.4299
  110MOL   C10928667   7.104   2.742   2.640 -0.2157  0.8647  0.6055
  110MOL   C11028668   7.237   2.814   2.607  0.0128  0.1654 -1.2019
  110MOL   H11128669   7.238   2.417   2.816 -0.4060  2.7650  0.7955
  110MOL   H11228670   7.112   2.319   2.762  0.5185 -0.1176  0.8196
  110MOL   H11328671   6.992   2.523   2.699  1.2734 -1.4135 -0.2056
  110MOL   H11428672   7.032   2.823   2.648  1.5925  2.5701  0.0893
  110MOL   H11528673   7.068   2.674   2.563  0.6469  0.7584  0.2926
  110MOL   H11628674   7.250   2.908   2.659 -1.2692  0.2974 -1.0930
  110MOL   H11728675   7.306   2.744   2.653 -2.1449 -2.7592 -2.2517
  110MOL   H11828676   7.239   2.813   2.498  0.8486  0.3614 -1.1864
  110MOL   C11928677   6.998   2.517   2.917  0.5627 -0.6443 -0.2780
  110MOL   C12028678   6.854   2.584   2.944 -0.1874  0.1328 -0.3144
  110MOL   O12128679   6.765   2.521   2.850  0.4986 -0.5743  0.3600
  110MOL   C12228680   6.729   2.388   2.857 -0.2324 -0.0020  0.2004
  110MOL   C12328681   6.577   2.358   2.809  0.2704  0.7779 -0.1270
  110MOL   H12428682   7.056   2.557   3.001  0.1461  0.2124 -0.3958
  110MOL   H12528683   6.986   2.410   2.935 -3.0731 -0.2677 -0.1435
  110MOL   H12628684   6.830   2.569   3.049 -2.5507  0.5781 -0.7750
  110MOL   H12728685   6.733   2.346   2.957  0.8988 -1.4920 -0.4592
  110MOL   H12828686   6.792   2.331   2.789 -0.3221  1.4559 -1.1536
  110MOL   H12928687   6.553   2.252   2.813 -1.3612  1.2076  2.5843
  110MOL   H13028688   6.506   2.391   2.885 -0.4273 -2.3432  0.6378
  110MOL   H13128689   6.566   2.396   2.707 -1.4458  0.3974 -0.0940
  110MOL   C13228690   6.854   2.733   2.911 -0.4343  0.0946 -0.2106
  110MOL   C13328691   6.930   2.826   3.000  0.1047 -0.0195  0.2186
  110MOL   O13428692   6.889   2.837   3.137  0.2484  0.4709  0.2713
  110MOL   C13528693   6.961   2.762   3.233 -0.4952  0.0090  0.1005
  110MOL   C13628694   6.893   2.778   3.368 -0.2520 -0.2673 -0.4543
  110MOL   H13728695   6.755   2.775   2.930  0.4159  0.9083  2.7185
  110MOL   H13828696   6.870   2.726   2.804  1.1710 -2.5697  0.1519
  110MOL   H13928697   7.030   2.786   2.986  0.0160 -1.0351  2.3641
  110MOL   H14028698   7.061   2.807   3.235 -0.4361 -0.1523  2.0280
  110MOL   H14128699   6.959   2.656   3.210 -0.9428  0.3489 -1.4985
  110MOL   H14228700   6.902   2.879   3.407  1.8797  0.0875 -1.7441
  110MOL   H14328701   6.788   2.753   3.360  0.0597 -0.7682 -3.8396
  110MOL   H14428702   6.926   2.713   3.449 -0.9658  2.5621  2.2159
  110MOL   C14528703   6.915   2.970   2.936  0.6564  0.2534 -0.5107
  110MOL   C14628704   7.025   3.057   2.981 -0.4195  0.1189  0.2926
  110MOL   O14728705   6.979   3.187   2.954 -0.1085 -0.6478  0.0582
  110MOL   C14828706   6.904   3.240   3.061  0.1368  0.2349  0.4943
  110MOL   C14928707   6.807   3.354   3.026  0.1158 -0.0902 -0.5750
  110MOL   H15028708   6.820   3.012   2.969  1.0063  1.7101 -1.3066
  110MOL   H15128709   6.915   2.956   2.828 -1.0982 -2.0730 -0.2518
  110MOL   H15228710   7.056   3.043   3.084  1.4168 -2.0963 -0.5152
  110MOL   H15328711   6.972   3.260   3.143 -0.3100  0.1568  0.8920
  110MOL   H15428712   6.831   3.168   3.099  0.1229  0.3510  0.6891
  110MOL   H15528713   6.776   3.405   3.118 -2.1868  0.5857 -1.6874
  110MOL   H15628714   6.861   3.430   2.969  2.9311 -1.9146 -0.4451
  110MOL   H15728715   6.727   3.312   2.966 -0.1258 -2.0398  1.0771
  110MOL   C15828716   7.153   3.035   2.898  0.0996 -0.1958 -0.7045
  110MOL   C15928717   7.262   3.141   2.924  0.4416  0.7968  0.4785
  110MOL   O16028718   7.372   3.104   2.842  0.4459 -0.4041 -0.0533
  110MOL   C16128719   7.367   3.164   2.712 -0.2456 -0.2789 -0.1477
  110MOL   C16228720   7.492   3.104   2.635  0.0074  0.0311 -0.6419
  110MOL   H16328721   7.120   3.035   2.794 -1.1534  0.9177 -0.3186
  110MOL   H16428722   7.189   2.932   2.906 -1.9559 -0.8460  0.5559
  110MOL   H16528723   7.230   3.243   2.898 -0.9054  0.2584 -0.0287
  110MOL   H16628724   7.375   3.272   2.720 -0.4984 -0.2965  0.3909
  110MOL   H16728725   7.269   3.142   2.671  0.6479  0.0055 -2.4913
  110MOL   H16828726   7.476   2.996   2.630  1.3158 -0.1113 -1.7610
  110MOL   H16928727   7.485   3.154   2.538 -1.6530  0.6987 -0.2062
  110MOL   H17028728   7.595   3.123   2.665 -0.3240  0.8634 -0.0085
  110MOL   C17128729   7.323   3.144   3.062  0.4836 -0.3407  0.4040
  110MOL   C17228730   7.409   3.271   3.092 -0.8208  0.2289  0.0682
  110MOL   O17328731   7.332   3.389   3.059  0.1782  0.0056  0.4773
  110MOL   C17428732   7.231   3.422   3.153 -0.3985 -0.2156 -0.3147
  110MOL   C17528733   7.142   3.534   3.084 -0.4715  0.1469  0.3751
  110MOL   H17628734   7.389   3.057   3.068 -0.1757 -1.1667 -3.1113
  110MOL   H17728735   7.252   3.134   3.144 -0.4213  0.9103 -0.2246
  110MOL   H17828736   7.446   3.271   3.195  0.7387 -0.2192 -0.4914
  110MOL   H17928737   7.276   3.448   3.249  1.1283 -0.3457 -0.9753
  110MOL   H18028738   7.166   3.338   3.174  0.2192 -0.2683  1.5318
  110MOL   H18128739   7.206   3.620   3.066 -1.8421  0.9323 -0.9327
  110MOL   H18228740   7.111   3.514   2.981  1.3972  2.2191 -0.6211
  110MOL   H18328741   7.056   3.563   3.146 -1.5052 -0.7914 -0.5930
  110MOL   C18428742   7.546   3.281   3.022 -0.2250  0.1705  0.2201
  110MOL   C18528743   7.651   3.172   3.062  0.4356 -0.3558 -0.1465
  110MOL   O18628744   7.684   3.196   3.200 -0.4126  1.0119 -0.6840
  110MOL   C18728745   7.758   3.091   3.261 -0.6236  0.0350 -0.7611
  110MOL   C18828746   7.806   3.120   3.403 -0.1295  0.0059  0.4762
  110MOL   H18928747   7.581   3.384   3.020 -2.1803  0.9125  2.6330
  110MOL   H19028748   7.535   3.254   2.917  4.0304 -0.2416 -0.2082
  110MOL   H19128749   7.610   3.072   3.045 -0.9552  0.3191 -0.7901
  110MOL   H19228750   0.008   3.072   3.209  0.2252  0.4047  0.5988
  110MOL   H19328751   7.698   3.000   3.259  0.0260 -0.4057 -0.4752
  110MOL   H19428752   0.017   3.037   3.447 -1.4007 -2.5094 -2.5774
  110MOL   H19528753   0.036   3.201   3.397 -1.0975  0.7861 -1.3659
  110MOL   H19628754   7.722   3.147   3.468 -2.1717 -0.2872 -1.9547
  110MOL   C19728755   7.783   3.185   2.975  0.2419  0.0761 -0.2506
  110MOL   C19828756   7.842   3.326   2.972 -1.0287  0.6073  0.1921
  110MOL   O19928757   0.089   3.315   2.860 -0.1516  0.4947 -0.3141
  110MOL   C20028758   0.018   3.336   2.736 -0.3481 -0.3379 -0.0087
  110MOL   C20128759   0.081   3.274   2.614 -0.2684 -0.4965 -0.1507
  110MOL   H20228760   7.741   3.154   2.880 -1.5841 -0.0876  0.5892
  110MOL   H20328761   0.010   3.102   2.985  1.7736  1.3937  0.0941
  110MOL   H20428762   7.771   3.407   2.958 -0.9353  1.1231  2.5291
  110MOL   H20528763   0.024   3.445   2.729  0.3449 -0.2449  1.7329
  110MOL   H20628764   7.754   3.324   2.743 -0.2012 -2.2072 -0.6943
  110MOL   H20728765   0.185   3.306   2.601 -0.6404  0.5214 -0.6556
  110MOL   H20828766   0.087   3.166   2.624  1.7596 -0.4016 -0.1307
  110MOL   H20928767   0.034   3.308   2.522  1.2921  1.2194 -0.3445
  110MOL   C21028768   0.093   3.360   3.086  0.4325  0.3315  0.1537
  110MOL   C21128769   0.131   3.504   3.099 -0.4393  0.1345  0.0631
  110MOL   O21228770   0.216   3.555   2.998 -0.4186 -0.5984 -0.0618
  110MOL   C21328771   0.348   3.510   2.974 -0.1081  0.3468 -0.4570
  110MOL   C21428772   0.385   3.597   2.858 -0.2436  0.0262 -0.7459
  110MOL   H21528773   0.182   3.298   3.081 -0.4020 -0.9015  0.3368
  110MOL   H21628774   0.048   3.321   3.178 -2.3426  0.8004 -0.9725
  110MOL   H21728775   0.040   3.563   3.092 -0.9434 -0.5522  0.7526
  110MOL   H21828776   0.357   3.405   2.948 -1.0866  0.4247 -1.1714
  110MOL   H21928777   0.416   3.518   3.058 -0.7229 -0.8958  0.1649
  110MOL   H22028778   0.490   3.585   2.834  0.2574 -0.0450  1.3386
  110MOL   H22128779   0.329   3.555   2.774 -1.8470 -1.1595  0.8659
  110MOL   H22228780   0.352   3.700   2.872  0.7541  0.2219  0.2396
  110MOL   C22328781   0.165   3.545   3.247  0.0058  0.2122  0.1852
  110MOL   C22428782   0.054   3.616   3.324  0.1186 -0.5925  0.4445
  110MOL   O22528783   0.095   3.642   3.463 -0.9352 -0.0797  0.3590
  110MOL   C22628784   0.142   3.775   3.486  0.5491 -0.0624 -0.5968
  110MOL   C22728785   0.179   3.773   3.636 -0.2780 -0.2663 -0.0467
  110MOL   H22828786   0.255   3.606   3.250  0.4428 -0.4562  0.6075
  110MOL   H22928787   0.209   3.461   3.301 -2.4008  0.1242  2.1505
  110MOL   H23028788   0.027   3.709   3.275  2.4674 -0.8341 -1.4122
  110MOL   H23128789   0.067   3.849   3.459 -0.5507 -0.8069  0.3406
  110MOL   H23228790   0.232   3.800   3.430  0.5305 -1.6602 -1.3812
  110MOL   H23328791   0.226   3.865   3.670 -0.3385 -1.2794  2.9893
  110MOL   H23428792   0.082   3.762   3.685  1.4411 -0.9198  3.3571
  110MOL   H23528793   0.241   3.685   3.658  1.1690  0.9119  0.7020
  110MOL   C23628794   7.778   3.522   3.358  0.3141  0.3686  0.4585
  110MOL   C23728795   7.654   3.600   3.401 -0.5010 -0.0264  0.5562
  110MOL   O23828796   7.577   3.499   3.467 -0.5861  0.4894 -0.1264
  110MOL   C23928797   7.567   3.512   3.605  0.2298  0.2549  0.4879
  110MOL   C24028798   7.499   3.397   3.673  0.0544 -0.4759 -0.5163
  110MOL   H24128799   7.815   3.457   3.437 -0.0377 -0.6283 -0.2006
  110MOL   H24228800   7.745   3.456   3.278 -1.9096 -1.2267  2.6257
  110MOL   H24328801   7.685   3.681   3.467 -0.1885  0.9878 -0.8282
  110MOL   H24428802   7.514   3.605   3.626  0.2048  0.5572 -0.8458
  110MOL   H24528803   7.666   3.517   3.650  0.6911 -1.6671 -0.2607
  110MOL   H24628804   7.392   3.395   3.651  0.1178  0.2270 -0.9144
  110MOL   H24728805   7.559   3.307   3.659  0.9003  0.2566 -1.6876
  110MOL   H24828806   7.506   3.426   3.778  1.8856 -1.1508 -0.4288
  110MOL   C24928807   7.576   3.650   3.276  0.6073 -0.3728 -0.0373
  110MOL   C25028808   7.442   3.713   3.307  0.6676 -1.1248 -0.0489
  110MOL   O25128809   7.400   3.820   3.221  0.4472  0.2764 -0.3156
  110MOL   C25228810   7.274   3.882   3.266  0.4525 -0.1674 -0.0964
  110MOL   C25328811   7.233   3.964   3.140 -0.1860 -0.1919  0.1926
  110MOL   H25428812   7.550   3.566   3.212 -0.7305 -0.2969  0.4109
  110MOL   H25528813   7.638   3.720   3.220  0.7728 -0.3174  0.2150
  110MOL   H25628814   7.367   3.636   3.323 -0.3293 -0.3356 -0.8588
  110MOL   H25728815   7.293   3.942   3.354  0.9020 -0.3827 -0.0487
  110MOL   H25828816   7.193   3.813   3.290  1.6119 -1.5215 -0.0025
  110MOL   H25928817   7.312   4.021   3.092  0.8468 -1.8227 -0.0962
  110MOL   H26028818   7.173   3.906   3.070  1.6211 -0.7588 -0.9469
  110MOL   H26128819   7.155   4.031   3.173 -0.6153 -0.4246 -0.3440
  110MOL   H26228820   7.442   3.756   3.408  1.9010  2.2230 -1.3945
  111MOL     C128821   3.770   0.792   2.847  0.0304 -0.1720 -0.4051
  111MOL     C228822   3.671   0.768   2.959  0.4029 -0.0166 -0.0086
  111MOL     O328823   3.562   0.853   2.929 -0.2417 -0.4028  0.2977
  111MOL     C428824   3.442   0.790   2.889  1.3289 -0.7482  0.6594
  111MOL     C528825   3.348   0.888   2.816  0.1718  0.0945  0.3029
  111MOL     H628826   3.858   0.729   2.856  0.0135 -0.3001 -1.0550
  111MOL     H728827   3.712   0.775   2.755 -1.4052 -0.7862  0.5871
  111MOL     H828828   3.647   0.662   2.954  1.3827 -0.1695 -2.1118
  111MOL     H928829   3.393   0.750   2.978  1.5062 -2.4755 -0.0114
  111MOL    H1028830   3.458   0.703   2.826 -1.6732 -1.1093  0.3149
  111MOL    H1128831   3.253   0.837   2.800 -1.0810  1.2135  3.7656
  111MOL    H1228832   3.327   0.976   2.876  1.5693 -0.0599  1.0424
  111MOL    H1328833   3.385   0.919   2.718  0.7873 -0.8823  0.2083
  111MOL    H1428834   3.790   0.899   2.843 -1.0380  0.0659  0.3928
  111MOL    C1528835   3.717   0.810   3.107  0.1404  0.1820 -0.1756
  111MOL    C1628836   3.850   0.743   3.158  0.8772  0.4518  0.2309
  111MOL    O1728837   3.816   0.603   3.157  0.1889 -0.1703 -0.1754
  111MOL    C1828838   3.903   0.516   3.091  0.8562 -0.1222 -0.1529
  111MOL    C1928839   3.853   0.379   3.131 -0.6906 -0.2485  0.5170
  111MOL    H2028840   3.631   0.793   3.170  1.6576 -0.3637  1.7789
  111MOL    H2128841   3.728   0.919   3.105  0.2124  0.2013  0.9223
  111MOL    H2228842   3.930   0.764   3.088  0.5872  1.9546  0.3394
  111MOL    H2328843   4.008   0.534   3.112  1.0598 -0.0604 -1.1919
  111MOL    H2428844   3.901   0.531   2.983  4.0270  0.0065 -0.2505
  111MOL    H2528845   3.848   0.358   3.238  1.8037 -2.2354  0.2816
  111MOL    H2628846   3.926   0.312   3.086  0.3046  2.8700 -2.7284
  111MOL    H2728847   3.757   0.368   3.080  0.3444 -0.4569 -1.4236
  111MOL    C2828848   3.872   0.770   3.303 -1.1088 -0.1271  0.1894
  111MOL    C2928849   3.994   0.692   3.365 -0.5770  0.4747  0.3477
  111MOL    O3028850   3.982   0.671   3.508  0.1484 -0.4122  0.1170
  111MOL    C3128851   3.890   0.569   3.549  0.0873 -0.6671 -0.0824
  111MOL    C3228852   3.874   0.570   3.704 -0.2050 -0.0239  0.4815
  111MOL    H3328853   3.780   0.741   3.353 -0.3428  0.5335  2.0651
  111MOL    H3428854   3.871   0.876   3.331  0.2718  0.3398 -1.4587
  111MOL    H3528855   4.004   0.589   3.331  1.6438 -0.1461  2.7848
  111MOL    H3628856   3.938   0.478   3.513 -0.3072 -0.9813  0.1835
  111MOL    H3728857   3.797   0.567   3.492  1.3764 -1.1627 -2.1986
  111MOL    H3828858   3.818   0.483   3.738 -0.1445 -0.6227 -0.9072
  111MOL    H3928859   3.974   0.575   3.746 -0.5115 -0.8280  1.3055
  111MOL    H4028860   3.812   0.655   3.732 -2.3039 -1.4982  0.4075
  111MOL    C4128861   4.116   0.787   3.352 -0.2738  0.0346 -0.8792
  111MOL    C4228862   4.251   0.722   3.386 -0.4270  0.5134 -0.0453
  111MOL    O4328863   4.352   0.817   3.408 -0.2038  0.1277  0.4730
  111MOL    C4428864   4.384   0.856   3.544  0.0165  0.4491 -0.1515
  111MOL    C4528865   4.524   0.908   3.554  0.6256  0.3822  0.1489
  111MOL    H4628866   4.092   0.869   3.419  2.3875  1.1805 -1.2477
  111MOL    H4728867   4.120   0.828   3.251 -0.0988 -1.3084 -1.4282
  111MOL    H4828868   4.234   0.659   3.473  1.7693  1.5599  1.2075
  111MOL    H4928869   4.359   0.787   3.625 -2.4117  2.7709  1.1549
  111MOL    H5028870   4.318   0.941   3.557  3.1328  3.0150 -0.5024
  111MOL    H5128871   4.560   0.956   3.462  0.7626 -1.4381 -0.7660
  111MOL    H5228872   4.533   0.989   3.626 -0.5803  2.1615 -1.6509
  111MOL    H5328873   4.590   0.823   3.569 -0.3531 -0.7414 -1.6268
  111MOL    C5428874   4.309   0.626   3.285  0.6627 -0.2449 -0.0789
  111MOL    C5528875   4.428   0.540   3.328 -0.4406 -0.1814 -0.4159
  111MOL    O5628876   4.467   0.471   3.208 -0.0419  0.0100  0.4998
  111MOL    C5728877   4.584   0.533   3.147 -0.2121  0.1813 -0.2007
  111MOL    C5828878   4.635   0.458   3.023  0.0151  0.6442  0.3514
  111MOL    H5928879   4.339   0.676   3.193 -0.6292 -0.8481 -0.8395
  111MOL    H6028880   4.228   0.568   3.240 -1.1076 -0.4558  3.2213
  111MOL    H6128881   4.503   0.605   3.372  0.3372 -1.3315 -0.0191
  111MOL    H6228882   4.662   0.538   3.223 -0.3636 -0.2997 -0.0070
  111MOL    H6328883   4.569   0.637   3.121  1.0994  0.7105  1.0666
  111MOL    H6428884   4.669   0.362   3.063 -1.5511  0.4273  1.2011
  111MOL    H6528885   4.559   0.430   2.951  1.6645 -0.5208 -0.9882
  111MOL    H6628886   4.712   0.515   2.971 -0.5596  0.7531 -0.3704
  111MOL    C6728887   4.392   0.433   3.425  0.3713 -0.5002 -0.4182
  111MOL    C6828888   4.508   0.334   3.464  0.5331  0.5980  0.0635
  111MOL    O6928889   4.457   0.224   3.537 -0.1997 -0.2057 -0.4482
  111MOL    C7028890   4.414   0.115   3.452  0.3729 -0.4714 -0.5549
  111MOL    C7128891   4.328   0.028   3.546 -0.6011 -0.0771  0.4993
  111MOL    H7228892   4.300   0.380   3.402 -1.1161  0.4283  3.0625
  111MOL    H7328893   4.365   0.476   3.521  0.0078  0.9709 -1.1655
  111MOL    H7428894   4.561   0.301   3.374 -1.3601  1.0599 -1.2471
  111MOL    H7528895   4.500   0.066   3.408  1.7356  2.4334 -1.2488
  111MOL    H7628896   4.341   0.147   3.378  0.5931 -0.4751 -0.7722
  111MOL    H7728897   4.375   7.834   3.636 -1.0008 -0.2860  0.6238
  111MOL    H7828898   4.231   0.072   3.570 -1.0670 -0.7837 -0.0545
  111MOL    H7928899   4.293   7.789   3.483  2.5362  0.2043 -1.7063
  111MOL    C8028900   4.620   0.405   3.550 -0.2293 -0.2028 -0.6299
  111MOL    C8128901   4.735   0.311   3.601 -0.2796 -0.6727 -0.3240
  111MOL    O8228902   4.832   0.386   3.672  0.0725 -0.3467  0.2968
  111MOL    C8328903   4.797   0.389   3.811  0.3547 -0.2043 -0.0348
  111MOL    C8428904   4.901   0.469   3.886 -0.3158  1.0350  0.3314
  111MOL    H8528905   4.575   0.451   3.638 -0.2160 -1.8688  0.2642
  111MOL    H8628906   4.669   0.480   3.489 -2.5390  2.2629  0.4201
  111MOL    H8728907   4.676   0.240   3.659  0.8114 -1.6267 -0.3631
  111MOL    H8828908   4.797   0.290   3.858  0.7822 -0.0041  0.3937
  111MOL    H8928909   4.703   0.439   3.835 -0.3551 -2.3338  1.7993
  111MOL    H9028910   4.875   0.491   3.989  1.1371 -1.8950  1.4082
  111MOL    H9128911   4.990   0.405   3.886 -0.4685  0.7882  3.1449
  111MOL    H9228912   4.922   0.557   3.825 -0.2248 -0.5002 -1.9372
  111MOL    C9328913   4.819   0.240   3.495  0.8785 -0.2095  0.7524
  111MOL    C9428914   4.913   0.132   3.557  0.2504  0.3791 -0.2252
  111MOL    O9528915   5.028   0.204   3.591 -0.1692  0.1172  0.5300
  111MOL    C9628916   5.088   0.154   3.719 -0.2247 -0.0047  0.2443
  111MOL    C9728917   5.234   0.176   3.720  0.4306  0.1203  0.0129
  111MOL    H9828918   4.884   0.313   3.447 -0.5981  0.5872 -0.0287
  111MOL    H9928919   4.759   0.198   3.415  0.8368 -1.5206  1.4575
  111MOL   H10028920   4.868   0.079   3.641 -0.9389 -0.1659 -1.1865
  111MOL   H10128921   5.064   0.050   3.738 -2.3389  0.7531  1.8324
  111MOL   H10228922   5.042   0.208   3.801  0.6025 -0.3369  0.9322
  111MOL   H10328923   5.271   0.132   3.628 -1.7096 -1.4575 -0.1319
  111MOL   H10428924   5.263   0.280   3.735 -0.7012  0.5024 -0.4076
  111MOL   H10528925   5.268   0.120   3.807  1.0831 -1.0970 -1.0038
  111MOL   C10628926   4.938   0.019   3.453 -0.4194 -0.0269 -0.1349
  111MOL   C10728927   4.825   7.760   3.427 -0.2191  0.0571  0.1690
  111MOL   O10828928   4.782   7.702   3.545  0.1543 -0.1242 -0.7256
  111MOL   C10928929   4.660   7.756   3.604 -0.5814 -0.3147  0.3307
  111MOL   C11028930   4.652   7.704   3.754 -0.1209 -0.3017 -0.4429
  111MOL   H11128931   5.016   7.808   3.506 -1.5110 -1.2590  0.2578
  111MOL   H11228932   4.976   0.063   3.361 -0.2926 -2.1077 -1.1114
  111MOL   H11328933   4.739   7.797   3.371 -1.1067 -3.0386 -0.5731
  111MOL   H11428934   4.580   7.735   3.533 -0.2598 -1.3137  0.2547
  111MOL   H11528935   4.667   0.021   3.602  0.9107 -0.4085 -1.4215
  111MOL   H11628936   4.624   7.599   3.758 -1.5933  0.0705 -0.5670
  111MOL   H11728937   4.749   7.712   3.803 -0.2833  0.2387 -0.2045
  111MOL   H11828938   4.586   7.764   3.816 -0.3569 -2.0696  1.0584
  111MOL   C11928939   4.865   7.645   3.333  0.5600  0.0936  0.1968
  111MOL   C12028940   4.915   7.679   3.200  0.8927  0.0526  0.0852
  111MOL   O12128941   4.816   7.761   3.140 -0.3114  0.1730 -0.1629
  111MOL   C12228942   4.873   0.025   3.062 -0.7699 -0.1519  0.0126
  111MOL   C12328943   4.759   0.072   2.977  0.7146 -0.0087 -0.2583
  111MOL   H12428944   4.773   7.587   3.318  1.3282 -1.1091  0.0921
  111MOL   H12528945   4.940   7.585   3.384 -0.5152 -0.5137  1.0751
  111MOL   H12628946   5.013   7.728   3.196  0.9067 -0.0667 -1.3109
  111MOL   H12728947   4.945   7.841   2.985  0.7400 -0.5727  1.5430
  111MOL   H12828948   4.918   0.098   3.129 -2.1293  0.4809  0.2377
  111MOL   H12928949   4.677   0.098   3.045  2.5210 -2.1230  2.7934
  111MOL   H13028950   4.794   0.162   2.925 -0.9094 -0.2247 -1.7962
  111MOL   H13128951   4.725   0.006   2.896  1.2756  0.6742 -1.0630
  111MOL   C13228952   4.942   7.554   3.113 -0.0918 -0.5104  0.2564
  111MOL   C13328953   5.051   7.460   3.158  0.0013  1.2768 -0.6113
  111MOL   O13428954   5.159   7.543   3.199  0.0730  0.0423  0.4425
  111MOL   C13528955   5.254   7.479   3.289  0.3337  0.2368  0.6186
  111MOL   C13628956   5.325   7.599   3.354  0.4335 -0.2199  0.6945
  111MOL   H13728957   4.980   7.599   3.021 -0.9786  0.0579  0.1618
  111MOL   H13828958   4.850   7.499   3.092 -1.4261  1.5354  0.6452
  111MOL   H13928959   5.019   7.409   3.249  1.8538  3.5763  1.3953
  111MOL   H14028960   5.323   7.412   3.238  0.8648  0.9686  0.3730
  111MOL   H14128961   5.204   7.418   3.364 -0.7176 -0.9442 -0.9954
  111MOL   H14228962   5.410   7.559   3.410 -0.0039 -1.0774  0.7545
  111MOL   H14328963   5.380   7.663   3.285 -0.2973  0.4350  0.7135
  111MOL   H14428964   5.265   7.662   3.419 -2.3278 -2.0972  0.0482
  111MOL   C14528965   5.090   7.353   3.054 -0.5527  0.0497  0.2649
  111MOL   C14628966   4.974   7.279   2.983  0.3352  0.0985 -0.4160
  111MOL   O14728967   4.883   7.219   3.084 -0.3666  0.2145  0.5957
  111MOL   C14828968   4.748   7.213   3.034 -0.2096  0.3931 -0.2962
  111MOL   C14928969   4.682   7.103   3.115 -0.0425  0.2061 -0.8359
  111MOL   H15028970   5.159   7.284   3.102  2.6019  1.3862 -2.1294
  111MOL   H15128971   5.162   7.396   2.984  1.1098 -2.1451  0.5838
  111MOL   H15228972   4.933   7.347   2.908  1.7169 -0.2155 -1.4691
  111MOL   H15328973   4.746   7.190   2.927  2.8722 -0.4584 -0.2319
  111MOL   H15428974   4.697   7.307   3.050 -1.1023  0.1532 -1.6384
  111MOL   H15528975   4.577   7.097   3.084  0.3303  2.0048 -2.5279
  111MOL   H15628976   4.729   7.005   3.103  0.0069 -0.0825  1.5276
  111MOL   H15728977   4.684   7.131   3.220 -0.8379  0.1562 -0.8046
  111MOL   C15828978   5.014   7.154   2.892 -0.0797 -0.8589 -0.9352
  111MOL   C15928979   5.037   7.179   2.745 -0.5809 -0.1406  0.1613
  111MOL   O16028980   5.055   7.052   2.680 -0.2622 -0.0778 -0.2226
  111MOL   C16128981   5.166   6.970   2.723  0.0891 -0.0126 -0.0862
  111MOL   C16228982   5.194   6.873   2.608 -0.4281  0.1073 -0.2073
  111MOL   H16328983   4.936   7.080   2.911 -0.1875  0.2287  3.3816
  111MOL   H16428984   5.097   7.105   2.943  0.2621  0.2611 -0.4007
  111MOL   H16528985   4.943   7.214   2.702 -1.1000 -1.3053  0.3329
  111MOL   H16628986   5.149   6.909   2.811 -1.9928 -0.9654 -1.1216
  111MOL   H16728987   5.260   7.020   2.747 -0.4827 -0.6089  3.7231
  111MOL   H16828988   5.275   6.807   2.637  2.0701  2.4044 -1.7386
  111MOL   H16928989   5.110   6.808   2.585 -0.5544 -0.0727  0.7293
  111MOL   H17028990   5.224   6.926   2.518  0.3468  1.8870  1.0471
  111MOL   C17128991   5.136   7.286   2.697 -0.3599 -0.5689  0.5707
  111MOL   C17228992   5.128   7.314   2.545 -0.3072  0.0735  0.9055
  111MOL   O17328993   5.253   7.361   2.506 -0.3908 -0.4795  0.1719
  111MOL   C17428994   5.354   7.261   2.474  1.0133  0.3686 -0.0842
  111MOL   C17528995   5.488   7.325   2.506 -0.3504 -0.6749 -0.3008
  111MOL   H17628996   5.237   7.259   2.727 -0.1372  0.9008  1.2181
  111MOL   H17728997   5.114   7.380   2.747  0.4792  0.1834 -0.4266
  111MOL   H17828998   5.099   7.222   2.494  0.7113  0.7400 -0.9529
  111MOL   H17928999   5.345   7.213   2.376 -1.8260  1.9779 -0.6482
  111MOL   H18029000   5.340   7.178   2.543  0.3846  1.6893  1.3946
  111MOL   H18129001   5.485   7.380   2.600 -2.7797  1.0485 -1.3056
  111MOL   H18229002   5.570   7.255   2.494 -0.7342 -1.2238  0.2714
  111MOL   H18329003   5.514   7.396   2.427 -1.9306 -0.4095 -0.6129
  111MOL   C18429004   5.024   7.405   2.485 -0.3637  0.6254  0.1687
  111MOL   C18529005   5.039   7.431   2.323  0.1887  0.1116  0.0593
  111MOL   O18629006   4.931   7.524   2.286 -0.1108 -0.4887 -0.4169
  111MOL   C18729007   4.943   7.657   2.337 -0.0134 -0.0950 -0.2520
  111MOL   C18829008   4.845   7.740   2.268 -0.6098  0.1570  0.4734
  111MOL   H18929009   5.020   7.504   2.530  0.3516  0.0941  1.4239
  111MOL   H19029010   4.927   7.360   2.505 -1.4612  2.6955 -0.3317
  111MOL   H19129011   5.135   7.479   2.302  0.0134  0.3621 -0.1776
  111MOL   H19229012   5.046   7.689   2.321 -0.3249  0.4379 -1.1918
  111MOL   H19329013   4.929   7.662   2.445  1.8585  2.2267 -0.0784
  111MOL   H19429014   4.835   7.830   2.328  0.8284  1.3161 -0.9539
  111MOL   H19529015   4.891   7.767   2.172  0.9681 -2.0921  0.5685
  111MOL   H19629016   4.742   7.713   2.246 -1.6287  3.3779  1.0180
  111MOL   C19729017   5.014   7.311   2.235 -0.6070 -0.4789 -0.5106
  111MOL   C19829018   5.024   7.317   2.091  0.6823  0.3631  0.1123
  111MOL   O19929019   5.157   7.354   2.062  0.8606  0.2352 -0.0743
  111MOL   C20029020   5.204   7.309   1.935  0.0379 -0.3493 -0.2507
  111MOL   C20129021   5.262   7.169   1.935  0.4702  0.7265 -0.3149
  111MOL   H20229022   4.915   7.275   2.264 -0.4036 -1.4528 -1.0022
  111MOL   H20329023   5.086   7.234   2.265  0.0020 -1.0434 -3.3067
  111MOL   H20429024   5.011   7.216   2.054  3.6593  0.3445 -0.9637
  111MOL   H20529025   5.277   7.389   1.919  0.3266 -0.7190 -0.7776
  111MOL   H20629026   5.139   7.327   1.849  0.2940  0.1335 -0.3480
  111MOL   H20729027   5.304   7.148   1.837 -0.8660  0.5499 -0.8557
  111MOL   H20829028   5.337   7.148   2.011 -0.4975 -3.4563 -0.3984
  111MOL   H20929029   5.173   7.109   1.952  1.1076  0.0515  0.6719
  111MOL   C21029030   4.938   7.417   2.015 -0.0675  0.1859 -0.2859
  111MOL   C21129031   4.790   7.370   1.992 -0.0920 -0.6617 -0.2082
  111MOL   O21229032   4.793   7.253   1.921 -0.4004  0.5833 -0.2529
  111MOL   C21329033   4.733   7.144   1.993  0.2698  0.4744  0.1843
  111MOL   C21429034   4.790   7.020   1.924  0.2633 -0.3362  0.1716
  111MOL   H21529035   4.965   7.433   1.911  0.8354 -0.2721 -0.1301
  111MOL   H21629036   4.927   7.518   2.053  1.4412  0.8843 -1.6423
  111MOL   H21729037   4.743   7.356   2.089  2.7549 -3.1388  0.9045
  111MOL   H21829038   4.624   7.142   1.985  0.3098  1.9294 -0.7983
  111MOL   H21929039   4.759   7.144   2.099  0.2713  0.8008  0.1838
  111MOL   H22029040   4.784   7.030   1.816  2.9105  2.7517  0.2446
  111MOL   H22129041   4.897   7.010   1.943  0.4208 -1.4222 -1.1865
  111MOL   H22229042   4.727   6.934   1.948 -0.2186 -0.8720 -2.8314
  111MOL   C22329043   4.712   7.481   1.916  0.0383  0.6253  0.2086
  111MOL   C22429044   4.562   7.451   1.915  0.4899  0.6667  0.6937
  111MOL   O22529045   4.529   7.444   1.773 -0.1869 -0.4807  0.1681
  111MOL   C22629046   4.517   7.314   1.724  0.4983 -0.2697  0.4339
  111MOL   C22729047   4.440   7.302   1.587  0.2824  0.5861 -0.4048
  111MOL   H22829048   4.741   7.490   1.811 -1.3355 -3.1731 -0.5773
  111MOL   H22929049   4.725   7.577   1.965  0.7683  0.4675  0.3253
  111MOL   H23029050   4.536   7.363   1.975 -1.1679  0.1422 -0.7586
  111MOL   H23129051   4.472   7.243   1.794 -0.2964 -0.0992  0.1081
  111MOL   H23229052   4.620   7.284   1.709  0.1461 -1.4504  0.3354
  111MOL   H23329053   4.343   7.353   1.582  0.8111  1.6140 -0.2294
  111MOL   H23429054   4.506   7.334   1.507 -0.8774  3.0028 -0.4360
  111MOL   H23529055   4.414   7.200   1.557  2.7166  0.0972 -0.9152
  111MOL   C23629056   4.469   7.562   1.965 -0.3012  0.6068  0.3844
  111MOL   C23729057   4.488   7.593   2.114 -0.0956 -0.3205  0.0414
  111MOL   O23829058   4.433   7.491   2.188 -0.4349 -0.0846  0.6889
  111MOL   C23929059   4.497   7.468   2.313 -0.0392 -0.0036 -0.2772
  111MOL   C24029060   4.392   7.418   2.411 -0.4444  0.7808  0.3380
  111MOL   H24129061   4.369   7.523   1.950 -0.5747  1.8973 -1.2602
  111MOL   H24229062   4.487   7.647   1.899 -0.7591  0.4554  0.0652
  111MOL   H24329063   4.596   7.600   2.126  0.0081 -0.7868 -0.6567
  111MOL   H24429064   4.550   7.556   2.348 -0.6646  0.6086 -0.8400
  111MOL   H24529065   4.564   7.388   2.282  1.7148  0.0596  3.2143
  111MOL   H24629066   4.313   7.489   2.433  1.8427  3.5534 -0.1687
  111MOL   H24729067   4.352   7.324   2.373  1.0029  1.2730 -2.5451
  111MOL   H24829068   4.445   7.403   2.505  0.8052  1.1004 -0.3058
  111MOL   C24929069   4.400   7.712   2.166 -0.2795  0.5058 -0.5327
  111MOL   C25029070   4.444   0.007   2.123 -0.6269 -0.3948 -0.0141
  111MOL   O25129071   4.558   0.026   2.205 -0.0799 -0.1325 -0.6291
  111MOL   C25229072   4.612   0.159   2.216 -1.0217  0.5015 -0.1443
  111MOL   C25329073   4.685   0.193   2.083 -0.4377  0.5764 -0.1208
  111MOL   H25429074   4.380   7.700   2.272 -1.4087  1.8980 -0.5725
  111MOL   H25529075   4.303   7.695   2.118 -1.1481  2.8854  0.3227
  111MOL   H25629076   4.483   0.007   2.022 -0.1659 -0.2867  0.1630
  111MOL   H25729077   4.685   0.158   2.296  0.4637  1.4066 -1.4710
  111MOL   H25829078   4.543   0.238   2.247  0.3546  1.5743  0.2598
  111MOL   H25929079   4.698   0.107   2.017 -0.6140  0.0624  0.5029
  111MOL   H26029080   4.628   0.272   2.033 -1.4879 -0.1987 -0.1667
  111MOL   H26129081   4.786   0.229   2.102 -0.9140 -0.2148  4.4231
  111MOL   H26229082   4.370   0.086   2.140  0.0291 -0.3262  2.6622
  112MOL     C129083   3.664   4.011   7.593 -0.8390  0.7958  0.1264
  112MOL     C229084   3.616   4.128   7.683 -0.5315  0.1182 -0.1481
  112MOL     O329085   3.502   4.074   7.744 -0.2934 -0.2849 -0.2562
  112MOL     C429086   3.508   4.086   0.038 -0.1797 -0.1487  0.1028
  112MOL     C529087   3.364   4.078   0.095 -0.3209  0.2584 -0.3507
  112MOL     H629088   3.759   4.042   7.550  0.0596 -2.9479 -0.7559
  112MOL     H729089   3.679   3.924   7.657  0.8961  1.3043  0.4514
  112MOL     H829090   3.708   4.164   7.730  0.6140 -0.1809 -2.0818
  112MOL     H929091   3.541   4.179   0.083 -0.2851  0.1668 -0.4760
  112MOL    H1029092   3.564   3.996   0.063 -0.1668 -1.0650 -3.0200
  112MOL    H1129093   3.325   3.976   0.082  0.8855 -0.6440  2.8780
  112MOL    H1229094   3.354   4.114   0.197 -1.9360 -3.0397  0.7526
  112MOL    H1329095   3.301   4.138   0.029  1.4556 -0.4716 -2.8202
  112MOL    H1429096   3.595   3.982   7.514 -1.4021  0.3802  0.7672
  112MOL    C1529097   3.567   4.255   7.613 -0.0038 -0.3742  0.6370
  112MOL    C1629098   3.679   4.312   7.526  0.0863  0.0549 -0.2335
  112MOL    O1729099   3.776   4.357   7.618 -0.7690  0.4491 -0.9442
  112MOL    C1829100   3.909   4.347   7.568 -0.5730  0.5187 -0.1121
  112MOL    C1929101   4.005   4.399   7.678  0.0062 -0.6943  0.2033
  112MOL    H2029102   3.541   4.334   7.684 -0.0401  0.0812  0.1245
  112MOL    H2129103   3.468   4.240   7.569 -0.4030 -0.4481  1.5597
  112MOL    H2229104   3.714   4.241   7.450  1.0382  0.6756 -0.3834
  112MOL    H2329105   3.913   4.414   7.482 -1.9277  0.2130 -0.4187
  112MOL    H2429106   3.942   4.245   7.547 -1.0974 -0.3213  2.8822
  112MOL    H2529107   3.991   4.339   7.768 -1.1988  0.2592  0.6738
  112MOL    H2629108   3.982   4.501   7.709 -0.9718 -1.0671  0.7405
  112MOL    H2729109   4.108   4.400   7.644 -0.2079  1.2384 -0.4408
  112MOL    C2829110   3.637   4.439   7.452 -0.0546 -0.3464  0.0199
  112MOL    C2929111   3.551   4.405   7.329 -0.4594 -0.3046 -0.1455
  112MOL    O3029112   3.627   4.361   7.217  0.2635  0.1510  0.1432
  112MOL    C3129113   3.555   4.296   7.106 -0.2287 -0.0202  0.1712
  112MOL    C3229114   3.527   4.147   7.149 -0.1560  0.3275 -0.3420
  112MOL    H3329115   3.726   4.490   7.415  0.9367 -2.3125 -0.4094
  112MOL    H3429116   3.578   4.499   7.520  1.8290  0.0773  1.3240
  112MOL    H3529117   3.492   4.319   7.362  2.5067 -2.5506 -0.5155
  112MOL    H3629118   3.620   4.294   7.019  0.3331  1.1342  0.5661
  112MOL    H3729119   3.467   4.356   7.080 -0.4679 -0.8802 -1.0244
  112MOL    H3829120   3.492   4.090   7.063 -0.6055 -0.4341  0.3385
  112MOL    H3929121   3.605   4.085   7.194 -0.5888  0.4713  0.6145
  112MOL    H4029122   3.444   4.142   7.219 -0.1753  2.0715 -0.2047
  112MOL    C4129123   3.465   4.529   7.293  0.1017  0.0067 -0.0951
  112MOL    C4229124   3.340   4.536   7.381 -0.7645 -0.1672 -0.1443
  112MOL    O4329125   3.263   4.421   7.348  0.1453 -0.2248 -0.1104
  112MOL    C4429126   3.217   4.343   7.461 -0.1822 -0.5648 -0.0238
  112MOL    C4529127   3.173   4.209   7.414 -0.5619  0.2164  0.2242
  112MOL    H4629128   3.437   4.530   7.188 -3.4882  0.2072  0.8011
  112MOL    H4729129   3.531   4.614   7.307  0.1864  0.0026 -0.4754
  112MOL    H4829130   3.368   4.547   7.486 -1.6268  1.4420 -0.0632
  112MOL    H4929131   3.129   4.395   7.498  0.1891  0.1445 -0.1158
  112MOL    H5029132   3.296   4.344   7.536  0.7058  0.6203 -0.9370
  112MOL    H5129133   3.118   4.149   7.486 -0.6090  2.5446  2.2175
  112MOL    H5229134   3.093   4.233   7.343  1.8108 -0.1033 -2.6312
  112MOL    H5329135   3.245   4.161   7.348  0.6318  1.3205  0.7068
  112MOL    C5429136   3.232   4.647   7.353 -0.7528 -0.2532 -0.0221
  112MOL    C5529137   3.296   4.791   7.359  0.1300  0.0344  0.5754
  112MOL    O5629138   3.372   4.812   7.481  0.3247  0.9303  0.1374
  112MOL    C5729139   3.453   4.919   7.479 -0.7165 -0.0742 -0.0789
  112MOL    C5829140   3.572   4.912   7.573  0.7100 -0.7108  0.4819
  112MOL    H5929141   3.147   4.640   7.420 -2.2788  0.0605 -1.8756
  112MOL    H6029142   3.188   4.627   7.255 -0.8220  0.1135 -0.0683
  112MOL    H6129143   3.377   4.791   7.285  0.7946 -0.6082  1.2949
  112MOL    H6229144   3.403   5.015   7.493  1.1864  0.8522  0.5581
  112MOL    H6329145   3.500   4.929   7.381  0.4310 -1.6412  0.2920
  112MOL    H6429146   3.623   5.008   7.565 -0.9339  0.1842  0.5597
  112MOL    H6529147   3.533   4.894   7.673 -0.5013 -1.3981 -0.1022
  112MOL    H6629148   3.642   4.839   7.534  1.4803  0.1560  0.2468
  112MOL    C6729149   3.196   4.899   7.320 -0.1653 -0.9226  0.4793
  112MOL    C6829150   3.219   4.947   7.175 -0.7296 -0.3077 -0.2024
  112MOL    O6929151   3.350   4.992   7.171  0.8270 -0.4901  0.1194
  112MOL    C7029152   3.407   4.996   7.041 -0.0568  0.0128  0.0385
  112MOL    C7129153   3.559   5.024   7.050  0.3094  0.1390 -0.0341
  112MOL    H7229154   3.204   4.983   7.389  1.1663  0.5901 -1.4933
  112MOL    H7329155   3.093   4.868   7.342 -0.6852  0.2088 -0.3283
  112MOL    H7429156   3.208   4.864   7.106  2.0077 -1.5668  0.8036
  112MOL    H7529157   3.363   5.080   6.987 -2.3514 -1.5511 -0.5957
  112MOL    H7629158   3.393   4.899   6.993  1.7611  0.9441 -2.4536
  112MOL    H7729159   3.610   5.030   6.954  0.5484  2.2673  0.2060
  112MOL    H7829160   3.559   5.113   7.113  2.2302 -0.7199  1.2387
  112MOL    H7929161   3.619   4.946   7.098  2.9371  2.1768  0.1151
  112MOL    C8029162   3.115   5.052   7.134 -0.3332 -0.1185  0.4082
  112MOL    C8129163   2.970   4.986   7.098  0.1585 -0.0655  0.4927
  112MOL    O8229164   2.969   4.933   6.966 -0.4060  0.5980 -0.2244
  112MOL    C8329165   2.932   4.793   6.962 -0.0023 -0.2542 -0.2275
  112MOL    C8429166   2.865   4.770   6.826 -0.2428  0.0872  0.1460
  112MOL    H8529167   3.157   5.113   7.055 -1.3229  0.5545  0.3952
  112MOL    H8629168   3.110   5.125   7.214  0.6930 -1.6753  1.9427
  112MOL    H8729169   2.959   4.905   7.170 -2.2689  0.6844  1.0030
  112MOL    H8829170   2.870   4.755   7.044  0.6684 -0.4007  0.2178
  112MOL    H8929171   3.025   4.736   6.965 -0.8531 -1.6413 -0.0911
  112MOL    H9029172   2.792   4.851   6.825  0.6912  0.9778  1.7271
  112MOL    H9129173   2.938   4.784   6.747  0.5885  0.3363  0.9467
  112MOL    H9229174   2.819   4.672   6.812 -0.4099  0.1383  0.3340
  112MOL    C9329175   2.859   5.090   7.116  0.4630  0.2481  0.8732
  112MOL    C9429176   2.711   5.043   7.100 -0.2703 -0.2589  0.2308
  112MOL    O9529177   2.630   5.160   7.090  0.1788  0.4367  0.8089
  112MOL    C9629178   2.595   5.202   6.959 -0.2391  0.2365  0.3756
  112MOL    C9729179   2.517   5.325   6.953  0.4915 -0.3156  0.8485
  112MOL    H9829180   2.880   5.167   7.041  2.0707  0.3036  1.3566
  112MOL    H9929181   2.864   5.143   7.211  1.9537 -0.2069  1.0619
  112MOL   H10029182   2.696   4.989   7.006 -1.3169 -1.8268  1.2748
  112MOL   H10129183   2.531   5.133   6.904  1.0703  0.9165 -2.1045
  112MOL   H10229184   2.692   5.209   6.908  0.2659  0.6808  1.3853
  112MOL   H10329185   2.437   5.318   7.027  1.0905 -2.3570  1.3201
  112MOL   H10429186   2.573   5.411   6.991 -0.4216  0.4652  0.4440
  112MOL   H10529187   2.473   5.343   6.855  1.5901  2.0077  0.7307
  112MOL   C10629188   2.660   4.972   7.226  0.4095 -0.0564 -0.1669
  112MOL   C10729189   2.513   4.934   7.214  1.3208 -0.2130 -0.1647
  112MOL   O10829190   2.463   4.916   7.347  0.3328 -0.0173 -0.1174
  112MOL   C10929191   2.322   4.946   7.354  0.0353 -0.8360 -0.0046
  112MOL   C11029192   2.307   5.094   7.401  0.6675 -0.0726  0.2729
  112MOL   H11129193   2.666   5.055   7.296  0.2194 -0.3958  0.2523
  112MOL   H11229194   2.728   4.895   7.261  1.7726  2.2110  2.3681
  112MOL   H11329195   2.474   5.022   7.165  1.2719 -1.2249 -1.9706
  112MOL   H11429196   2.276   4.891   7.436  1.1027 -0.3896  0.9013
  112MOL   H11529197   2.275   4.922   7.258  1.5918 -1.5075 -0.6055
  112MOL   H11629198   2.371   5.158   7.339 -1.1631  0.0182 -1.5743
  112MOL   H11729199   2.204   5.129   7.402  0.3635 -0.7218 -2.5325
  112MOL   H11829200   2.352   5.097   7.500  3.5189  2.2695 -0.9856
  112MOL   C11929201   2.496   4.820   7.109 -0.0263 -0.5539  0.2431
  112MOL   C12029202   2.519   4.676   7.168  0.1657 -0.3772 -0.0760
  112MOL   O12129203   2.659   4.668   7.181 -0.1373  0.2950 -0.0128
  112MOL   C12229204   2.704   4.570   7.274 -0.1467 -0.0125  0.1468
  112MOL   C12329205   2.851   4.598   7.295 -0.3941  0.2601  0.5023
  112MOL   H12429206   2.552   4.825   7.015  1.3973  1.3356  1.1545
  112MOL   H12529207   2.396   4.831   7.069  1.5483  0.0044 -3.8123
  112MOL   H12629208   2.470   4.668   7.265  0.6793 -0.4357  0.1782
  112MOL   H12729209   2.685   4.470   7.233  1.9340 -0.2169 -0.3511
  112MOL   H12829210   2.649   4.575   7.368 -0.4539 -1.6735  0.0689
  112MOL   H12929211   2.863   4.697   7.339  0.1602  0.2970  0.2687
  112MOL   H13029212   2.893   4.535   7.374  1.0620  0.8354  0.2083
  112MOL   H13129213   2.918   4.581   7.211  0.1220  0.1969  0.9211
  112MOL   C13229214   2.483   4.565   7.066  0.7442  0.5921 -0.2083
  112MOL   C13329215   2.328   4.531   7.064  0.6348 -0.2310 -0.1290
  112MOL   O13429216   2.288   4.481   7.190 -0.0705  0.4844  0.1389
  112MOL   C13529217   2.217   4.574   7.275  0.4101 -0.1197 -0.1142
  112MOL   C13629218   2.247   4.557   7.418  0.1307  0.5039  0.6806
  112MOL   H13729219   2.550   4.483   7.092  0.6636 -0.4685 -3.1722
  112MOL   H13829220   2.514   4.580   6.963  1.3827 -2.3224 -0.4984
  112MOL   H13929221   2.270   4.618   7.032 -1.1473 -0.8464  1.3300
  112MOL   H14029222   2.110   4.564   7.260 -0.0023  1.6225  1.4397
  112MOL   H14129223   2.242   4.673   7.238  2.2356 -0.3102  0.5559
  112MOL   H14229224   2.189   4.475   7.461 -0.6394  0.1116 -1.0425
  112MOL   H14329225   2.354   4.567   7.429  0.3704  0.3832 -1.3107
  112MOL   H14429226   2.209   4.643   7.472 -1.1824 -0.3399  1.1301
  112MOL   C14529227   2.299   4.431   6.950  0.5401 -0.7919 -0.4668
  112MOL   C14629228   2.278   4.490   6.811 -0.6510  0.3641 -0.0315
  112MOL   O14729229   2.166   4.571   6.832  0.2334 -0.1359  0.4884
  112MOL   C14829230   2.164   4.688   6.746  0.4058  0.1159  0.0063
  112MOL   C14929231   2.237   4.804   6.817 -0.2499 -0.4617 -0.3887
  112MOL   H15029232   2.202   4.386   6.970  0.5736 -1.0485 -0.8903
  112MOL   H15129233   2.373   4.353   6.939  2.3897  0.7002  1.0810
  112MOL   H15229234   2.365   4.552   6.789 -0.3784 -0.0569 -0.1431
  112MOL   H15329235   2.062   4.714   6.718  0.6998  0.0616 -1.1383
  112MOL   H15429236   2.215   4.673   6.651  0.9205  2.4727 -0.1172
  112MOL   H15529237   2.234   4.900   6.764 -2.6358 -1.1775 -1.6123
  112MOL   H15629238   2.187   4.815   6.913  1.6901 -2.1524  0.8455
  112MOL   H15729239   2.339   4.774   6.841  0.8489  2.0336 -1.6925
  112MOL   C15829240   2.241   4.393   6.694  0.3296  0.2220  0.4359
  112MOL   C15929241   2.109   4.311   6.701 -0.2098  0.1360  0.9594
  112MOL   O16029242   2.134   4.196   6.780 -0.1417  0.6319 -0.1031
  112MOL   C16129243   2.023   4.146   6.859  0.6563  0.2621  0.4052
  112MOL   C16229244   2.055   4.017   6.930  0.0367 -0.0805  0.8430
  112MOL   H16329245   2.327   4.334   6.664 -0.8024 -1.4044  0.3549
  112MOL   H16429246   2.239   4.466   6.612  0.4725  1.2084  1.3007
  112MOL   H16529247   2.037   4.373   6.754 -2.7437 -0.9193 -1.1193
  112MOL   H16629248   1.940   4.129   6.789  2.3965  0.0096 -1.6425
  112MOL   H16729249   1.992   4.218   6.935 -3.2076 -1.0763  0.2016
  112MOL   H16829250   2.103   4.023   7.028  1.2129  0.9116  0.2132
  112MOL   H16929251   1.958   3.973   6.951  0.0150  0.2941  1.5113
  112MOL   H17029252   2.111   3.947   6.867 -0.4862 -0.6951  1.0555
  112MOL   C17129253   2.066   4.258   6.560 -0.4450 -0.4305 -0.0487
  112MOL   C17229254   2.036   4.358   6.445 -0.2573  0.3991  0.5976
  112MOL   O17329255   2.155   4.417   6.388  0.1242  0.4687 -0.3649
  112MOL   C17429256   2.228   4.329   6.304  0.7861  0.8886  0.0236
  112MOL   C17529257   2.332   4.415   6.224 -0.3898 -1.1205  0.3766
  112MOL   H17629258   1.978   4.195   6.573 -1.0308  0.1749 -1.0907
  112MOL   H17729259   2.145   4.190   6.527  0.9985  0.8982  0.6152
  112MOL   H17829260   1.983   4.298   6.371 -0.6651  2.0028 -0.4426
  112MOL   H17929261   2.175   4.276   6.224 -0.3532  3.1407 -0.7569
  112MOL   H18029262   2.291   4.260   6.359  0.3954  0.2124 -0.3624
  112MOL   H18129263   2.291   4.487   6.154  3.2879 -0.5590 -1.3331
  112MOL   H18229264   2.404   4.474   6.281  0.2894  0.5829 -2.1652
  112MOL   H18329265   2.390   4.366   6.146  0.9800  1.3730 -0.2263
  112MOL   C18429266   1.944   4.471   6.484  0.0933 -0.3781  0.3581
  112MOL   C18529267   1.808   4.423   6.545 -0.1655 -0.3438  0.0913
  112MOL   O18629268   1.752   4.331   6.457  0.3637  0.4687  0.1919
  112MOL   C18729269   1.658   4.237   6.502 -0.1994 -0.8265 -0.4707
  112MOL   C18829270   1.581   4.183   6.377 -0.1022  0.0365  0.3765
  112MOL   H18929271   1.935   4.519   6.387 -0.4180 -0.3120  0.4316
  112MOL   H19029272   1.993   4.543   6.550  2.8203  1.7884 -3.8603
  112MOL   H19129273   1.833   4.363   6.633 -1.3288 -2.0503 -0.7248
  112MOL   H19229274   1.585   4.286   6.566  0.6058 -1.2330  0.7691
  112MOL   H19329275   1.697   4.154   6.560 -3.4540 -1.9703  0.2028
  112MOL   H19429276   1.640   4.121   6.309 -1.2609 -0.9423  0.2327
  112MOL   H19529277   1.501   4.110   6.391  1.6689 -2.4231 -1.8955
  112MOL   H19629278   1.535   4.267   6.326  1.3642  0.4058 -0.3535
  112MOL   C19729279   1.717   4.543   6.575  0.0939  0.2003  0.5611
  112MOL   C19829280   1.756   4.618   6.708 -0.3865  0.0402  0.1812
  112MOL   O19929281   1.711   4.539   6.821  0.2823 -0.0892  0.0090
  112MOL   C20029282   1.808   4.487   6.902 -0.2187  0.3064  0.1691
  112MOL   C20129283   1.747   4.429   7.025 -0.4639  0.7101 -0.3633
  112MOL   H20229284   1.612   4.516   6.580 -0.1914  1.4222  1.6716
  112MOL   H20329285   1.708   4.618   6.496 -0.9481  1.7235  2.0798
  112MOL   H20429286   1.865   4.624   6.713 -0.3091 -1.3386  0.4406
  112MOL   H20529287   1.885   4.557   6.935 -0.3120  0.0408  0.9626
  112MOL   H20629288   1.868   4.406   6.861  0.6595  0.7413  0.5799
  112MOL   H20729289   1.694   4.493   7.095 -0.2552  1.1373 -0.5971
  112MOL   H20829290   1.670   4.356   6.999 -0.3559  0.1225  0.9379
  112MOL   H20929291   1.831   4.388   7.082 -0.6994 -1.4693 -1.5266
  112MOL   C21029292   1.692   4.762   6.726  0.1065 -0.0896  0.4330
  112MOL   C21129293   1.776   4.875   6.799 -0.2269 -0.1116  0.5834
  112MOL   O21229294   1.895   4.909   6.729 -0.0029  0.6991 -0.0433
  112MOL   C21329295   1.879   4.992   6.616  0.4267  0.3415 -0.4497
  112MOL   C21429296   2.020   5.023   6.561 -0.2133 -0.3745  0.2917
  112MOL   H21529297   1.598   4.741   6.778  0.1841  1.5472  1.2517
  112MOL   H21629298   1.645   4.796   6.634 -1.8903  0.3470  1.5841
  112MOL   H21729299   1.713   4.964   6.794  0.9652  0.7329  0.3682
  112MOL   H21829300   1.836   5.089   6.640 -0.9782 -0.4181  0.1408
  112MOL   H21929301   1.804   4.952   6.549 -1.3681  1.7078  0.6927
  112MOL   H22029302   1.998   5.075   6.467 -0.2108  0.0998  0.5524
  112MOL   H22129303   2.077   5.097   6.616  0.2774 -1.6593  1.5375
  112MOL   H22229304   2.078   4.933   6.543  1.5345  0.8204 -0.1598
  112MOL   C22329305   1.804   4.852   6.950  0.6425  1.1196 -0.0143
  112MOL   C22429306   1.858   4.964   7.035  0.1920  0.0819  0.3423
  112MOL   O22529307   1.979   5.026   6.983 -0.3737 -0.0571  0.4214
  112MOL   C22629308   2.009   5.158   7.025 -0.1335  0.6902  0.3462
  112MOL   C22729309   2.142   5.202   6.954 -0.5971  0.3724 -0.9354
  112MOL   H22829310   1.877   4.771   6.941 -0.6198 -0.3277  2.3118
  112MOL   H22929311   1.716   4.818   7.005  0.9185  0.8692  0.2738
  112MOL   H23029312   1.783   5.043   7.037  0.1092  0.0329 -0.6147
  112MOL   H23129313   2.028   5.169   7.132  0.8477 -0.9861  0.3558
  112MOL   H23229314   1.922   5.224   7.016 -0.2983  0.6898  1.7410
  112MOL   H23329315   2.134   5.193   6.846 -0.9939 -1.6808 -0.7634
  112MOL   H23429316   2.168   5.305   6.975  1.1326  0.2745 -2.4920
  112MOL   H23529317   2.223   5.136   6.984 -0.5562  0.3371 -1.1227
  112MOL   C23629318   1.896   4.913   7.181  0.7850  0.2415  0.3186
  112MOL   C23729319   1.772   4.904   7.271  0.0277 -0.0229 -0.4383
  112MOL   O23829320   1.745   5.042   7.311 -0.3782  0.2198  0.2952
  112MOL   C23929321   1.612   5.076   7.340  0.0681 -0.0088  0.1069
  112MOL   C24029322   1.627   5.233   7.362 -0.4613 -0.5878 -0.1474
  112MOL   H24129323   1.968   4.978   7.230  0.8275 -0.2744  0.9504
  112MOL   H24229324   1.936   4.812   7.166 -1.0553 -0.6638  1.2856
  112MOL   H24329325   1.691   4.854   7.218  0.9130  0.2289 -2.0612
  112MOL   H24429326   1.581   5.038   7.437 -0.5221  1.0157  0.3150
  112MOL   H24529327   1.531   5.047   7.273 -2.0293  1.5110  1.9205
  112MOL   H24629328   1.675   5.274   7.273 -3.3140  0.4722 -1.2729
  112MOL   H24729329   1.532   5.286   7.368 -0.1196 -0.1083  1.1815
  112MOL   H24829330   1.692   5.245   7.448 -2.6199 -2.6990  1.8472
  112MOL   C24929331   1.793   4.824   7.398 -0.1599  0.4677 -0.0033
  112MOL   C25029332   1.807   4.671   7.378  0.1379  1.0231 -1.1636
  112MOL   O25129333   1.871   4.610   7.494  0.7402  0.5010 -0.0459
  112MOL   C25229334   1.874   4.470   7.473 -0.2389 -0.1433  0.5697
  112MOL   C25329335   1.929   4.400   7.596 -0.5390  0.3297 -0.0787
  112MOL   H25429336   1.714   4.837   7.473 -1.0532  1.4585 -1.0801
  112MOL   H25529337   1.879   4.873   7.444  1.5373  0.0242 -2.6076
  112MOL   H25629338   1.706   4.634   7.358  1.4688 -3.1771 -0.7100
  112MOL   H25729339   1.937   4.448   7.387  0.5033 -0.0249  1.0788
  112MOL   H25829340   1.773   4.434   7.455 -0.0991 -1.2576  1.9362
  112MOL   H25929341   1.978   4.305   7.578 -1.2482 -0.0099 -0.2528
  112MOL   H26029342   2.011   4.453   7.644  0.6472 -0.4453 -1.2097
  112MOL   H26129343   1.858   4.398   7.678 -2.3881 -0.0178 -1.6439
  112MOL   H26229344   1.879   4.648   7.299 -0.0587 -0.3589 -0.9609
  113MOL     C129345   0.559   2.445   7.688  0.2792 -0.1363  0.4774
  113MOL     C229346   0.584   2.404   7.546 -0.5557  0.4366  0.5629
  113MOL     O329347   0.709   2.470   7.498  0.0994 -0.1126  0.4944
  113MOL     C429348   0.813   2.382   7.520 -0.1138 -0.5844 -0.0928
  113MOL     C529349   0.937   2.461   7.550  0.2435  0.2082 -0.7124
  113MOL     H629350   0.643   2.426   7.756  0.7829  0.3777  0.0071
  113MOL     H729351   0.534   2.551   7.698 -0.5302 -0.2803 -0.0233
  113MOL     H829352   0.590   2.296   7.549 -0.0610  0.4965  4.0117
  113MOL     H929353   0.828   2.319   7.432 -0.5861 -0.4636 -0.2625
  113MOL    H1029354   0.806   2.316   7.606  1.0297 -0.2296  0.2898
  113MOL    H1129355   0.959   2.530   7.469  2.0485  0.2101 -0.2329
  113MOL    H1229356   0.930   2.524   7.638 -0.0469 -0.7169 -0.0629
  113MOL    H1329357   1.023   2.395   7.564 -0.7801 -0.6805  1.5160
  113MOL    H1429358   0.465   2.402   7.721  0.6433 -0.4917  1.0691
  113MOL    C1529359   0.488   2.461   7.432  0.9523  0.3812  0.3592
  113MOL    C1629360   0.343   2.437   7.471  0.3144  0.2848 -0.2118
  113MOL    O1729361   0.333   2.299   7.492  0.4857 -0.1020 -0.1193
  113MOL    C1829362   0.254   2.253   7.601 -0.2141 -0.8674  0.6336
  113MOL    C1929363   0.289   2.101   7.611 -0.1886  0.1460 -0.1522
  113MOL    H2029364   0.518   2.419   7.336  0.2623 -2.6674  1.4059
  113MOL    H2129365   0.514   2.567   7.428  1.9099  0.1545  0.2761
  113MOL    H2229366   0.326   2.495   7.562 -1.3854 -1.2342  0.4865
  113MOL    H2329367   0.149   2.279   7.585 -1.0074 -2.8361  2.3614
  113MOL    H2429368   0.281   2.306   7.693  1.0115 -2.2893  1.1021
  113MOL    H2529369   0.395   2.087   7.633 -0.9196 -1.3469  2.5822
  113MOL    H2629370   0.287   2.062   7.509  5.3727  0.4812 -0.5651
  113MOL    H2729371   0.222   2.056   7.683 -1.7972 -0.4198 -1.9597
  113MOL    C2829372   0.235   2.478   7.373  0.1963 -0.0966  0.1943
  113MOL    C2929373   0.228   2.629   7.349 -0.1418 -0.3870  0.4609
  113MOL    O3029374   0.213   2.685   7.481  0.2219  0.1506 -0.3332
  113MOL    C3129375   0.309   2.789   7.504  0.0264  0.2447  0.0670
  113MOL    C3229376   0.309   2.799   7.661  0.3223 -0.6734  0.2119
  113MOL    H3329377   0.142   2.447   7.421  1.5006 -1.2859  2.0168
  113MOL    H3429378   0.250   2.426   7.278 -2.3976 -0.3845 -0.0796
  113MOL    H3529379   0.316   2.673   7.301  1.2684  1.3638  4.3961
  113MOL    H3629380   0.265   2.875   7.453  3.1746  1.3959 -0.8249
  113MOL    H3729381   0.407   2.753   7.475  0.8813  2.7540 -0.2770
  113MOL    H3829382   0.358   2.711   7.702  1.4794 -0.4761 -0.6794
  113MOL    H3929383   0.374   2.884   7.685  1.4330 -1.0165 -1.4818
  113MOL    H4029384   0.218   2.830   7.712 -0.3140  0.9100 -1.7907
  113MOL    C4129385   0.109   2.678   7.259  0.2706  0.0557  0.5729
  113MOL    C4229386   0.119   2.628   7.112 -0.4801 -0.2709 -0.0969
  113MOL    O4329387   0.238   2.678   7.056 -0.1584 -0.1532 -0.0040
  113MOL    C4429388   0.305   2.599   6.959 -0.2310 -0.0721 -0.0249
  113MOL    C4529389   0.376   2.478   7.019 -0.2107  0.5798  0.4275
  113MOL    H4629390   0.103   2.787   7.256  0.6390  0.0503 -0.7812
  113MOL    H4729391   0.018   2.635   7.301 -1.0252  1.9542 -0.2351
  113MOL    H4829392   0.134   2.520   7.118  0.6742 -0.2594 -2.0831
  113MOL    H4929393   0.374   2.671   6.914 -0.0997 -1.3824 -1.9920
  113MOL    H5029394   0.244   2.554   6.881  1.8117 -2.1484 -0.4827
  113MOL    H5129395   0.309   2.407   7.068  0.5604 -1.8427 -1.9536
  113MOL    H5229396   0.430   2.430   6.938 -1.3928  2.5295 -1.5534
  113MOL    H5329397   0.451   2.513   7.091  0.1548 -1.3034  0.9796
  113MOL    C5429398   0.001   2.626   7.022  0.7120 -1.0305  0.3069
  113MOL    C5529399   7.750   2.746   7.016  0.2684  1.0371  0.5819
  113MOL    O5629400   7.653   2.739   7.115 -0.1190 -0.6961  0.3245
  113MOL    C5729401   7.647   2.859   7.193  0.2578 -0.9193  0.7406
  113MOL    C5829402   7.577   2.831   7.320  0.3585 -0.5336  0.3635
  113MOL    H5929403   7.785   2.538   7.048  1.5317 -1.6008  0.2720
  113MOL    H6029404   0.029   2.603   6.919 -1.4046  0.2578 -0.6029
  113MOL    H6129405   7.813   2.834   7.026  0.3300  1.4129 -2.7590
  113MOL    H6229406   7.598   2.934   7.132 -1.7431 -0.1481  3.1826
  113MOL    H6329407   7.748   2.888   7.221 -0.8404  2.9901  0.9229
  113MOL    H6429408   7.552   2.929   7.362  1.5884 -1.2475  2.8447
  113MOL    H6529409   7.480   2.783   7.306  0.3446 -0.6433  0.8272
  113MOL    H6629410   7.651   2.791   7.389 -0.8780 -0.7715  1.5722
  113MOL    C6729411   7.660   2.754   6.883  0.7500  0.3465  0.4009
  113MOL    C6829412   7.740   2.769   6.748  0.0804  0.1806  0.1241
  113MOL    O6929413   7.766   2.644   6.681  0.4371  0.4519 -0.3772
  113MOL    C7029414   7.661   2.605   6.585  0.3019 -0.1615 -0.2268
  113MOL    C7129415   7.721   2.478   6.517  0.3998 -0.1610  0.0210
  113MOL    H7229416   7.601   2.843   6.904  0.0154  0.6463 -2.7623
  113MOL    H7329417   7.603   2.662   6.876 -0.4142  1.1567 -0.8944
  113MOL    H7429418   7.667   2.814   6.682 -2.4556 -0.4268  2.4296
  113MOL    H7529419   7.642   2.685   6.513  0.9326  0.5615  0.4092
  113MOL    H7629420   7.565   2.590   6.635  0.5733 -0.0335  0.3264
  113MOL    H7729421   7.801   2.509   6.449  0.9605  0.6467  1.0333
  113MOL    H7829422   7.759   2.401   6.584  0.4111 -1.2396 -1.2048
  113MOL    H7929423   7.646   2.441   6.447 -0.3658  1.9045 -0.2662
  113MOL    C8029424   0.015   2.864   6.741 -0.6894 -0.2803 -0.6370
  113MOL    C8129425   0.079   2.877   6.607  0.0562 -0.3347  0.0288
  113MOL    O8229426   0.210   2.927   6.618 -0.8234 -0.4227  0.0981
  113MOL    C8329427   0.318   2.833   6.632  0.0644  0.1296 -0.2536
  113MOL    C8429428   0.444   2.904   6.692 -0.0987  0.4923  0.4943
  113MOL    H8529429   0.088   2.830   6.815  0.1615  0.9746 -0.8835
  113MOL    H8629430   7.825   2.961   6.778  1.5339  0.5640 -0.7790
  113MOL    H8729431   0.091   2.776   6.567 -1.8129  0.0557 -1.6157
  113MOL    H8829432   0.343   2.794   6.534  0.8035  0.1566 -0.0762
  113MOL    H8929433   0.278   2.742   6.678 -0.8862  0.8118  0.3056
  113MOL    H9029434   0.412   2.941   6.790 -0.3658 -2.7000  1.6837
  113MOL    H9129435   0.531   2.839   6.695 -1.2825 -1.2032 -1.1414
  113MOL    H9229436   0.479   2.986   6.630 -1.8525 -0.5054 -1.8630
  113MOL    C9329437   7.843   2.970   6.508  0.3796  0.0082  0.0997
  113MOL    C9429438   0.059   2.980   6.363 -0.8532 -0.0610  0.5975
  113MOL    O9529439   0.052   3.110   6.306  0.2222 -0.0017 -0.2353
  113MOL    C9629440   0.143   3.205   6.357 -0.4654 -0.6798  0.0230
  113MOL    C9729441   0.140   3.329   6.272 -0.0855 -0.3324  0.2856
  113MOL    H9829442   7.837   3.066   6.559  1.4590  0.1904 -0.1138
  113MOL    H9929443   7.738   2.942   6.499  0.4147 -0.1521  0.1796
  113MOL   H10029444   0.166   2.958   6.374 -1.0043 -0.7101  0.8037
  113MOL   H10129445   0.242   3.158   6.357  0.2841  0.8186  2.6904
  113MOL   H10229446   0.122   3.225   6.462  1.1009  0.8547  0.0724
  113MOL   H10329447   0.221   3.397   6.302 -0.2220 -0.7167  1.5676
  113MOL   H10429448   0.162   3.303   6.169  0.7496 -0.2046  0.4271
  113MOL   H10529449   0.045   3.383   6.273 -0.5138 -1.0813 -0.6509
  113MOL   C10629450   7.841   2.872   6.269  0.2983 -0.0761  0.2375
  113MOL   C10729451   0.094   2.817   6.158 -0.4366  0.2758 -0.7392
  113MOL   O10829452   0.020   2.732   6.067 -0.2751 -0.1561 -0.1338
  113MOL   C10929453   7.792   2.808   5.964 -0.1306 -0.7995  0.3211
  113MOL   C11029454   0.028   2.856   5.838  0.4611 -0.2049 -0.4189
  113MOL   H11129455   7.743   2.905   6.234  1.6965  2.1633 -1.7660
  113MOL   H11229456   7.814   2.787   6.330 -0.0144 -1.1552 -1.3709
  113MOL   H11329457   0.125   2.909   6.108  2.7828 -0.6755 -0.5971
  113MOL   H11429458   7.728   2.887   6.004  1.5579  1.3863 -1.1359
  113MOL   H11529459   7.711   2.742   5.932  0.0482 -0.4151 -0.9762
  113MOL   H11629460   7.807   2.897   5.761  0.4998 -0.2409 -0.4709
  113MOL   H11729461   0.092   2.941   5.860  1.4739 -0.8300 -0.8965
  113MOL   H11829462   0.084   2.767   5.808 -1.0031 -1.5408  0.6764
  113MOL   C11929463   0.203   2.736   6.227 -0.4532  0.2481  0.0166
  113MOL   C12029464   0.322   2.715   6.129 -0.3760 -0.0391 -0.5832
  113MOL   O12129465   0.301   2.604   6.047 -0.6384 -0.3931 -0.2226
  113MOL   C12229466   0.386   2.592   5.932 -0.0397  0.3090  0.3494
  113MOL   C12329467   0.353   2.462   5.859 -0.6563  0.3541  0.7331
  113MOL   H12429468   0.156   2.639   6.244  0.6095 -0.9556 -3.5491
  113MOL   H12529469   0.236   2.768   6.326 -1.9925  0.7847  0.3734
  113MOL   H12629470   0.329   2.802   6.064 -1.4267  1.0424  0.7171
  113MOL   H12729471   0.491   2.590   5.961  1.1363 -1.6320 -3.6897
  113MOL   H12829472   0.381   2.670   5.856  0.3580 -2.3994 -2.5798
  113MOL   H12929473   0.256   2.456   5.809  0.7481  0.2266 -2.0564
  113MOL   H13029474   0.439   2.442   5.795 -0.1151 -1.5666  2.0090
  113MOL   H13129475   0.357   2.375   5.925 -0.1093 -0.6088 -0.5529
  113MOL   C13229476   0.459   2.706   6.200  0.1576 -0.1139  0.7368
  113MOL   C13329477   0.492   2.574   6.273  1.0387  0.4287 -0.0521
  113MOL   O13429478   0.410   2.568   6.388  0.0141 -0.4487  0.1086
  113MOL   C13529479   0.382   2.436   6.436 -0.0010 -0.4018 -0.1336
  113MOL   C13629480   0.267   2.450   6.538  0.1991  0.3164 -0.0211
  113MOL   H13729481   0.453   2.781   6.279  0.2154  2.3813 -1.5527
  113MOL   H13829482   0.533   2.734   6.125 -2.0547  1.4252 -0.9451
  113MOL   H13929483   0.466   2.492   6.206  0.4466  0.2141  0.4355
  113MOL   H14029484   0.466   2.389   6.487  2.2114  1.0993 -2.3327
  113MOL   H14129485   0.349   2.368   6.358 -2.4172 -0.1170  0.5866
  113MOL   H14229486   0.289   2.517   6.621  0.6338  0.7369 -0.4699
  113MOL   H14329487   0.173   2.479   6.492  0.9308  1.1297 -1.0322
  113MOL   H14429488   0.256   2.352   6.584  1.3416  0.7209  1.1639
  113MOL   C14529489   0.636   2.551   6.318  0.7203 -0.3770  0.2714
  113MOL   C14629490   0.740   2.557   6.208 -0.6301  0.0672 -0.2437
  113MOL   O14729491   0.719   2.458   6.113  0.6996  0.0971 -0.6353
  113MOL   C14829492   0.763   2.499   5.982  0.4536 -0.2633 -0.1636
  113MOL   C14929493   0.757   2.392   5.874  1.5321 -0.4319 -1.1037
  113MOL   H15029494   0.641   2.457   6.373 -2.5048  0.2998  1.8581
  113MOL   H15129495   0.641   2.635   6.387 -1.4202 -0.8132  1.0173
  113MOL   H15229496   0.733   2.659   6.168  0.6480  0.5355  0.6831
  113MOL   H15329497   0.871   2.513   5.992  0.9259 -2.2651 -2.0141
  113MOL   H15429498   0.729   2.596   5.944 -0.7955 -0.4555  0.4552
  113MOL   H15529499   0.655   2.357   5.866  1.6776 -0.6483 -2.0232
  113MOL   H15629500   0.788   2.428   5.776  1.9862 -2.6196 -1.7758
  113MOL   H15729501   0.816   2.302   5.895 -0.5768 -1.2935  1.4044
  113MOL   C15829502   0.884   2.540   6.263 -0.2635 -0.5389 -0.4498
  113MOL   C15929503   0.925   2.414   6.346  0.3487 -0.1795  0.2828
  113MOL   O16029504   1.051   2.450   6.396 -0.0313  0.0392 -0.0309
  113MOL   C16129505   1.047   2.515   6.524 -0.2213 -0.2679  0.2070
  113MOL   C16229506   1.175   2.591   6.547  0.3305 -0.1162 -0.1684
  113MOL   H16329507   0.892   2.627   6.329 -3.3175  0.1166 -0.8704
  113MOL   H16429508   0.961   2.551   6.186  0.1031  0.1760  0.0080
  113MOL   H16529509   0.854   2.394   6.426  0.6933 -1.5886  0.2476
  113MOL   H16629510   1.033   2.428   6.588 -1.7049 -0.6472 -0.6229
  113MOL   H16729511   0.972   2.592   6.534 -0.5815 -0.6572  0.5426
  113MOL   H16829512   1.166   2.659   6.631  1.8914  1.6201 -1.3561
  113MOL   H16929513   1.262   2.526   6.560 -1.4864 -2.8993 -1.3160
  113MOL   H17029514   1.196   2.652   6.459 -0.7617 -2.1692 -1.8892
  113MOL   C17129515   0.942   2.285   6.257 -0.5179 -0.0347  0.5021
  113MOL   C17229516   0.893   2.151   6.309 -0.7669 -0.3265 -0.0386
  113MOL   O17329517   0.754   2.150   6.322  0.4120  0.3608  0.5614
  113MOL   C17429518   0.680   2.112   6.206  0.5651  0.1806  0.2502
  113MOL   C17529519   0.531   2.140   6.244 -0.1886 -0.2183 -0.0371
  113MOL   H17629520   1.045   2.286   6.222 -0.4626  0.2812  0.6687
  113MOL   H17729521   0.885   2.298   6.165 -0.4870 -1.0623  0.3297
  113MOL   H17829522   0.916   2.079   6.231 -0.6832 -1.3871  0.9553
  113MOL   H17929523   0.695   2.009   6.175  0.7168  0.6458 -1.2869
  113MOL   H18029524   0.716   2.166   6.118  2.4122  0.6917  1.3032
  113MOL   H18129525   0.473   2.074   6.179  2.4692 -0.8017 -1.9087
  113MOL   H18229526   0.510   2.109   6.347  3.0691 -1.3411  0.3754
  113MOL   H18329527   0.506   2.243   6.219  1.7256  0.1518 -0.4891
  113MOL   C18429528   0.958   2.113   6.440 -0.0860 -0.2570 -0.2317
  113MOL   C18529529   0.928   1.970   6.493 -0.1765 -0.2057  0.3939
  113MOL   O18629530   0.995   1.968   6.622  0.5682  0.1274  0.0750
  113MOL   C18729531   0.907   1.944   6.735  0.1391 -0.0457  0.8627
  113MOL   C18829532   0.986   1.940   6.866  0.3590 -0.1275 -0.3357
  113MOL   H18929533   0.908   2.182   6.508 -0.3645 -1.9121  1.2884
  113MOL   H19029534   1.067   2.115   6.436 -0.0215 -1.0794  0.7186
  113MOL   H19129535   0.820   1.954   6.495 -0.1653 -0.2325  0.8507
  113MOL   H19229536   0.861   1.845   6.730  0.8588 -0.3736  0.5581
  113MOL   H19329537   0.828   2.018   6.724  0.3992  0.1082  0.0299
  113MOL   H19429538   1.080   1.886   6.856  0.8052  0.7060 -0.7437
  113MOL   H19529539   1.005   2.045   6.891 -2.2646  0.4381 -0.5880
  113MOL   H19629540   0.925   1.900   6.946  1.0889 -1.6844 -0.5469
  113MOL   C19729541   0.994   1.859   6.407 -0.1467  0.3462 -0.2579
  113MOL   C19829542   0.922   1.730   6.405 -0.4214  0.7856 -0.0026
  113MOL   O19929543   1.009   1.630   6.355  0.1125 -0.0934 -0.2826
  113MOL   C20029544   0.988   1.504   6.405 -0.7645 -0.3996  0.2131
  113MOL   C20129545   1.089   1.404   6.346 -0.0344  0.5472 -0.1037
  113MOL   H20229546   1.095   1.849   6.446  0.7527  1.7552 -2.1175
  113MOL   H20329547   1.001   1.886   6.301  0.3883 -0.2513 -0.3779
  113MOL   H20429548   0.902   1.712   6.511 -1.7629  1.1313 -0.1924
  113MOL   H20529549   0.889   1.470   6.374 -0.3099 -0.8493 -0.7566
  113MOL   H20629550   0.989   1.500   6.514 -0.3757  1.1100  0.2773
  113MOL   H20729551   1.190   1.441   6.366 -0.0904  1.5228 -1.5604
  113MOL   H20829552   1.067   1.301   6.375 -2.1679  0.7717 -0.8515
  113MOL   H20929553   1.084   1.401   6.237 -0.2642 -1.5043 -0.0558
  113MOL   C21029554   0.797   1.734   6.305  0.1562 -1.2267  0.8508
  113MOL   C21129555   0.657   1.741   6.375  0.2919  0.2004  0.0652
  113MOL   O21229556   0.647   1.636   6.459  0.3991 -0.0264  0.0818
  113MOL   C21329557   0.622   1.677   6.589 -0.5434 -0.5818 -0.1711
  113MOL   C21429558   0.570   1.555   6.657  0.4776 -0.3492 -0.4201
  113MOL   H21529559   0.801   1.644   6.243 -0.2286 -0.9954  0.4885
  113MOL   H21629560   0.807   1.824   6.245 -1.6076 -0.5730  1.5075
  113MOL   H21729561   0.635   1.840   6.416 -0.8414 -0.6103  1.4700
  113MOL   H21829562   0.548   1.758   6.593 -0.4618 -0.5552  1.1433
  113MOL   H21929563   0.711   1.712   6.641  0.2317 -2.7868  0.0037
  113MOL   H22029564   0.656   1.499   6.692 -0.2344 -0.8990  0.4835
  113MOL   H22129565   0.504   1.571   6.743  1.3526 -1.0397  0.3942
  113MOL   H22229566   0.524   1.494   6.580 -0.2547  1.3249 -1.3497
  113MOL   C22329567   0.556   1.710   6.261 -0.4430  0.1635  0.5558
  113MOL   C22429568   0.408   1.711   6.315 -0.7050 -0.5094  0.9083
  113MOL   O22529569   0.331   1.668   6.201  0.2269  0.0195  0.2634
  113MOL   C22629570   0.302   1.524   6.201 -0.1949 -0.2629  0.6234
  113MOL   C22729571   0.218   1.477   6.085 -0.6000 -0.7358  0.3536
  113MOL   H22829572   0.582   1.620   6.206 -0.2362  0.6346 -0.1358
  113MOL   H22929573   0.563   1.786   6.182  0.9982  0.3190  0.8178
  113MOL   H23029574   0.402   1.638   6.395 -2.6473  2.1968  3.3445
  113MOL   H23129575   0.254   1.497   6.295 -0.0094 -0.0276  0.7881
  113MOL   H23229576   0.401   1.479   6.198 -0.2151 -0.2971  0.4375
  113MOL   H23329577   0.208   1.368   6.092 -3.4033 -0.6158 -0.9775
  113MOL   H23429578   0.118   1.518   6.100  0.0107  0.0489  2.3110
  113MOL   H23529579   0.280   1.508   6.001  1.0182 -0.4992  1.6116
  113MOL   C23629580   0.347   1.846   6.355 -0.1204 -0.1512  0.3648
  113MOL   C23729581   0.200   1.843   6.418 -0.9234 -0.0919 -0.7705
  113MOL   O23829582   0.170   1.982   6.429 -0.0705  0.1110  0.5937
  113MOL   C23929583   0.062   2.038   6.357  0.3428  0.1331  0.2650
  113MOL   C24029584   0.088   2.189   6.359 -0.0722  0.4521 -0.9442
  113MOL   H24129585   0.346   1.905   6.263 -0.2692  1.6792  1.5023
  113MOL   H24229586   0.411   1.902   6.424  0.5642  0.5593 -0.8180
  113MOL   H24329587   0.132   1.793   6.350 -2.6980  0.2024  0.7370
  113MOL   H24429588   7.809   2.015   6.402  0.1276  3.0441  1.4044
  113MOL   H24529589   0.051   2.015   6.251 -1.0280  0.2229  0.3733
  113MOL   H24629590   0.093   2.221   6.463 -0.1065 -3.0862  0.2071
  113MOL   H24729591   0.180   2.206   6.302 -0.0445  1.2877 -0.6488
  113MOL   H24829592   7.841   2.229   6.314  0.0386 -0.3259 -1.8772
  113MOL   C24929593   0.196   1.778   6.559  0.8920  0.3656 -0.0612
  113MOL   C25029594   0.054   1.773   6.621 -0.7433  0.0718 -0.2306
  113MOL   O25129595   0.059   1.668   6.722 -0.6428  0.2089  0.2170
  113MOL   C25229596   7.774   1.631   6.775 -0.3006 -0.0824  0.1025
  113MOL   C25329597   7.781   1.539   6.900  0.4557  0.0262 -0.0571
  113MOL   H25429598   0.260   1.835   6.625  3.0968  0.4127 -2.1672
  113MOL   H25529599   0.226   1.674   6.545  1.5018  0.3617  1.2719
  113MOL   H25629600   0.019   1.864   6.670  0.6632 -0.5790  2.0661
  113MOL   H25729601   7.728   1.577   6.692 -0.1269  1.9631 -1.3542
  113MOL   H25829602   7.718   1.724   6.779 -0.9957 -0.4153 -1.5399
  113MOL   H25929603   0.038   1.500   6.909  0.9972  1.1172 -1.2674
  113MOL   H26029604   7.747   1.599   6.986  0.6994 -0.2240  0.2125
  113MOL   H26129605   7.705   1.462   6.892  0.2864  0.0682  0.9573
  113MOL   H26229606   7.827   1.735   6.547 -1.1453  0.5116 -0.0753
  114MOL     C129607   4.067   2.401   2.740  0.6790  0.2026 -0.2415
  114MOL     C229608   4.094   2.396   2.894  0.5296 -0.0848  0.5090
  114MOL     O329609   4.208   2.314   2.908 -0.2103  0.2825  0.4812
  114MOL     C429610   4.277   2.327   3.029 -0.3087 -0.6908  0.2696
  114MOL     C529611   4.406   2.238   3.028 -0.3599 -0.4796  0.1452
  114MOL     H629612   4.149   2.442   2.681 -0.6597  0.5801 -1.9012
  114MOL     H729613   4.049   2.303   2.695 -1.2667  0.5549 -0.2744
  114MOL     H829614   4.130   2.494   2.925  1.9127  0.3061 -2.1732
  114MOL     H929615   4.209   2.292   3.107  0.9940  0.0264  1.7510
  114MOL    H1029616   4.308   2.431   3.040 -1.3712 -0.5175  1.7215
  114MOL    H1129617   4.368   2.136   3.031 -2.0495  0.1721  1.4607
  114MOL    H1229618   4.460   2.243   2.933 -3.0599  1.4767 -1.3809
  114MOL    H1329619   4.479   2.253   3.108  2.3259 -0.5408 -2.1959
  114MOL    H1429620   3.980   2.458   2.705 -2.1603 -4.0847 -0.5733
  114MOL    C1529621   3.971   2.350   2.977 -0.5863 -0.5163 -0.5088
  114MOL    C1629622   3.861   2.462   2.989 -0.3686 -0.2055 -0.3634
  114MOL    O1729623   3.907   2.575   3.061 -0.6219 -0.5925 -0.1716
  114MOL    C1829624   3.842   2.696   3.059  0.0898  0.2495  0.8213
  114MOL    C1929625   3.916   2.799   3.135 -0.2948 -0.7195 -0.1629
  114MOL    H2029626   4.002   2.309   3.073  1.0014 -0.2246 -0.8852
  114MOL    H2129627   3.913   2.273   2.925 -1.2321 -0.7055  0.4859
  114MOL    H2229628   3.839   2.502   2.889  2.1508  1.3391 -0.3377
  114MOL    H2329629   3.744   2.674   3.101  0.3474  2.3391  2.6230
  114MOL    H2429630   3.826   2.717   2.953 -1.7569 -1.2074  0.7969
  114MOL    H2529631   3.939   2.758   3.234 -2.3067  0.1445  0.6900
  114MOL    H2629632   3.856   2.887   3.155  2.3375  1.2385 -0.5443
  114MOL    H2729633   4.014   2.832   3.099  0.8069 -2.7977  0.8261
  114MOL    C2829634   3.725   2.393   3.039  0.4608 -0.1242 -0.5714
  114MOL    C2929635   3.729   2.340   3.185 -0.1682  1.2115 -0.4018
  114MOL    O3029636   3.610   2.262   3.180  0.0356 -0.9632  0.5311
  114MOL    C3129637   3.636   2.124   3.183 -0.1914 -0.7332  0.4611
  114MOL    C3229638   3.506   2.043   3.198  0.2058  0.0550  0.2164
  114MOL    H3329639   3.709   2.314   2.965 -0.7939  0.0684 -0.5154
  114MOL    H3429640   3.641   2.459   3.018  1.0376  0.4499 -1.1134
  114MOL    H3529641   3.817   2.286   3.218 -0.2613  0.9199 -0.6185
  114MOL    H3629642   3.699   2.106   3.269  0.9861  0.4767 -0.1320
  114MOL    H3729643   3.690   2.090   3.094 -1.3679  0.0934 -0.5932
  114MOL    H3829644   3.517   1.934   3.204  0.7160  0.1619  1.2022
  114MOL    H3929645   3.457   2.063   3.293  0.0286 -1.1230  0.3843
  114MOL    H4029646   3.441   2.065   3.113  1.1339 -0.0752 -0.5421
  114MOL    C4129647   3.712   2.438   3.301  0.1311 -0.3962 -0.0008
  114MOL    C4229648   3.740   2.379   3.445 -0.7797  0.2676 -0.2667
  114MOL    O4329649   3.636   2.288   3.472 -0.4464 -0.4395 -0.0592
  114MOL    C4429650   3.651   2.190   3.580 -0.3467 -0.7357  0.3301
  114MOL    C4529651   3.523   2.108   3.593 -0.6789  0.3285 -0.0507
  114MOL    H4629652   3.619   2.494   3.297 -0.3431 -1.2227 -0.5497
  114MOL    H4729653   3.785   2.515   3.273 -2.6289  2.5138  0.5499
  114MOL    H4829654   3.835   2.326   3.431 -0.7873  0.0526  0.4658
  114MOL    H4929655   3.674   2.248   3.670  0.2293 -1.1001  0.4165
  114MOL    H5029656   3.745   2.139   3.561  0.5196  0.8322  0.2919
  114MOL    H5129657   3.517   2.057   3.690 -2.2354 -0.8368 -0.7368
  114MOL    H5229658   3.441   2.179   3.587  0.0387  1.2841  1.2172
  114MOL    H5329659   3.517   2.037   3.511  1.6993  0.6428 -0.5447
  114MOL    C5429660   3.756   2.484   3.549 -0.1338  0.1550  0.0356
  114MOL    C5529661   3.846   2.597   3.516  0.0432 -0.3949  0.3382
  114MOL    O5629662   3.973   2.530   3.519 -0.3154 -0.0773  0.0824
  114MOL    C5729663   4.051   2.531   3.399  0.4975 -0.1399  0.5927
  114MOL    C5829664   4.155   2.431   3.446 -0.0867 -0.6601  0.6778
  114MOL    H5929665   3.786   2.441   3.644 -0.5979 -1.7998 -0.6717
  114MOL    H6029666   3.656   2.520   3.570 -0.2721  0.5107 -1.1504
  114MOL    H6129667   3.816   2.644   3.423  2.3585  0.3076 -0.0960
  114MOL    H6229668   4.078   2.633   3.371 -0.7357 -0.5056 -2.1728
  114MOL    H6329669   3.995   2.485   3.317 -0.0362  0.1613  0.7891
  114MOL    H6429670   4.234   2.477   3.507 -0.2636 -1.4337  1.4974
  114MOL    H6529671   4.113   2.349   3.503 -0.8017 -2.4229 -2.2976
  114MOL    H6629672   4.218   2.394   3.365 -0.1612  1.0719 -0.1898
  114MOL    C6729673   3.846   2.716   3.614 -0.8578 -0.4840 -0.0929
  114MOL    C6829674   3.719   2.802   3.615  0.5590 -0.4274 -0.0177
  114MOL    O6929675   3.711   2.886   3.499  0.0647  0.3860 -0.5801
  114MOL    C7029676   3.570   2.913   3.471 -0.3573 -0.1278 -0.3060
  114MOL    C7129677   3.557   3.025   3.361 -0.0686  0.5770 -0.2700
  114MOL    H7229678   3.938   2.774   3.602 -0.3952 -1.0167  0.8725
  114MOL    H7329679   3.849   2.666   3.711  2.2012 -0.8366 -0.3207
  114MOL    H7429680   3.630   2.738   3.620  1.2382 -1.3418  0.5741
  114MOL    H7529681   3.515   2.946   3.559  1.6987 -0.5907  1.1963
  114MOL    H7629682   3.515   2.822   3.448 -0.8551  0.2242 -0.5125
  114MOL    H7729683   3.451   3.040   3.344 -0.2155 -1.2068 -1.0388
  114MOL    H7829684   3.604   3.116   3.399 -0.0393  0.3155  0.3286
  114MOL    H7929685   3.596   2.988   3.266 -2.7621  0.0143 -1.1883
  114MOL    C8029686   3.731   2.899   3.740  0.6827  0.1365  0.3923
  114MOL    C8129687   3.689   2.841   3.872  0.7731 -0.3431 -0.3305
  114MOL    O8229688   3.546   2.852   3.893 -0.4156 -0.0352 -0.5497
  114MOL    C8329689   3.482   2.721   3.899 -0.1254 -0.5315  0.4369
  114MOL    C8429690   3.328   2.731   3.861  0.3119  0.0940 -0.1612
  114MOL    H8529691   3.677   2.992   3.726 -2.5406 -1.5887  1.0620
  114MOL    H8629692   3.837   2.927   3.745 -0.0582  3.0770  0.5033
  114MOL    H8729693   3.722   2.737   3.864 -1.1422 -0.8201 -2.4260
  114MOL    H8829694   3.487   2.686   4.002 -4.2610  2.0858  1.6587
  114MOL    H8929695   3.527   2.651   3.828 -0.0538  1.2320 -1.3043
  114MOL    H9029696   3.262   2.775   3.935 -0.1623 -1.8225  0.5562
  114MOL    H9129697   3.319   2.788   3.768 -1.9720 -0.1461 -0.1052
  114MOL    H9229698   3.296   2.633   3.826  2.5231 -0.7799  0.1336
  114MOL    C9329699   3.749   2.906   3.997  0.0056  0.3792 -0.5551
  114MOL    C9429700   3.741   3.056   4.010 -0.3763  0.7805 -1.1168
  114MOL    O9529701   3.830   3.108   4.114 -0.0295  0.1383  0.5061
  114MOL    C9629702   3.806   3.053   4.252 -0.4422  0.8295  0.4758
  114MOL    C9729703   3.922   3.101   4.333  0.5590  0.0748 -0.0712
  114MOL    H9829704   3.853   2.875   3.992 -0.1046  0.2864 -2.8105
  114MOL    H9929705   3.688   2.863   4.076  1.5033  2.1354  1.6046
  114MOL   H10029706   3.781   3.096   3.917  2.7324 -0.8512 -0.5412
  114MOL   H10129707   3.777   2.949   4.262  0.3260  0.7001  1.4433
  114MOL   H10229708   3.713   3.102   4.281 -0.1098  0.7356  1.7336
  114MOL   H10329709   4.010   3.054   4.289 -1.0512 -0.3572 -2.9719
  114MOL   H10429710   3.940   3.207   4.317 -1.0927  0.3446 -0.2112
  114MOL   H10529711   3.918   3.083   4.441  1.4653 -1.2892 -0.2468
  114MOL   C10629712   3.598   3.113   4.034 -0.1906 -0.9018 -0.4978
  114MOL   C10729713   3.516   3.163   3.917 -0.5238  0.0882 -0.0139
  114MOL   O10829714   3.555   3.287   3.867 -0.0732 -0.1275 -0.1627
  114MOL   C10929715   3.650   3.286   3.758 -0.1233  0.3805 -0.6998
  114MOL   C11029716   3.640   3.422   3.690 -0.2546 -0.4652  0.1608
  114MOL   H11129717   3.599   3.201   4.099  1.5837 -2.0681  1.0973
  114MOL   H11229718   3.535   3.039   4.083 -2.3145  1.2647  0.1743
  114MOL   H11329719   3.509   3.086   3.840 -3.4964  1.5119 -1.2461
  114MOL   H11429720   3.620   3.211   3.684  0.7783  0.6060 -1.2886
  114MOL   H11529721   3.748   3.270   3.801  0.4636 -0.4684 -2.2987
  114MOL   H11629722   3.662   3.420   3.583 -1.9192  0.1938 -0.2146
  114MOL   H11729723   3.539   3.462   3.694  0.8143  2.2807  0.5138
  114MOL   H11829724   3.698   3.493   3.749  0.7782  1.0127 -2.5328
  114MOL   C11929725   3.369   3.187   3.951 -0.2804 -0.6728  0.7844
  114MOL   C12029726   3.271   3.192   3.833 -0.0540 -0.3045 -0.1027
  114MOL   O12129727   3.179   3.287   3.879  0.3481 -0.5560 -0.5558
  114MOL   C12229728   3.206   3.421   3.854 -0.5334  0.2759  0.5331
  114MOL   C12329729   3.134   3.500   3.969  0.8653 -0.3089 -0.8068
  114MOL   H12429730   3.356   3.273   4.015 -2.5391 -0.5526  0.2053
  114MOL   H12529731   3.330   3.105   4.011 -1.3085  0.1281  1.2177
  114MOL   H12629732   3.324   3.216   3.741  0.2977 -0.6387  0.0107
  114MOL   H12729733   3.158   3.455   3.762  0.9046 -0.6596 -0.5814
  114MOL   H12829734   3.313   3.440   3.864 -0.6801  1.3417  0.0935
  114MOL   H12929735   3.156   3.466   4.070  0.1296  2.4771  0.3495
  114MOL   H13029736   3.182   3.598   3.960  1.1338 -0.5977 -2.6382
  114MOL   H13129737   3.026   3.507   3.959  0.7511 -0.4805  0.2159
  114MOL   C13229738   3.203   3.064   3.801 -0.1617  0.3137  0.4375
  114MOL   C13329739   3.106   3.067   3.688  0.6370  0.0849  1.1269
  114MOL   O13429740   3.055   2.933   3.679 -0.1952  0.5119  0.3114
  114MOL   C13529741   2.923   2.924   3.735 -0.5275  0.3819 -0.2172
  114MOL   C13629742   2.875   2.788   3.702  0.3449 -0.4703  0.4137
  114MOL   H13729743   3.155   3.027   3.892  0.0592 -1.1553 -0.0428
  114MOL   H13829744   3.277   2.986   3.784  1.5629  2.5184 -2.5390
  114MOL   H13929745   3.036   3.146   3.714 -1.5346 -1.4638  0.1427
  114MOL   H14029746   2.874   2.994   3.669  1.0414 -0.0832 -1.9154
  114MOL   H14129747   2.922   2.955   3.840 -3.5046  0.2900 -0.1929
  114MOL   H14229748   2.768   2.778   3.720  0.5534 -0.5620  1.6720
  114MOL   H14329749   2.892   2.765   3.597 -1.8460 -1.3896  0.2409
  114MOL   H14429750   2.912   2.710   3.768 -0.7403 -0.5215  0.9748
  114MOL   C14529751   3.171   3.098   3.552  0.7928  0.1660 -0.0888
  114MOL   C14629752   3.079   3.096   3.423  0.3007  0.2802  0.5575
  114MOL   O14729753   3.149   3.095   3.301 -0.5014  0.5647 -0.1704
  114MOL   C14829754   3.184   2.963   3.262 -0.6977  0.1696  0.4038
  114MOL   C14929755   3.063   2.869   3.232 -0.6193 -0.0113 -0.1993
  114MOL   H15029756   3.250   3.026   3.534  0.9341  0.1096  0.7357
  114MOL   H15129757   3.218   3.197   3.556  1.3921 -0.1540  1.0726
  114MOL   H15229758   2.999   3.023   3.423  1.9188 -1.5321 -0.2128
  114MOL   H15329759   3.249   2.921   3.338 -0.1924 -0.1347 -0.1886
  114MOL   H15429760   3.257   2.979   3.182  0.5406  0.5208  1.5868
  114MOL   H15529761   3.095   2.772   3.194 -0.5347 -0.1128  0.1280
  114MOL   H15629762   2.987   2.862   3.310 -0.2530 -1.2146  0.0487
  114MOL   H15729763   3.022   2.917   3.143  0.1169 -1.2853 -1.2324
  114MOL   C15829764   3.000   3.225   3.429  0.0347 -0.0802 -0.4132
  114MOL   C15929765   2.910   3.255   3.304 -0.1973 -0.2449  0.5120
  114MOL   O16029766   2.873   3.392   3.320  0.1687  0.0312 -0.6006
  114MOL   C16129767   2.958   3.503   3.286  0.3504 -0.7665  0.2610
  114MOL   C16229768   2.936   3.616   3.391  0.8186 -0.6195 -0.2226
  114MOL   H16329769   3.070   3.309   3.430  0.2927 -0.3001  2.0122
  114MOL   H16429770   2.937   3.238   3.517  0.0993 -2.6221  0.0363
  114MOL   H16529771   2.962   3.240   3.210  1.1253 -0.7977  1.3218
  114MOL   H16629772   2.935   3.533   3.183 -1.1149  0.7142  1.0024
  114MOL   H16729773   3.060   3.465   3.285  0.8753  0.6276  0.1856
  114MOL   H16829774   2.920   3.585   3.494  0.1613  1.5567  0.3634
  114MOL   H16929775   3.010   3.696   3.395 -0.0528  0.1993 -0.2245
  114MOL   H17029776   2.842   3.670   3.377  1.3764 -0.1795 -2.5124
  114MOL   C17129777   2.783   3.173   3.304 -0.2684 -0.2765 -0.0034
  114MOL   C17229778   2.696   3.177   3.179 -0.9320 -0.6048 -0.2090
  114MOL   O17329779   2.592   3.080   3.200  0.3592 -0.3086  0.5557
  114MOL   C17429780   2.469   3.128   3.241 -0.6264  0.5094 -0.2024
  114MOL   C17529781   2.379   3.010   3.216 -0.5402 -1.2493 -0.4878
  114MOL   H17629782   2.724   3.207   3.390 -0.0102  1.0876 -0.3534
  114MOL   H17729783   2.818   3.075   3.336 -0.8920 -1.1353 -1.9142
  114MOL   H17829784   2.657   3.277   3.159  1.4009  0.1463 -1.1734
  114MOL   H17929785   2.429   3.206   3.176 -1.1515 -1.6369 -2.4894
  114MOL   H18029786   2.469   3.155   3.347  1.1438  2.6774 -0.7318
  114MOL   H18129787   2.423   2.934   3.282  0.7073 -0.4700 -0.4075
  114MOL   H18229788   2.276   3.024   3.249 -0.1966  1.1050 -0.3507
  114MOL   H18329789   2.390   2.976   3.113 -2.9466  2.0418 -1.9037
  114MOL   C18429790   2.765   3.130   3.049  0.5143 -0.1768 -0.4096
  114MOL   C18529791   2.734   3.227   2.935  0.1391 -0.3210  0.7129
  114MOL   O18629792   2.757   3.173   2.805 -0.1063  0.3717 -0.3221
  114MOL   C18729793   2.634   3.123   2.751 -0.4819 -0.0231 -0.0326
  114MOL   C18829794   2.646   3.095   2.606  0.1390 -0.4134 -0.9462
  114MOL   H18929795   2.733   3.027   3.033 -0.7626  0.0928  0.3238
  114MOL   H19029796   2.869   3.117   3.078  0.5474  0.1161 -0.3939
  114MOL   H19129797   2.629   3.243   2.957  0.3360 -1.0742  2.2772
  114MOL   H19229798   2.560   3.203   2.764 -1.7472 -1.4169  1.5275
  114MOL   H19329799   2.591   3.046   2.815 -0.1282 -0.8596 -0.7919
  114MOL   H19429800   2.692   2.999   2.585  2.2024  0.9695 -2.9918
  114MOL   H19529801   2.543   3.092   2.570 -0.7551  0.8698  1.3857
  114MOL   H19629802   2.696   3.176   2.552 -0.8914  1.9669  1.5380
  114MOL   C19729803   2.815   3.358   2.944  1.1252 -0.6171 -0.6097
  114MOL   C19829804   2.745   3.493   2.887  0.8663 -0.6748 -0.0524
  114MOL   O19929805   2.828   3.610   2.899 -0.2023 -0.5148 -0.3049
  114MOL   C20029806   2.918   3.620   2.795  0.1838 -0.4428  0.6835
  114MOL   C20129807   3.007   3.742   2.816 -0.2554  0.4375  0.2023
  114MOL   H20229808   2.912   3.350   2.894  1.8387  0.9747  0.4761
  114MOL   H20329809   2.842   3.378   3.048 -0.9225  1.7638 -0.4745
  114MOL   H20429810   2.707   3.474   2.786 -0.3325 -3.4744  0.8811
  114MOL   H20529811   2.871   3.644   2.700  1.6737  0.4396  0.1597
  114MOL   H20629812   2.972   3.526   2.778  1.1519  0.7212 -3.2572
  114MOL   H20729813   2.955   3.835   2.795 -2.1394  0.1395  3.2630
  114MOL   H20829814   3.056   3.745   2.914 -1.6315 -1.0826  0.9710
  114MOL   H20929815   3.082   3.753   2.738  0.8352 -1.8097  0.8472
  114MOL   C21029816   2.624   3.533   2.973  0.1571  0.1910  0.0952
  114MOL   C21129817   2.561   3.666   2.934 -0.5405  0.1147  0.1078
  114MOL   O21229818   2.467   3.684   3.036 -0.2135  0.3765 -0.1111
  114MOL   C21329819   2.467   3.802   3.117  0.1477 -0.3039  0.2075
  114MOL   C21429820   2.332   3.789   3.191 -0.5563 -0.0325  0.1335
  114MOL   H21529821   2.653   3.538   3.078 -1.2811 -2.6079  0.6733
  114MOL   H21629822   2.546   3.457   2.965  0.7369 -0.5410  1.1889
  114MOL   H21729823   2.630   3.749   2.949  0.4706 -0.7856  0.4840
  114MOL   H21829824   2.467   3.895   3.061  0.2379  0.5372  1.5709
  114MOL   H21929825   2.551   3.794   3.185  0.3282 -4.2617 -0.3859
  114MOL   H22029826   2.243   3.810   3.130 -0.3414 -0.5168 -0.3569
  114MOL   H22129827   2.324   3.691   3.238 -2.8427  0.6575  1.2807
  114MOL   H22229828   2.336   3.862   3.272  1.8916 -0.2715  0.2565
  114MOL   C22329829   2.496   3.661   2.797  0.4449 -0.2820  0.2237
  114MOL   C22429830   2.450   3.794   2.729  0.1901  0.0855 -0.6271
  114MOL   O22529831   2.339   3.748   2.653 -0.0677 -0.1643 -0.3042
  114MOL   C22629832   2.213   3.779   2.707  0.8797 -0.2206 -0.8169
  114MOL   C22729833   2.107   3.711   2.625  0.3232  0.4617 -0.0978
  114MOL   H22829834   2.404   3.603   2.810 -1.6098  2.9051  0.4800
  114MOL   H22929835   2.543   3.608   2.713  0.4763 -0.0603  0.1017
  114MOL   H23029836   2.417   3.870   2.801  1.9822  0.0516  0.2555
  114MOL   H23129837   2.202   3.885   2.728 -1.4272 -0.8214  1.1750
  114MOL   H23229838   2.198   3.732   2.804 -2.2362  3.9405  0.8614
  114MOL   H23329839   2.135   3.722   2.520 -1.7291 -2.4703 -1.0020
  114MOL   H23429840   2.095   3.603   2.635 -0.8902  0.4969 -1.1430
  114MOL   H23529841   2.009   3.758   2.630  0.4239  0.3842  5.5007
  114MOL   C23629842   2.555   3.855   2.633 -0.4241 -0.6367 -0.3227
  114MOL   C23729843   2.651   3.961   2.692 -0.1731  0.2826 -0.2873
  114MOL   O23829844   2.585   4.084   2.710  0.3058 -0.2011  0.3746
  114MOL   C23929845   2.538   4.115   2.839 -0.4265  0.2691  0.2588
  114MOL   C24029846   2.507   4.259   2.845  0.2282  0.4832 -0.1589
  114MOL   H24129847   2.505   3.913   2.555 -1.1376  0.1022  0.6762
  114MOL   H24229848   2.622   3.778   2.594 -1.3905 -1.6697  0.0406
  114MOL   H24329849   2.685   3.922   2.788 -0.4884  1.0821  0.1563
  114MOL   H24429850   2.614   4.092   2.913  0.1176 -5.1924 -1.7304
  114MOL   H24529851   2.453   4.051   2.860 -0.0319 -1.4356 -3.0276
  114MOL   H24629852   2.467   4.288   2.942  0.1315 -1.4173  0.3841
  114MOL   H24729853   2.591   4.322   2.813 -1.0921  1.4626 -1.7434
  114MOL   H24829854   2.425   4.280   2.777 -0.9096 -2.0707  0.3643
  114MOL   C24929855   2.763   3.974   2.587 -0.5540  0.1852  0.2461
  114MOL   C25029856   2.858   4.092   2.611 -0.1889 -0.5069  0.1057
  114MOL   O25129857   2.954   4.064   2.717 -0.0030 -0.2986  0.4539
  114MOL   C25229858   3.008   4.179   2.779 -0.2583 -0.2750  0.3880
  114MOL   C25329859   3.120   4.129   2.876 -0.6389 -0.6346 -0.5962
  114MOL   H25429860   2.728   3.978   2.483 -0.0238 -1.5614 -0.0109
  114MOL   H25529861   2.835   3.892   2.592  1.6743  1.8343 -2.6506
  114MOL   H25629862   2.912   4.126   2.522  1.1716 -1.9038  0.3772
  114MOL   H25729863   2.933   4.241   2.827  0.3700  0.1719  0.7942
  114MOL   H25829864   3.058   4.242   2.706 -1.1412 -0.5265 -0.4543
  114MOL   H25929865   3.180   4.211   2.915  0.8787 -1.4089 -1.2375
  114MOL   H26029866   3.090   4.066   2.959  1.7926  0.4128  1.1488
  114MOL   H26129867   3.189   4.067   2.819 -1.0099 -1.6269  0.0230
  114MOL   H26229868   2.802   4.183   2.633  0.5175  0.0585 -0.3903
  115MOL     C129869   4.410   3.927   0.442 -0.2799  0.7976  0.2942
  115MOL     C229870   4.530   3.824   0.442 -0.1184  0.5412  0.3161
  115MOL     O329871   4.583   3.814   0.316 -0.3923  0.3051  0.6516
  115MOL     C429872   4.700   3.886   0.276 -0.2685 -0.1182 -0.0280
  115MOL     C529873   4.676   3.951   0.142  0.6882 -0.4655  0.0829
  115MOL     H629874   4.368   3.938   0.542  0.5293 -0.0085  0.7344
  115MOL     H729875   4.446   4.016   0.391  1.6583 -1.2060 -1.9439
  115MOL     H829876   4.603   3.858   0.515 -0.0733 -2.3034  1.6658
  115MOL     H929877   4.790   3.823   0.278  0.7572  1.3198 -0.1330
  115MOL    H1029878   4.711   3.956   0.359  1.4473  1.6539 -1.6930
  115MOL    H1129879   4.650   3.867   0.078 -0.5109  1.4222 -1.9920
  115MOL    H1229880   4.589   4.016   0.153  0.1579 -0.8416 -1.7500
  115MOL    H1329881   4.761   4.005   0.102 -0.8955  1.4285 -0.8292
  115MOL    H1429882   4.330   3.879   0.385 -0.7511 -1.2731  2.6157
  115MOL    C1529883   4.486   3.684   0.499 -0.0108  0.0268  0.0444
  115MOL    C1629884   4.602   3.575   0.508  0.5141 -0.6396  0.1224
  115MOL    O1729885   4.557   3.441   0.516  0.2595  0.6918 -0.3629
  115MOL    C1829886   4.515   3.386   0.385  0.1580  0.2684  0.1687
  115MOL    C1929887   4.359   3.386   0.387  0.7378  0.4319  0.6648
  115MOL    H2029888   4.407   3.649   0.432 -1.0345  1.3141  0.5701
  115MOL    H2129889   4.435   3.704   0.593  0.3661  2.3436 -0.2347
  115MOL    H2229890   4.665   3.591   0.421 -0.6390  2.7077 -0.1796
  115MOL    H2329891   4.546   3.282   0.378 -2.2035 -0.4017 -0.5720
  115MOL    H2429892   4.560   3.430   0.296  0.0703  0.3296  0.1541
  115MOL    H2529893   4.322   3.348   0.291  0.3361  2.6206 -0.0718
  115MOL    H2629894   4.317   3.485   0.403  0.9138  0.2534  2.2757
  115MOL    H2729895   4.321   3.321   0.465 -0.3934  0.3485  0.0543
  115MOL    C2829896   4.692   3.610   0.638  0.5931 -0.0878  0.5152
  115MOL    C2929897   4.792   3.504   0.669 -0.1637  0.2371  0.3991
  115MOL    O3029898   4.857   3.532   0.790  0.0563  0.1567 -0.9126
  115MOL    C3129899   4.865   3.430   0.887  0.0126 -0.3722 -0.1845
  115MOL    C3229900   4.913   3.501   1.015 -0.2938  0.0374  0.1183
  115MOL    H3329901   4.629   3.629   0.725 -3.9288  0.5055 -2.7520
  115MOL    H3429902   4.741   3.707   0.630  0.4546  0.0627  1.4495
  115MOL    H3529903   4.743   3.407   0.682  0.4269 -0.5406 -2.8487
  115MOL    H3629904   4.938   3.352   0.863  0.4408 -0.2671  0.7575
  115MOL    H3729905   4.769   3.379   0.896 -0.0233 -0.1703  0.5645
  115MOL    H3829906   4.834   3.569   1.045 -1.6073 -1.3145 -0.1906
  115MOL    H3929907   4.928   3.441   1.104  0.4284 -1.0965 -0.7434
  115MOL    H4029908   5.001   3.563   0.999 -1.8709  2.3387  0.1943
  115MOL    C4129909   4.898   3.472   0.565 -0.1892  0.5784 -0.9928
  115MOL    C4229910   4.988   3.581   0.511  0.3579 -0.0620 -0.1321
  115MOL    O4329911   5.058   3.520   0.396  0.1685 -0.0797 -0.1598
  115MOL    C4429912   4.996   3.548   0.275 -0.0673 -0.1071  0.1725
  115MOL    C4529913   5.077   3.472   0.162 -0.2704 -0.8774 -0.0650
  115MOL    H4629914   4.850   3.411   0.489  0.5005 -1.7045  0.3756
  115MOL    H4729915   4.967   3.403   0.613 -0.5309  0.8709 -0.0557
  115MOL    H4829916   4.935   3.670   0.477 -0.9804 -0.7799  0.0461
  115MOL    H4929917   5.011   3.654   0.252 -0.9369 -0.1142 -0.4663
  115MOL    H5029918   4.890   3.522   0.262 -0.6226  1.6309  1.1066
  115MOL    H5129919   5.049   3.367   0.156 -0.4519 -0.9030  1.1274
  115MOL    H5229920   5.070   3.531   0.071 -0.8214  0.0006  0.5462
  115MOL    H5329921   5.183   3.478   0.186  0.2845 -0.6006 -2.4924
  115MOL    C5429922   5.084   3.633   0.621 -0.5682 -0.0762  0.6009
  115MOL    C5529923   5.186   3.747   0.590 -0.3031 -0.1381 -0.0076
  115MOL    O5629924   5.118   3.856   0.528  0.0813 -0.2075  0.0825
  115MOL    C5729925   5.173   3.986   0.525  0.1426 -0.0899  1.0413
  115MOL    C5829926   5.091   4.066   0.429 -0.0303  0.2224 -0.4168
  115MOL    H5929927   5.137   3.549   0.666  2.1116  2.0737  1.5616
  115MOL    H6029928   5.024   3.660   0.708 -0.0506  2.2806  0.2564
  115MOL    H6129929   5.224   3.792   0.682  0.3319 -3.6336  1.5320
  115MOL    H6229930   5.277   3.972   0.496 -0.0834  0.7431 -0.1742
  115MOL    H6329931   5.172   4.031   0.625 -1.6677  1.7764  0.2102
  115MOL    H6429932   5.053   4.003   0.348 -0.2498 -0.1870 -0.0045
  115MOL    H6529933   5.006   4.113   0.477 -0.0053 -0.8506  0.7126
  115MOL    H6629934   5.148   4.150   0.390  0.6824  0.2801  0.7132
  115MOL    C6729935   5.302   3.700   0.499  0.4578 -0.0362 -0.3374
  115MOL    C6829936   5.400   3.604   0.557 -0.0973 -0.1388 -1.3643
  115MOL    O6929937   5.453   3.666   0.670 -0.4056  0.2685  0.2847
  115MOL    C7029938   5.477   3.579   0.782 -0.1225  0.3867 -0.2284
  115MOL    C7129939   5.497   3.654   0.912 -0.2371  0.2772 -0.3432
  115MOL    H7229940   5.353   3.782   0.448  0.9543 -0.5343 -0.6360
  115MOL    H7329941   5.238   3.650   0.426 -1.2852  1.1063  0.3465
  115MOL    H7429942   5.347   3.513   0.585 -0.4832  0.1832 -1.0396
  115MOL    H7529943   5.561   3.520   0.744 -1.7532 -1.5689 -0.8476
  115MOL    H7629944   5.395   3.511   0.798  0.6646 -0.4295  0.3861
  115MOL    H7729945   5.405   3.703   0.945  0.0062  0.0568  0.6798
  115MOL    H7829946   5.523   3.595   1.000 -0.6387  0.0245 -0.3935
  115MOL    H7929947   5.572   3.731   0.892  0.4208 -0.7364 -1.8634
  115MOL    C8029948   5.513   3.563   0.457  0.0673 -0.9248  0.4981
  115MOL    C8129949   5.466   3.462   0.350 -0.9533 -0.4066  0.0146
  115MOL    O8229950   5.449   3.333   0.412  0.3975 -0.5495 -0.1528
  115MOL    C8329951   5.320   3.265   0.410  0.7307 -0.3380  0.4904
  115MOL    C8429952   5.348   3.126   0.466 -0.5370  1.1306 -0.7208
  115MOL    H8529953   5.601   3.532   0.514  1.3361  0.1245 -0.8299
  115MOL    H8629954   5.540   3.660   0.415  0.9255 -2.5260 -2.8446
  115MOL    H8729955   5.368   3.490   0.309 -0.7270  1.9705  1.0095
  115MOL    H8829956   5.283   3.251   0.309  1.5594  0.9741 -0.0145
  115MOL    H8929957   5.246   3.313   0.474  1.8705 -0.4389  1.9060
  115MOL    H9029958   5.421   3.072   0.405 -0.2569 -0.2806  0.8472
  115MOL    H9129959   5.381   3.132   0.570 -2.2426  0.7249 -0.1494
  115MOL    H9229960   5.260   3.063   0.463 -0.2746  0.6345  1.6535
  115MOL    C9329961   5.567   3.444   0.242 -0.6279 -0.2847  0.2258
  115MOL    C9429962   5.611   3.560   0.150 -0.3779  0.0578 -0.9680
  115MOL    O9529963   5.500   3.625   0.083 -0.3950  0.1763 -0.0417
  115MOL    C9629964   5.485   3.760   0.123  0.2023 -0.1620  0.0333
  115MOL    C9729965   5.364   3.814   0.054 -0.1007  0.8396 -0.5742
  115MOL    H9829966   5.522   3.379   0.167  0.2560  3.0636 -3.4321
  115MOL    H9929967   5.658   3.390   0.271 -0.9591 -0.2510  1.3452
  115MOL   H10029968   5.662   3.624   0.222 -1.3661 -0.4394  0.1824
  115MOL   H10129969   5.575   3.822   0.111 -0.5530  0.6329 -1.7008
  115MOL   H10229970   5.451   3.764   0.226 -3.6458  1.5838 -1.2303
  115MOL   H10329971   5.370   3.807   7.789 -0.1684 -0.9143 -0.4753
  115MOL   H10429972   5.274   3.759   0.081  0.1794  1.0870  0.9116
  115MOL   H10529973   5.351   3.914   0.094  0.0274  0.1293  1.3244
  115MOL   C10629974   5.714   3.514   0.042  0.2651 -0.6237  0.0923
  115MOL   C10729975   5.833   3.619   0.019 -0.7608  0.1272  0.3081
  115MOL   O10829976   5.860   3.612   7.724  0.0292  0.0909 -0.4729
  115MOL   C10929977   5.786   3.702   7.650  0.3966 -0.2747 -0.1688
  115MOL   C11029978   5.760   3.634   7.519 -0.0926 -0.1847  0.2369
  115MOL   H11129979   5.662   3.491   7.793  0.1819  2.0133 -0.5382
  115MOL   H11229980   5.748   3.416   0.076  3.1378 -1.1651 -4.0113
  115MOL   H11329981   5.812   3.720   0.054 -1.7048  0.0553 -0.0386
  115MOL   H11429982   5.828   3.803   7.646  2.1108 -1.0289 -2.0864
  115MOL   H11529983   5.689   3.714   7.698  1.2627  1.9843  1.1126
  115MOL   H11629984   5.719   3.536   7.539 -1.7082  0.3692 -0.3044
  115MOL   H11729985   5.700   3.701   7.457  2.2395  0.7472 -1.0843
  115MOL   H11829986   5.852   3.626   7.460  0.1821  1.2179  0.4341
  115MOL   C11929987   5.960   3.583   0.093 -0.2134 -0.1810 -0.3275
  115MOL   C12029988   5.952   3.587   0.248  0.6365  0.2735 -0.1158
  115MOL   O12129989   5.927   3.725   0.282  0.1659  0.4420 -0.2962
  115MOL   C12229990   5.853   3.748   0.401  0.0431  0.2755  0.1042
  115MOL   C12329991   5.792   3.880   0.401  0.6008 -0.2971  0.0921
  115MOL   H12429992   6.043   3.648   0.065  0.0453 -0.0636  0.6833
  115MOL   H12529993   5.992   3.484   0.059 -0.1211 -0.9869  2.0098
  115MOL   H12629994   5.868   3.528   0.284  0.5777 -0.8843 -2.0635
  115MOL   H12729995   5.920   3.738   0.486 -1.1142  0.4140  1.0470
  115MOL   H12829996   5.772   3.676   0.414  0.1277 -0.3747 -2.5716
  115MOL   H12929997   5.704   3.878   0.336 -0.7824  0.7870  1.8885
  115MOL   H13029998   5.759   3.908   0.501 -1.2042 -1.7861 -0.0419
  115MOL   H13129999   5.859   3.963   0.381  1.0850 -0.4471  1.0734
  115MOL   C13230000   6.082   3.545   0.314 -0.3684  0.2710  0.5776
  115MOL   C13330001   6.098   3.396   0.303 -0.1104  0.5153  0.3506
  115MOL   O13430002   5.985   3.335   0.361 -0.6259 -0.5200  0.5786
  115MOL   C13530003   5.929   3.227   0.282  0.1215 -0.3168  0.0306
  115MOL   C13630004   6.006   3.101   0.312  0.2756 -0.3812 -0.0076
  115MOL   H13730005   6.088   3.566   0.421  0.3794 -0.0125  0.5939
  115MOL   H13830006   6.161   3.592   0.256 -0.1668 -0.6417  0.0968
  115MOL   H13930007   6.113   3.366   0.200 -1.6649 -1.1808  0.5947
  115MOL   H14030008   5.933   3.265   0.180  0.8030  1.1244  0.5845
  115MOL   H14130009   5.823   3.218   0.305 -0.2159  2.5810 -0.1882
  115MOL   H14230010   5.956   3.023   0.256  0.5021  0.2186 -1.0737
  115MOL   H14330011   6.108   3.089   0.275 -0.1417 -0.8445 -1.0435
  115MOL   H14430012   6.002   3.082   0.419  0.0038  1.3365  0.2996
  115MOL   C14530013   6.224   3.347   0.371  0.0775 -0.3827  0.0222
  115MOL   C14630014   6.350   3.353   0.285  0.7680 -0.5789  0.0214
  115MOL   O14730015   6.342   3.241   0.197 -0.0238 -0.2888 -0.3800
  115MOL   C14830016   6.428   3.247   0.084 -0.4002 -0.4622 -0.1436
  115MOL   C14930017   6.376   3.156   7.816  0.7631 -0.1502  0.4237
  115MOL   H15030018   6.216   3.240   0.390 -2.3723 -0.6225 -2.0584
  115MOL   H15130019   6.240   3.399   0.465 -0.3318  0.2923 -0.2777
  115MOL   H15230020   6.354   3.438   0.216  0.5141 -1.1828 -0.7535
  115MOL   H15330021   6.525   3.207   0.112 -0.6293  0.6156  2.2827
  115MOL   H15430022   6.441   3.345   0.039  0.0093 -0.5412 -0.2008
  115MOL   H15530023   6.447   3.158   7.734 -0.1821  0.8735 -0.3988
  115MOL   H15630024   6.379   3.054   0.010  0.3848 -0.7848 -1.2330
  115MOL   H15730025   6.273   3.182   7.789  0.8433 -0.2498  0.0220
  115MOL   C15830026   6.484   3.367   0.371 -0.7892 -0.0954  0.4832
  115MOL   C15930027   6.524   3.496   0.448  0.3271  0.7376 -0.3219
  115MOL   O16030028   6.431   3.511   0.557  0.5093 -0.0588 -0.1620
  115MOL   C16130029   6.477   3.582   0.669 -0.3961  0.1211 -0.0818
  115MOL   C16230030   6.384   3.556   0.790  0.2118 -0.2544 -0.3809
  115MOL   H16330031   6.571   3.341   0.311  0.0174 -0.0538  1.6268
  115MOL   H16430032   6.477   3.287   0.444  1.5577 -1.3035 -0.5584
  115MOL   H16530033   6.624   3.472   0.484 -0.3576 -0.8596  0.5715
  115MOL   H16630034   6.465   3.689   0.652 -3.7166  0.3507  3.1233
  115MOL   H16730035   6.581   3.561   0.693  0.2357  2.6740 -0.4212
  115MOL   H16830036   6.281   3.576   0.761 -0.2584 -0.5846  1.0720
  115MOL   H16930037   6.407   3.454   0.820  0.2188 -0.7272 -1.9095
  115MOL   H17030038   6.405   3.627   0.870  0.3210  1.0474 -1.5317
  115MOL   C17130039   6.529   3.621   0.358 -0.3642 -0.2390  0.5021
  115MOL   C17230040   6.628   3.611   0.244 -0.2789 -0.1262  0.4575
  115MOL   O17330041   6.757   3.595   0.292  0.3850 -0.1979 -0.2753
  115MOL   C17430042   6.853   3.526   0.206  0.4255 -0.0218 -0.8237
  115MOL   C17530043   6.984   3.503   0.287  0.4324 -0.0841  0.1009
  115MOL   H17630044   6.548   3.709   0.419  0.4175 -1.1778  1.6260
  115MOL   H17730045   6.426   3.629   0.322  0.1364  0.9824 -0.6924
  115MOL   H17830046   6.603   3.528   0.178  3.4133  0.3282 -1.6050
  115MOL   H17930047   6.887   3.598   0.131 -0.1517  1.5684  0.4142
  115MOL   H18030048   6.822   3.431   0.164 -1.4685  1.7111 -3.4829
  115MOL   H18130049   6.983   3.575   0.368 -0.4572  0.3737 -0.3135
  115MOL   H18230050   6.976   3.406   0.336  2.6480 -0.1027  0.4548
  115MOL   H18330051   7.071   3.512   0.223 -0.0051  1.2242 -0.3219
  115MOL   C18430052   6.632   3.747   0.168 -0.2621  0.6443  0.1918
  115MOL   C18530053   6.504   3.786   0.092  0.5770 -0.0609  0.1945
  115MOL   O18630054   6.450   3.674   0.030 -0.0990  0.2537 -0.3423
  115MOL   C18730055   6.323   3.691   7.825  0.4600  1.0596 -0.7726
  115MOL   C18830056   6.276   3.555   7.776 -0.4087 -0.0831  0.3457
  115MOL   H18930057   6.702   3.735   0.085 -0.4920  1.4662 -0.1289
  115MOL   H19030058   6.655   3.830   0.236  1.9729  0.7278 -0.6235
  115MOL   H19130059   6.430   3.812   0.167 -0.0633 -0.3355 -0.3313
  115MOL   H19230060   6.321   3.746   7.731  1.9412  0.9253 -0.8900
  115MOL   H19330061   6.258   3.733   0.058  0.7729 -1.8230  1.1839
  115MOL   H19430062   6.347   3.506   7.709  0.3743  1.4107  0.0499
  115MOL   H19530063   6.261   3.484   0.013  0.0325 -0.8863 -0.2730
  115MOL   H19630064   6.179   3.576   7.729 -0.6434  0.0038  0.8695
  115MOL   C19730065   6.517   3.893   7.827  0.6966  0.1880  0.2423
  115MOL   C19830066   6.420   4.014   0.008 -0.1107 -0.0419 -0.0370
  115MOL   O19930067   6.452   4.093   7.738  0.4097 -0.2163  0.4275
  115MOL   C20030068   6.356   4.099   7.632 -0.4180 -0.7701 -0.1718
  115MOL   C20130069   6.368   4.235   7.567 -0.7880  0.3352 -0.4222
  115MOL   H20230070   6.505   3.850   7.727  3.3357 -1.0967  0.4573
  115MOL   H20330071   6.620   3.925   7.815  1.7295 -3.0293 -0.0397
  115MOL   H20430072   6.313   3.995   0.006  0.0129 -0.7170 -0.9619
  115MOL   H20530073   6.254   4.094   7.672  0.5888 -0.4001  2.5430
  115MOL   H20630074   6.363   4.023   7.554 -0.2433 -1.4109  0.4733
  115MOL   H20730075   6.362   4.315   7.641  0.0619  2.8021 -2.9226
  115MOL   H20830076   6.465   4.238   7.516  0.4489 -2.6751  1.5990
  115MOL   H20930077   6.283   4.243   7.499  0.5340  1.1492 -2.0191
  115MOL   C21030078   6.463   4.097   0.132  0.2479 -0.4469 -0.2556
  115MOL   C21130079   6.354   4.152   0.219  0.5743 -0.3235  0.3418
  115MOL   O21230080   6.263   4.047   0.250  0.1140 -0.5226 -0.5526
  115MOL   C21330081   6.291   3.989   0.373  0.1916 -0.1563 -0.9200
  115MOL   C21430082   6.199   3.876   0.393  0.5166  0.1018 -0.0534
  115MOL   H21530083   6.535   4.177   0.113 -0.0985  0.4533  2.1180
  115MOL   H21630084   6.511   4.024   0.198 -0.5589 -0.5440  0.2291
  115MOL   H21730085   6.404   4.177   0.312  1.2360  0.3500 -0.1964
  115MOL   H21830086   6.293   4.060   0.456  0.9884 -1.0819 -0.1283
  115MOL   H21930087   6.396   3.961   0.365  0.8376  1.8749  0.0689
  115MOL   H22030088   6.247   3.816   0.470  1.0032 -0.5000 -0.8208
  115MOL   H22130089   6.095   3.906   0.406 -0.2849 -1.5573 -2.2466
  115MOL   H22230090   6.198   3.817   0.301  0.9846 -1.9270  1.2071
  115MOL   C22330091   6.279   4.274   0.167 -0.0612  0.3596 -0.0380
  115MOL   C22430092   6.201   4.351   0.275  0.1076  0.5987 -0.1611
  115MOL   O22530093   6.128   4.462   0.208  0.2835  0.0641  0.0765
  115MOL   C22630094   6.003   4.407   0.157  0.7706 -0.0922  0.2157
  115MOL   C22730095   5.948   4.497   0.054 -0.6972  0.1312 -0.2011
  115MOL   H22830096   6.221   4.246   0.079  0.9156 -0.3592 -0.4718
  115MOL   H22930097   6.348   4.351   0.132  1.3247 -2.0117 -2.8291
  115MOL   H23030098   6.131   4.277   0.314  0.3239  0.1774 -0.5688
  115MOL   H23130099   5.933   4.409   0.241  2.4825  3.6830  1.6575
  115MOL   H23230100   6.011   4.301   0.133  0.8584 -0.1039  0.2955
  115MOL   H23330101   6.012   4.490   7.810  0.6331  0.4320  0.7166
  115MOL   H23430102   5.849   4.473   0.017 -0.4102 -1.6067  0.1265
  115MOL   H23530103   5.939   4.599   0.092  0.3793 -0.3912  1.5531
  115MOL   C23630104   6.286   4.437   0.365  0.3575  0.3820  1.4254
  115MOL   C23730105   6.226   4.453   0.503  0.0314 -0.2587  0.3636
  115MOL   O23830106   6.307   4.541   0.569  0.0111  0.1992 -0.4103
  115MOL   C23930107   6.290   4.688   0.544 -0.3778  0.4247  0.1196
  115MOL   C24030108   6.413   4.757   0.603 -0.4048 -0.2428  0.1148
  115MOL   H24130109   6.323   4.530   0.322  0.8368  1.5489  4.2507
  115MOL   H24230110   6.380   4.381   0.371 -0.3575 -1.2169 -1.2311
  115MOL   H24330111   6.123   4.487   0.504  0.1708  0.2640 -1.4707
  115MOL   H24430112   6.199   4.728   0.588  0.1999 -1.8047  3.5740
  115MOL   H24530113   6.276   4.712   0.439 -0.2867 -2.6898 -0.6752
  115MOL   H24630114   6.411   4.738   0.711 -0.5945  3.5842  0.8475
  115MOL   H24730115   6.511   4.724   0.569 -1.3767 -1.4101 -1.6426
  115MOL   H24830116   6.410   4.863   0.578 -1.2237 -0.0254  1.1145
  115MOL   C24930117   6.230   4.319   0.587  0.5846 -0.9538 -0.2883
  115MOL   C25030118   6.217   4.332   0.741 -0.4082  0.4919 -0.5187
  115MOL   O25130119   6.265   4.215   0.799 -0.0701  0.5581  0.2312
  115MOL   C25230120   6.233   4.216   0.943 -0.2918 -0.3338  0.4155
  115MOL   C25330121   6.311   4.100   1.012 -0.1798 -0.9705  0.8660
  115MOL   H25430122   6.325   4.272   0.565  1.1095  0.1875 -0.5260
  115MOL   H25530123   6.157   4.252   0.543  0.4852 -0.1210 -1.4276
  115MOL   H25630124   6.268   4.416   0.789 -0.4369  0.4863 -0.4776
  115MOL   H25730125   6.126   4.200   0.951 -0.0113 -2.4919  0.0192
  115MOL   H25830126   6.255   4.310   0.995 -1.2203 -0.0169  0.2469
  115MOL   H25930127   6.416   4.090   0.988 -1.0831 -1.2310 -3.2887
  115MOL   H26030128   6.308   4.115   1.120 -1.8555 -1.1943  0.8679
  115MOL   H26130129   6.274   3.999   0.992  0.7737 -0.4269 -4.0721
  115MOL   H26230130   6.114   4.339   0.776 -0.9395  2.6985 -2.4282
  116MOL     C130131   2.449   0.261   0.344  0.4294  0.2277 -0.2136
  116MOL     C230132   2.592   0.267   0.402 -0.1671  0.8527 -0.4505
  116MOL     O330133   2.612   0.165   0.504 -0.1087  0.4980  0.4532
  116MOL     C430134   2.647   0.040   0.447  0.0658  0.0128  0.0310
  116MOL     C530135   2.675   7.791   0.563 -0.5229 -0.6365  0.1143
  116MOL     H630136   2.430   0.179   0.274  0.1927  0.3443 -0.2830
  116MOL     H730137   2.377   0.249   0.425  0.5197  2.4275  0.2010
  116MOL     H830138   2.664   0.256   0.321 -0.2887  0.0361 -0.4532
  116MOL     H930139   2.732   0.040   0.378 -0.8633  0.0950 -1.1312
  116MOL    H1030140   2.563   0.007   0.386 -0.0518  0.4136 -0.0300
  116MOL    H1130141   2.781   7.785   0.585  0.0572 -0.7803 -2.5082
  116MOL    H1230142   2.615   7.818   0.650  0.6994  0.0120  0.7683
  116MOL    H1330143   2.658   7.685   0.545 -0.9338 -0.7622  1.2448
  116MOL    H1430144   2.421   0.356   0.299  1.3576  1.3077  1.4576
  116MOL    C1530145   2.633   0.398   0.471  0.2548 -0.1707  0.0828
  116MOL    C1630146   2.632   0.526   0.387  0.0373 -0.0160  0.2582
  116MOL    O1730147   2.747   0.536   0.300  0.4406  0.1242  0.2762
  116MOL    C1830148   2.720   0.508   0.162  0.1299  1.0437 -0.3620
  116MOL    C1930149   2.837   0.554   0.082  0.6101  0.7888 -0.9909
  116MOL    H2030150   2.736   0.390   0.506  0.6266  1.5855 -0.5498
  116MOL    H2130151   2.574   0.415   0.561  0.6889 -1.7570  0.6751
  116MOL    H2230152   2.540   0.538   0.329  0.6922  1.1251 -0.5675
  116MOL    H2330153   2.624   0.550   0.132 -0.9817 -1.3110 -0.1775
  116MOL    H2430154   2.716   0.400   0.158  1.7190  0.9692 -0.1972
  116MOL    H2530155   2.832   0.662   0.094  3.1466  0.6681  2.0616
  116MOL    H2630156   2.828   0.530   7.820 -1.7798 -0.0195 -0.6358
  116MOL    H2730157   2.930   0.518   0.126 -0.7194  1.7519  2.8791
  116MOL    C2830158   2.639   0.643   0.477  0.5853  0.4068  0.2515
  116MOL    C2930159   2.590   0.776   0.427 -0.0030  0.2507  0.4271
  116MOL    O3030160   2.640   0.874   0.512  0.9605  0.2097 -0.1187
  116MOL    C3130161   2.749   0.946   0.459 -0.2287 -0.0810 -0.1497
  116MOL    C3230162   2.806   1.033   0.570  0.1249  0.0340  0.4485
  116MOL    H3330163   2.743   0.655   0.507  0.0487 -1.3995  3.1010
  116MOL    H3430164   2.588   0.613   0.569 -5.2884  2.9183 -1.9345
  116MOL    H3530165   2.627   0.790   0.325 -1.6041  0.7548 -0.1043
  116MOL    H3630166   2.721   1.003   0.370 -2.3088  1.1761  1.2702
  116MOL    H3730167   2.824   0.873   0.429  1.6847  0.9567  1.9395
  116MOL    H3830168   2.898   1.083   0.540 -0.3714 -0.1899 -1.4854
  116MOL    H3930169   2.731   1.107   0.599 -1.5803 -1.5474  0.1483
  116MOL    H4030170   2.839   0.975   0.656  0.2857  1.9521  1.6972
  116MOL    C4130171   2.438   0.774   0.426 -0.5054  0.1501 -0.6589
  116MOL    C4230172   2.371   0.900   0.395 -0.2809 -0.3187 -0.1752
  116MOL    O4330173   2.234   0.888   0.435  0.4837 -0.2912  0.0261
  116MOL    C4430174   2.187   0.948   0.553 -0.7758 -0.1837  0.4906
  116MOL    C4530175   2.142   1.092   0.521 -0.5967 -0.1769  0.6037
  116MOL    H4630176   2.419   0.745   0.530  0.7318 -2.8256 -1.2089
  116MOL    H4730177   2.406   0.695   0.358 -1.8183  1.7992 -2.0035
  116MOL    H4830178   2.412   0.986   0.449 -0.3932 -0.9250  0.8819
  116MOL    H4930179   2.265   0.940   0.628 -0.3536 -0.4614  0.0282
  116MOL    H5030180   2.099   0.894   0.588  0.6864  0.5384  5.5912
  116MOL    H5130181   2.212   1.144   0.456 -0.0429 -0.3541  1.0652
  116MOL    H5230182   2.046   1.075   0.472 -1.3534  0.7901  1.7061
  116MOL    H5330183   2.113   1.148   0.611 -1.4642 -1.1474  0.9335
  116MOL    C5430184   2.378   0.942   0.247  0.4319 -0.3774 -0.0038
  116MOL    C5530185   2.334   0.844   0.128  0.4958  0.1955 -0.2053
  116MOL    O5630186   2.410   0.866   0.015  0.1542 -0.0464  0.3379
  116MOL    C5730187   2.517   0.773   7.828 -0.4802 -1.1124  0.4250
  116MOL    C5830188   2.570   0.816   7.697  0.2267  1.1511 -0.1879
  116MOL    H5930189   2.478   0.976   0.219 -0.7800  2.8670 -0.6363
  116MOL    H6030190   2.314   1.030   0.244  0.6760 -0.2488 -2.3293
  116MOL    H6130191   2.350   0.739   0.156  0.3472 -0.0558 -1.0577
  116MOL    H6230192   2.480   0.671   7.837 -1.5538 -0.7672  0.0321
  116MOL    H6330193   2.603   0.791   0.049 -0.3151 -0.4426  0.0235
  116MOL    H6430194   2.643   0.745   7.657  1.1198  1.3250  1.0804
  116MOL    H6530195   2.491   0.810   7.623  0.0385 -1.9441  0.1960
  116MOL    H6630196   2.608   0.919   7.699 -1.8962  1.9539  0.3189
  116MOL    C6730197   2.184   0.849   0.095 -0.3892  0.6242 -0.3542
  116MOL    C6830198   2.135   0.750   7.830  0.3668  0.2455 -0.1605
  116MOL    O6930199   2.019   0.819   7.782 -0.1278 -0.3057 -0.3107
  116MOL    C7030200   2.047   0.885   7.659  0.7239  0.6271  0.4232
  116MOL    C7130201   1.944   0.992   7.630  0.3679 -0.1986 -0.6495
  116MOL    H7230202   2.143   0.949   0.081 -0.6309  0.4846 -0.6527
  116MOL    H7330203   2.137   0.815   0.187  2.4997 -0.8017  0.6502
  116MOL    H7430204   2.203   0.737   7.746  1.6768 -1.4653  1.1435
  116MOL    H7530205   2.039   0.811   7.579  1.9398 -0.3301  1.1696
  116MOL    H7630206   2.147   0.927   7.661  2.4394 -3.1026 -1.4661
  116MOL    H7730207   1.842   0.953   7.638  0.8003 -1.1428  0.3017
  116MOL    H7830208   1.955   1.082   7.690  0.8355  0.1872 -1.2955
  116MOL    H7930209   1.958   1.029   7.528 -0.6473  2.0010 -0.0304
  116MOL    C8030210   2.087   0.608   0.041  0.6110 -0.2049 -0.0997
  116MOL    C8130211   2.197   0.516   0.109  0.4917  0.3858 -0.3833
  116MOL    O8230212   2.313   0.498   0.026 -0.3588 -0.1700 -0.4746
  116MOL    C8330213   2.307   0.401   7.768  0.0649 -0.6859  0.3010
  116MOL    C8430214   2.433   0.402   7.682 -0.2534 -0.0325  0.1110
  116MOL    H8530215   2.046   0.558   7.797 -0.1340 -1.0787  0.7447
  116MOL    H8630216   2.006   0.629   0.111 -1.8101  1.6584 -3.2825
  116MOL    H8730217   2.229   0.563   0.202  2.3302 -0.4470 -0.5640
  116MOL    H8830218   2.219   0.420   7.706  1.8123  0.6559 -1.8667
  116MOL    H8930219   2.317   0.308   7.822  1.4179 -0.6188  0.1977
  116MOL    H9030220   2.440   0.486   7.612  0.6945  0.8630  1.2574
  116MOL    H9130221   2.523   0.394   7.742 -0.4339 -0.5474  0.3172
  116MOL    H9230222   2.435   0.319   7.611 -1.1966  0.0427 -0.0156
  116MOL    C9330223   2.152   0.374   0.161 -0.0737  0.1460  0.6305
  116MOL    C9430224   2.070   0.370   0.296  0.2916  0.2239  0.1456
  116MOL    O9530225   2.157   0.421   0.403  0.5108  0.0897 -0.2514
  116MOL    C9630226   2.137   0.549   0.457 -0.6353 -0.4377 -0.0915
  116MOL    C9730227   2.214   0.553   0.592 -0.4563 -0.4529  0.1448
  116MOL    H9830228   2.240   0.311   0.170 -0.1050  0.0362  0.1736
  116MOL    H9930229   2.082   0.330   0.090  0.6936  0.5865 -0.4104
  116MOL   H10030230   1.995   0.445   0.272  0.1899 -0.7820 -2.9384
  116MOL   H10130231   2.030   0.548   0.477 -0.3280  1.0530  1.7852
  116MOL   H10230232   2.162   0.635   0.394 -1.7532  0.3900  0.5834
  116MOL   H10330233   2.169   0.486   0.666  1.8754 -0.2373  1.8100
  116MOL   H10430234   2.317   0.519   0.584 -0.4708 -0.7836  1.2960
  116MOL   H10530235   2.223   0.652   0.636  2.2958 -0.0344 -1.2460
  116MOL   C10630236   2.014   0.232   0.323  0.3255 -0.0622  0.5379
  116MOL   C10730237   1.914   0.232   0.441  0.3942  0.3855  0.4691
  116MOL   O10830238   1.880   0.108   0.494 -0.6409  0.8108  0.3342
  116MOL   C10930239   1.806   0.009   0.424  0.0572 -0.6653  0.2345
  116MOL   C11030240   1.793   7.734   0.514 -0.4999  0.5457 -0.1975
  116MOL   H11130241   2.094   0.162   0.345 -0.7375 -1.9950 -1.5776
  116MOL   H11230242   1.953   0.198   0.240  1.1837  1.1293 -0.6030
  116MOL   H11330243   1.972   0.292   0.511 -1.1982  0.8556  1.4193
  116MOL   H11430244   1.871   7.820   0.343  0.0482  2.9004 -1.2936
  116MOL   H11530245   1.709   0.035   0.383  0.8261  1.1620 -0.4469
  116MOL   H11630246   1.739   7.775   0.599 -0.4572 -0.7285  0.4650
  116MOL   H11730247   1.739   7.654   0.462  0.6379 -0.3202 -0.0706
  116MOL   H11830248   1.888   7.693   0.550 -0.2469 -0.6156 -2.1265
  116MOL   C11930249   1.782   0.314   0.428 -0.3849  0.0519 -0.0962
  116MOL   C12030250   1.712   0.363   0.561  0.3845  0.0363  0.1434
  116MOL   O12130251   1.644   0.484   0.527 -0.0697  0.0619 -0.2263
  116MOL   C12230252   1.508   0.465   0.486  0.7042  0.0467 -0.0720
  116MOL   C12330253   1.460   0.598   0.452 -0.3892 -0.1100 -0.6931
  116MOL   H12430254   1.709   0.265   0.364 -1.8128  0.3328  1.3101
  116MOL   H12530255   1.798   0.409   0.376 -0.2121  1.0604  1.7507
  116MOL   H12630256   1.646   0.286   0.602  0.2366  0.6389  1.0642
  116MOL   H12730257   1.454   0.432   0.574  0.2746  0.6839 -0.0902
  116MOL   H12830258   1.488   0.396   0.404 -1.1372 -0.3581  0.6838
  116MOL   H12930259   1.515   0.636   0.367  2.0673 -1.9431  0.0278
  116MOL   H13030260   1.353   0.599   0.433 -0.4659  2.4514 -0.2585
  116MOL   H13130261   1.474   0.667   0.535 -2.9478  0.8691 -1.0421
  116MOL   C13230262   1.808   0.401   0.673  0.3784 -0.2220  0.5293
  116MOL   C13330263   1.733   0.455   0.793  0.1722 -0.5085  0.0525
  116MOL   O13430264   1.829   0.526   0.874  0.4540 -0.2406 -0.2648
  116MOL   C13530265   1.838   0.661   0.837  0.4511  0.1326 -0.0647
  116MOL   C13630266   1.955   0.727   0.907  0.3432 -0.3132  1.1460
  116MOL   H13730267   1.892   0.463   0.643 -0.9730  2.0598  1.2895
  116MOL   H13830268   1.855   0.309   0.706  0.5286 -0.0139  0.8925
  116MOL   H13930269   1.654   0.526   0.767 -0.1047 -0.9575 -0.3289
  116MOL   H14030270   1.748   0.719   0.855  0.8798  0.3387  1.4446
  116MOL   H14130271   1.856   0.678   0.730  0.5417  1.4831  0.1624
  116MOL   H14230272   2.047   0.669   0.909  1.5510  1.5105 -0.0267
  116MOL   H14330273   1.999   0.813   0.857 -0.8544 -1.2078 -1.5081
  116MOL   H14430274   1.943   0.750   1.013 -0.4765 -0.6639  1.1360
  116MOL   C14530275   1.676   0.349   0.892 -0.2301  1.0480  0.1560
  116MOL   C14630276   1.537   0.293   0.860 -0.5802  0.5184 -0.1611
  116MOL   O14730277   1.438   0.396   0.839 -0.2078  0.4176  0.1783
  116MOL   C14830278   1.412   0.492   0.940  0.0870 -0.7074  0.2038
  116MOL   C14930279   1.326   0.597   0.877 -0.2523 -0.5569 -0.3888
  116MOL   H15030280   1.671   0.397   0.989  1.3790 -1.2780  1.4398
  116MOL   H15130281   1.752   0.276   0.919  0.0866  1.1814 -0.3681
  116MOL   H15230282   1.551   0.239   0.767  1.8676  1.8765 -0.6367
  116MOL   H15330283   1.493   0.549   0.984 -0.6925 -0.9640  2.0082
  116MOL   H15430284   1.348   0.448   1.016  2.0381 -2.1042  1.0740
  116MOL   H15530285   1.288   0.671   0.948 -0.4209 -2.4100  1.4935
  116MOL   H15630286   1.391   0.655   0.811 -0.7646  0.0833 -0.3336
  116MOL   H15730287   1.250   0.556   0.810  0.5522 -1.3506 -0.8240
  116MOL   C15830288   1.474   0.192   0.958  0.0259  0.3354 -0.3690
  116MOL   C15930289   1.370   0.100   0.880 -0.5451  0.1907  0.1050
  116MOL   O16030290   1.243   0.095   0.949  0.5225  0.1969  0.1757
  116MOL   C16130291   1.162   0.209   0.938  0.2093 -0.2245 -0.1651
  116MOL   C16230292   1.066   0.217   1.054 -0.4717  0.2819  0.4298
  116MOL   H16330293   1.433   0.237   1.048 -1.1704 -1.3320 -0.0673
  116MOL   H16430294   1.544   0.122   1.003 -0.7785 -0.4258 -0.3059
  116MOL   H16530295   1.354   0.131   0.777 -4.5318 -5.1090 -1.0603
  116MOL   H16630296   1.103   0.205   0.846 -2.0070  0.4980  1.1842
  116MOL   H16730297   1.220   0.301   0.945 -0.0646  0.0912 -1.8580
  116MOL   H16830298   1.020   0.314   1.072  1.0365  0.8818  1.0746
  116MOL   H16930299   0.984   0.147   1.035 -0.1764  0.0344  0.0335
  116MOL   H17030300   1.117   0.195   1.148 -1.0820  1.2294  0.9913
  116MOL   C17130301   1.421   7.804   0.855  0.3196 -0.1433 -0.0837
  116MOL   C17230302   1.314   7.700   0.816  0.1303 -0.5535 -0.8436
  116MOL   O17330303   1.390   7.580   0.828  0.0483  0.4759  0.2679
  116MOL   C17430304   1.372   7.507   0.948 -0.2711 -0.7453  1.0396
  116MOL   C17530305   1.500   7.430   0.981  0.3108 -0.0422 -0.2059
  116MOL   H17630306   1.453   7.764   0.951  0.4509 -1.6226 -0.7326
  116MOL   H17730307   1.512   7.814   0.796 -0.0661 -1.1885 -0.8491
  116MOL   H17830308   1.230   7.709   0.884  1.7410  1.2728  0.9786
  116MOL   H17930309   1.292   7.436   0.927 -0.5457 -0.5888  1.5232
  116MOL   H18030310   1.333   7.569   1.029 -2.6697 -2.0656  0.9218
  116MOL   H18130311   1.515   7.397   1.084  2.4239 -1.7166 -1.0128
  116MOL   H18230312   1.502   7.344   0.914 -1.8184 -0.3155  0.0383
  116MOL   H18330313   1.586   7.496   0.971 -1.3595  1.9356 -1.9184
  116MOL   C18430314   1.273   7.707   0.672 -0.4540  0.0130 -0.3909
  116MOL   C18530315   1.188   7.587   0.627 -1.4283  0.2888  0.3312
  116MOL   O18630316   1.204   7.580   0.489  0.3911  0.6416 -0.1725
  116MOL   C18730317   1.206   7.456   0.427  0.2323  0.3206  1.0824
  116MOL   C18830318   1.160   7.468   0.284 -0.4797  0.5161  0.4960
  116MOL   H18930319   1.363   7.703   0.611 -0.8727 -1.5710 -0.9557
  116MOL   H19030320   1.213   7.795   0.648  0.6210  0.8780  0.0815
  116MOL   H19130321   1.221   7.497   0.678  1.7430  2.2114  1.8041
  116MOL   H19230322   1.145   7.391   0.490 -1.4100 -0.7981 -1.5741
  116MOL   H19330323   1.307   7.416   0.430 -0.5969 -1.7693  3.0350
  116MOL   H19430324   1.130   7.375   0.236 -1.7083  1.0516  0.2086
  116MOL   H19530325   1.068   7.526   0.284 -0.5788  0.3592 -0.6574
  116MOL   H19630326   1.236   7.525   0.230 -0.3295 -0.4873 -0.3718
  116MOL   C19730327   1.043   7.615   0.653  0.2053 -0.3287 -0.1029
  116MOL   C19830328   0.990   7.592   0.787 -0.4232 -0.4573 -0.3539
  116MOL   O19930329   0.916   7.470   0.792  0.2988 -0.5885  0.1625
  116MOL   C20030330   0.991   7.346   0.799 -0.3318  0.4821 -0.6898
  116MOL   C20130331   0.913   7.227   0.865 -0.3202  0.0557 -0.1386
  116MOL   H20230332   0.986   7.545   0.592 -0.0710  0.8342 -1.2053
  116MOL   H20330333   1.008   7.711   0.615  0.2359  0.1477  1.0572
  116MOL   H20430334   1.073   7.585   0.858  1.9504 -0.5718 -3.0653
  116MOL   H20530335   1.082   7.353   0.858 -0.3422  1.2086 -0.7540
  116MOL   H20630336   1.009   7.306   0.700  0.1453 -2.4343  0.5066
  116MOL   H20730337   0.829   7.199   0.802 -1.4626 -0.6287  1.6377
  116MOL   H20830338   0.985   7.145   0.868 -1.8700 -1.3649 -1.1243
  116MOL   H20930339   0.878   7.250   0.966  0.0520  1.3988 -0.3162
  116MOL   C21030340   0.915   7.704   0.843  0.2234  0.1128 -0.3926
  116MOL   C21130341   0.865   7.671   0.987  0.7515 -0.3750  0.3932
  116MOL   O21230342   0.750   7.754   1.016  0.9200  0.2088 -0.0145
  116MOL   C21330343   0.628   7.683   1.022 -0.4001  0.3938 -0.1055
  116MOL   C21430344   0.514   7.774   1.068 -0.1724  0.2104 -0.2993
  116MOL   H21530345   0.835   7.724   0.771  0.1372  1.4567  0.0674
  116MOL   H21630346   0.982   7.790   0.848 -1.9128  1.7448  1.2259
  116MOL   H21730347   0.845   7.564   0.998  2.5894 -0.6279  1.6880
  116MOL   H21830348   0.638   7.602   1.095  0.6542 -0.9726 -1.7374
  116MOL   H21930349   0.608   7.643   0.923  1.0498 -0.9280  0.1035
  116MOL   H22030350   0.419   7.720   1.069  0.2277 -0.4924  0.6591
  116MOL   H22130351   0.532   7.781   1.175  2.3527 -1.5490 -0.5669
  116MOL   H22230352   0.518   0.029   1.023 -0.0596  0.8814  1.1446
  116MOL   C22330353   0.960   7.697   1.109 -0.6561  0.0257  0.7691
  116MOL   C22430354   0.931   7.614   1.234  0.3058  0.0153 -0.0280
  116MOL   O22530355   1.000   7.665   1.346  0.2462  0.0028 -0.5280
  116MOL   C22630356   0.925   7.767   1.413 -0.2151  0.7091  0.1766
  116MOL   C22730357   1.012   0.003   1.506 -0.3440 -0.2373 -0.4384
  116MOL   H22830358   0.964   7.803   1.137  1.3304  0.5103 -1.2341
  116MOL   H22930359   1.065   7.690   1.081 -0.2605 -0.7363  2.3907
  116MOL   H23030360   0.823   7.612   1.248  0.7153 -1.5831  3.6208
  116MOL   H23130361   0.847   7.714   1.468 -1.2733  3.3008  1.2510
  116MOL   H23230362   0.873   7.831   1.342  1.0537  1.9030  0.3040
  116MOL   H23330363   1.044   7.789   1.593  1.9035  1.5317 -0.0617
  116MOL   H23430364   1.106   0.009   1.451  0.8188  0.5671  1.6078
  116MOL   H23530365   0.964   0.096   1.537 -3.3757 -2.1103  0.7586
  116MOL   C23630366   0.990   7.477   1.212 -0.1595 -0.0027 -0.3156
  116MOL   C23730367   0.922   7.376   1.305 -0.2138 -0.6234 -0.6584
  116MOL   O23830368   1.010   7.262   1.331  0.0020 -0.4183 -0.4552
  116MOL   C23930369   1.096   7.271   1.437  0.5015 -0.0579  0.1150
  116MOL   C24030370   1.185   7.147   1.441 -0.0231  0.4765 -0.3831
  116MOL   H24130371   1.095   7.469   1.240 -0.5549 -0.8125  0.9872
  116MOL   H24230372   0.987   7.437   1.111  1.1660 -0.6277 -0.1229
  116MOL   H24330373   0.898   7.435   1.393  0.0092  3.4650 -3.2093
  116MOL   H24430374   1.046   7.265   1.534 -1.6591  0.0111 -0.9693
  116MOL   H24530375   1.157   7.360   1.424  0.7479  0.0718  1.9210
  116MOL   H24630376   1.263   7.167   1.514  1.0960  1.5483 -1.8485
  116MOL   H24730377   1.130   7.057   1.469 -1.5876  1.1519 -1.1879
  116MOL   H24830378   1.238   7.126   1.349  1.6043  1.5101  0.2902
  116MOL   C24930379   0.792   7.317   1.245 -0.3066  0.4031 -0.1403
  116MOL   C25030380   0.700   7.246   1.347  0.0873  0.1351 -0.1366
  116MOL   O25130381   0.656   7.345   1.429  0.2220  0.3609 -0.1548
  116MOL   C25230382   0.561   7.303   1.525  0.9390  0.2457  0.0604
  116MOL   C25330383   0.516   7.432   1.596 -0.1263  0.4780  0.3211
  116MOL   H25430384   0.830   7.242   1.175 -1.2970  0.0855 -0.3548
  116MOL   H25530385   0.744   7.394   1.185 -0.6521 -1.7971 -2.8410
  116MOL   H25630386   0.621   7.194   1.293 -1.7344 -0.0731  2.6316
  116MOL   H25730387   0.599   7.247   1.610  0.4026  0.3878  0.3963
  116MOL   H25830388   0.477   7.250   1.480  0.8842  0.1317  0.2976
  116MOL   H25930389   0.606   7.476   1.638  1.0899 -0.9488 -0.7410
  116MOL   H26030390   0.467   7.498   1.524 -0.3886 -0.7590 -0.6535
  116MOL   H26130391   0.446   7.404   1.674  1.0341  1.7136  1.8369
  116MOL   H26230392   0.759   7.175   1.405  2.4074  2.1422  0.0394
  117MOL     C130393   7.517   4.022   5.316 -0.3407  0.1929 -0.2939
  117MOL     C230394   7.408   4.028   5.417  0.3532 -0.1426  0.8562
  117MOL     O330395   7.287   4.089   5.374  0.2561 -0.4596 -0.2750
  117MOL     C430396   7.228   3.988   5.289 -0.1769  0.5593  1.0101
  117MOL     C530397   7.087   4.027   5.265 -0.0645  0.0650 -0.1052
  117MOL     H630398   7.595   3.953   5.348 -1.5182 -1.5954 -1.1952
  117MOL     H730399   7.489   3.971   5.224  1.4870 -2.0732  0.3560
  117MOL     H830400   7.388   3.928   5.454  0.7477 -0.1165  1.1455
  117MOL     H930401   7.237   3.887   5.328  0.5261  0.0081 -0.5528
  117MOL    H1030402   7.278   3.985   5.192 -3.0136  1.4381 -0.5209
  117MOL    H1130403   7.029   3.956   5.207 -0.7149 -0.1924  0.8427
  117MOL    H1230404   7.034   4.049   5.358  0.5761  1.7228 -0.1233
  117MOL    H1330405   7.081   4.107   5.192 -0.8566  0.2601  0.1709
  117MOL    H1430406   7.560   4.118   5.287  1.3422 -0.8697 -1.4284
  117MOL    C1530407   7.464   4.103   5.542 -0.0506 -0.0964 -0.6831
  117MOL    C1630408   7.557   4.024   5.633 -0.7576 -0.8004  0.0489
  117MOL    O1730409   7.482   3.903   5.674 -0.3602  0.1900  0.1474
  117MOL    C1830410   7.546   3.782   5.643  0.2646  0.5464 -0.3075
  117MOL    C1930411   7.659   3.744   5.747  0.4141  0.3589  0.1496
  117MOL    H2030412   7.375   4.136   5.597 -1.8236 -2.9811 -1.7049
  117MOL    H2130413   7.529   4.185   5.512 -2.8546  1.7796 -1.7840
  117MOL    H2230414   7.653   4.009   5.585 -1.2648  0.0393 -1.2467
  117MOL    H2330415   7.582   3.779   5.540 -0.6578  0.6219 -0.6357
  117MOL    H2430416   7.469   3.704   5.641  1.0214 -0.2479  1.1335
  117MOL    H2530417   7.622   3.726   5.848  1.1259 -1.5617  0.0714
  117MOL    H2630418   7.745   3.811   5.744  1.1550 -0.5387  0.9906
  117MOL    H2730419   7.707   3.651   5.717 -1.9895 -1.0291  0.4348
  117MOL    C2830420   7.573   4.121   5.756  0.2823  0.0244 -0.5962
  117MOL    C2930421   7.686   4.084   5.860 -0.0258  0.1723  0.4328
  117MOL    O3030422   7.653   4.142   5.982  0.1060 -0.2522 -0.7911
  117MOL    C3130423   7.604   4.060   6.084 -0.0563  1.1293  0.1914
  117MOL    C3230424   7.554   4.139   6.208 -0.4865 -0.6445  0.4277
  117MOL    H3330425   7.484   4.127   5.819  1.0117 -0.2821  0.4870
  117MOL    H3430426   7.584   4.223   5.719  2.0661  0.0292 -0.1182
  117MOL    H3530427   7.700   3.977   5.868 -1.3598  0.0144  0.7372
  117MOL    H3630428   7.683   3.987   6.105 -2.1468 -1.2175  0.1930
  117MOL    H3730429   7.523   3.994   6.051  1.2466 -0.9610  1.0573
  117MOL    H3830430   7.625   4.215   6.243 -0.5942 -0.0952 -0.5269
  117MOL    H3930431   7.468   4.194   6.169 -0.9463 -2.3086 -0.9492
  117MOL    H4030432   7.523   4.082   6.295 -1.0726  1.7118  1.8009
  117MOL    C4130433   7.827   4.140   5.816 -0.0981 -0.0057  0.1296
  117MOL    C4230434   0.102   4.098   5.911  0.3266  0.4158 -0.7797
  117MOL    O4330435   0.215   4.159   5.857  0.4445  0.2430  0.1426
  117MOL    C4430436   0.215   4.300   5.873  0.1612 -0.2883  1.2548
  117MOL    C4530437   0.351   4.356   5.843 -0.4015  0.0561 -0.8037
  117MOL    H4630438   7.818   4.246   5.792 -3.2408 -0.5790 -1.4552
  117MOL    H4730439   0.017   4.106   5.718  3.0198 -1.8085  1.7409
  117MOL    H4830440   0.092   4.140   6.012 -0.5873  1.3902 -1.2591
  117MOL    H4930441   0.175   4.338   5.968 -0.2064  0.8549  0.6570
  117MOL    H5030442   0.151   4.339   5.794 -0.5878 -1.4896  1.2725
  117MOL    H5130443   0.398   4.336   5.940  0.6864  0.8241 -1.1631
  117MOL    H5230444   0.405   4.309   5.761  2.0768 -1.0917  1.4047
  117MOL    H5330445   0.343   4.465   5.835 -3.7738 -0.0606  0.0342
  117MOL    C5430446   0.130   3.943   5.922  0.7855 -0.9253  0.9105
  117MOL    C5530447   0.264   3.908   5.997  0.2703  0.3756 -0.3154
  117MOL    O5630448   0.280   3.772   6.005  0.0954  0.4721 -0.2483
  117MOL    C5730449   0.383   3.715   5.928 -0.0037  0.9964  0.1057
  117MOL    C5830450   0.377   3.563   5.946  0.0421 -0.6557 -0.3025
  117MOL    H5930451   0.147   3.925   5.816 -1.2937 -1.0612  0.5641
  117MOL    H6030452   0.048   3.882   5.961 -1.8935  0.4979 -2.1982
  117MOL    H6130453   0.341   3.954   5.935  0.2450 -0.3036 -0.8596
  117MOL    H6230454   0.476   3.765   5.954 -0.2737  2.1062 -0.9903
  117MOL    H6330455   0.386   3.735   5.821 -0.6939 -1.6263 -0.4409
  117MOL    H6430456   0.461   3.524   5.889 -0.0923 -1.2323 -0.1138
  117MOL    H6530457   0.382   3.535   6.051 -1.3381 -1.8380 -0.5377
  117MOL    H6630458   0.281   3.524   5.913  0.5100 -2.0786 -0.0257
  117MOL    C6730459   0.277   3.968   6.138  0.2377 -0.2229  0.2651
  117MOL    C6830460   0.167   3.925   6.233 -0.4261 -0.2234 -0.1788
  117MOL    O6930461   0.186   4.002   6.349 -0.4309  0.2338 -0.2644
  117MOL    C7030462   0.113   4.121   6.341  0.8615  0.2785  0.7025
  117MOL    C7130463   0.114   4.183   6.483 -0.6789  0.2404  0.5375
  117MOL    H7230464   0.284   4.075   6.119 -2.4661 -0.2261 -1.0759
  117MOL    H7330465   0.374   3.939   6.177  0.4024  0.3635  0.2903
  117MOL    H7430466   0.070   3.932   6.183 -0.2912 -0.9791 -0.5594
  117MOL    H7530467   0.010   4.099   6.314  1.3090  0.3998 -1.1676
  117MOL    H7630468   0.160   4.191   6.273 -1.8567  1.8053  0.3273
  117MOL    H7730469   0.061   4.278   6.489  0.0417  0.7511 -0.9394
  117MOL    H7830470   0.059   4.118   6.552 -2.5191  0.5811 -0.5948
  117MOL    H7930471   0.218   4.193   6.514  0.1180 -1.5407 -1.4012
  117MOL    C8030472   0.169   3.780   6.296  0.4157  0.2509  0.5534
  117MOL    C8130473   0.054   3.750   6.388 -0.6194  0.6429 -0.0147
  117MOL    O8230474   0.056   3.613   6.440  0.0410  0.3112 -0.1111
  117MOL    C8330475   0.169   3.595   6.527 -0.6720 -0.0531 -0.5428
  117MOL    C8430476   0.107   3.521   6.647 -0.1005 -0.3865  0.5309
  117MOL    H8530477   0.259   3.769   6.357 -1.0514 -0.9043  2.5604
  117MOL    H8630478   0.166   3.715   6.208  0.7770  4.3001 -2.6289
  117MOL    H8730479   0.063   3.819   6.472  2.5794  0.1855  0.1008
  117MOL    H8830480   0.236   3.674   6.560 -3.0258  1.5227  0.6809
  117MOL    H8930481   0.240   3.532   6.475 -2.0371 -1.6247 -0.5483
  117MOL    H9030482   0.043   3.444   6.603  2.0586 -1.6145 -0.4976
  117MOL    H9130483   0.177   3.472   6.714  3.3256  0.9622 -1.9422
  117MOL    H9230484   0.041   3.580   6.712 -0.9551  0.7943 -1.3613
  117MOL    C9330485   7.768   3.775   6.313  0.5557  0.2265  0.4625
  117MOL    C9430486   7.640   3.731   6.386  0.3885  0.0095  0.4742
  117MOL    O9530487   7.529   3.762   6.300  0.0834 -0.0725 -0.6339
  117MOL    C9630488   7.514   3.671   6.195  0.1446 -0.2787 -0.2410
  117MOL    C9730489   7.383   3.710   6.139  0.2590 -0.4733 -0.0803
  117MOL    H9830490   7.766   3.725   6.216 -0.4042  0.2913  0.4405
  117MOL    H9930491   7.751   3.880   6.290 -0.7278 -0.2205 -0.7326
  117MOL   H10030492   7.645   3.624   6.410  2.1878  0.2268  1.1634
  117MOL   H10130493   7.528   3.567   6.224  2.6623 -0.1059 -0.7562
  117MOL   H10230494   7.585   3.694   6.116 -2.9373  2.0943 -2.4902
  117MOL   H10330495   7.367   3.659   6.044  1.2697  1.1623 -1.1332
  117MOL   H10430496   7.304   3.660   6.196 -1.3723  1.8237 -0.2501
  117MOL   H10530497   7.351   3.812   6.119  0.5020 -0.2058  0.8547
  117MOL   C10630498   7.611   3.815   6.515  0.3647  0.4895 -0.1549
  117MOL   C10730499   7.489   3.770   6.604 -0.6081 -0.1321  0.4657
  117MOL   O10830500   7.506   3.852   6.720 -0.2631 -0.1219 -0.7937
  117MOL   C10930501   7.385   3.897   6.777 -0.5308  0.2924  0.9654
  117MOL   C11030502   7.418   3.983   6.904 -0.0032 -0.7989 -0.3539
  117MOL   H11130503   7.600   3.920   6.487  2.1139  0.2876 -1.6723
  117MOL   H11230504   7.697   3.803   6.580 -1.2651 -2.3354  1.5848
  117MOL   H11330505   7.400   3.796   6.547 -0.1057  2.1118  0.6654
  117MOL   H11430506   7.323   3.811   6.803 -1.5681  0.6481 -0.2749
  117MOL   H11530507   7.325   3.955   6.707 -2.3609 -1.5213  0.9603
  117MOL   H11630508   7.461   4.077   6.870 -0.7483  0.2691  1.5579
  117MOL   H11730509   7.323   4.019   6.945 -1.2035 -1.3290 -2.5653
  117MOL   H11830510   7.482   3.926   6.972 -1.4204 -1.5245  0.3940
  117MOL   C11930511   7.483   3.622   6.649 -0.1765 -0.0802  0.5509
  117MOL   C12030512   7.395   3.531   6.561  0.0104  0.0718 -0.6187
  117MOL   O12130513   7.255   3.561   6.564 -0.0994 -0.4249 -0.1368
  117MOL   C12230514   7.178   3.557   6.441  0.5085  0.1052 -0.0340
  117MOL   C12330515   7.032   3.555   6.487 -0.6887  0.9877  0.3494
  117MOL   H12430516   7.433   3.630   6.745 -3.5999 -1.4656 -1.0173
  117MOL   H12530517   7.588   3.597   6.664  0.0016  0.1703 -0.2545
  117MOL   H12630518   7.431   3.528   6.458  1.4629  0.6865 -0.1372
  117MOL   H12730519   7.186   3.471   6.375  0.8697 -0.1648  0.3520
  117MOL   H12830520   7.211   3.649   6.393  2.6575  0.6384  2.3663
  117MOL   H12930521   6.964   3.559   6.403  1.5734 -0.2639 -1.5941
  117MOL   H13030522   7.010   3.461   6.536  0.1972  0.8110  0.4258
  117MOL   H13130523   6.994   3.626   6.561  0.2730  0.3786  1.4430
  117MOL   C13230524   7.409   3.393   6.629 -0.2538 -0.1251 -0.4203
  117MOL   C13330525   7.545   3.316   6.605 -0.0014  0.3270 -0.0119
  117MOL   O13430526   7.532   3.259   6.476 -0.4836 -0.5345 -0.3418
  117MOL   C13530527   7.647   3.284   6.394  0.5656 -0.2799 -0.4049
  117MOL   C13630528   7.626   3.263   6.244  0.7432 -0.4073  0.0429
  117MOL   H13730529   7.331   3.327   6.590 -1.1994  0.5745  0.2748
  117MOL   H13830530   7.393   3.408   6.736  0.1835 -1.3967 -0.1667
  117MOL   H13930531   7.625   3.386   6.627  0.5709 -0.1455 -0.5749
  117MOL   H14030532   7.719   3.213   6.435 -0.1186 -0.4330  0.5387
  117MOL   H14130533   7.682   3.385   6.413 -4.3775  1.4194  0.2398
  117MOL   H14230534   7.711   3.302   6.188  0.0987  1.0728  0.0845
  117MOL   H14330535   7.622   3.156   6.222  0.2282 -0.6266  1.1838
  117MOL   H14430536   7.531   3.305   6.213  0.8344 -0.9217 -0.9560
  117MOL   C14530537   7.551   3.200   6.709  0.0377 -0.1897 -0.0325
  117MOL   C14630538   7.576   3.234   6.860  0.5231  0.0914  0.4005
  117MOL   O14730539   7.702   3.184   6.904 -0.1434  0.0423  0.5994
  117MOL   C14830540   7.811   3.272   6.867 -0.0078 -0.1162 -0.2243
  117MOL   C14930541   0.101   3.209   6.915 -0.3001 -0.1444  0.2242
  117MOL   H15030542   7.619   3.117   6.690  1.0949  0.4514  0.9408
  117MOL   H15130543   7.455   3.148   6.710  0.1006 -0.2892  0.8179
  117MOL   H15230544   7.571   3.342   6.873 -2.3764 -0.2106  2.2566
  117MOL   H15330545   7.799   3.372   6.909  0.7957  0.0006 -0.2599
  117MOL   H15430546   7.823   3.280   6.759 -0.3535  0.5188 -0.2206
  117MOL   H15530547   0.125   3.116   6.863 -2.0256  0.7551 -2.2917
  117MOL   H15630548   0.179   3.282   6.898 -0.9346 -0.0022 -2.3054
  117MOL   H15730549   0.092   3.187   7.021  0.6306  0.8312  0.5137
  117MOL   C15830550   7.464   3.182   6.951  0.0317 -0.0383  0.5250
  117MOL   C15930551   7.455   3.237   7.093 -0.0687  0.2661  0.1682
  117MOL   O16030552   7.564   3.181   7.164  0.1728 -0.3400  0.0441
  117MOL   C16130553   7.651   3.269   7.228 -0.3384 -0.1959 -0.2486
  117MOL   C16230554   7.754   3.185   7.304  0.7161 -0.3673 -0.1195
  117MOL   H16330555   7.472   3.074   6.965  0.2691 -0.0508  0.2992
  117MOL   H16430556   7.368   3.210   6.908 -0.1153 -0.1371  0.7901
  117MOL   H16530557   7.435   3.345   7.093 -3.8552 -0.3806  1.6454
  117MOL   H16630558   7.599   3.329   7.303  0.6660 -0.3673  0.5945
  117MOL   H16730559   7.710   3.338   7.167  0.3876 -0.5656  0.0288
  117MOL   H16830560   7.704   3.122   7.378 -1.2107  0.0432 -1.0341
  117MOL   H16930561   7.793   3.105   7.241 -0.6070 -1.4963  0.4572
  117MOL   H17030562   7.839   3.231   7.353 -0.7636 -0.3517  2.4907
  117MOL   C17130563   7.334   3.184   7.174 -0.3262  0.0946  0.4046
  117MOL   C17230564   7.307   3.238   7.317  0.4533  0.1733 -0.2186
  117MOL   O17330565   7.188   3.172   7.360 -0.3792 -0.1134  0.0184
  117MOL   C17430566   7.201   3.043   7.415  0.5049 -0.8152 -0.0324
  117MOL   C17530567   7.069   2.968   7.392  0.5408 -0.2530 -0.1879
  117MOL   H17630568   7.340   3.075   7.172 -1.8799 -0.0082  0.9531
  117MOL   H17730569   7.245   3.211   7.117 -0.4039 -0.0823  0.4418
  117MOL   H17830570   7.386   3.200   7.382 -0.7694 -0.5019  0.9004
  117MOL   H17930571   7.236   3.060   7.517 -1.0922 -0.4225  0.4687
  117MOL   H18030572   7.281   2.983   7.372  2.8847  0.3397  2.6307
  117MOL   H18130573   7.062   2.941   7.286  1.0680 -1.2122  0.0177
  117MOL   H18230574   7.084   2.884   7.460 -1.4104  0.0467  0.6634
  117MOL   H18330575   6.976   3.023   7.406  0.1852 -0.8479 -0.1893
  117MOL   C18430576   7.301   3.388   7.329 -0.2230 -0.2297  0.2926
  117MOL   C18530577   7.259   3.441   7.467  0.0204 -0.5584 -0.4787
  117MOL   O18630578   7.241   3.581   7.450 -0.2425 -0.2528  0.1636
  117MOL   C18730579   7.145   3.635   7.538 -0.3189 -0.7143 -0.5275
  117MOL   C18830580   7.015   3.659   7.457  0.4757 -0.3367 -0.5988
  117MOL   H18930581   7.216   3.416   7.267  0.3052 -0.9362 -0.7733
  117MOL   H19030582   7.387   3.445   7.292 -0.6028 -1.0966 -2.0279
  117MOL   H19130583   7.169   3.387   7.499 -0.7556  1.4469  0.8648
  117MOL   H19230584   7.173   3.733   7.576  1.2569 -1.5297  0.4815
  117MOL   H19330585   7.122   3.577   7.628 -0.0027 -0.6305 -0.3907
  117MOL   H19430586   6.951   3.571   7.467 -0.4258  0.5452  1.9834
  117MOL   H19530587   6.973   3.744   7.510  0.3144 -0.9594  0.2887
  117MOL   H19630588   7.032   3.690   7.354  0.0699  3.3784  0.3835
  117MOL   C19730589   7.367   3.421   7.577  0.3008  0.0160 -0.5048
  117MOL   C19830590   7.337   3.312   7.682 -0.3434  0.6122 -0.0394
  117MOL   O19930591   7.214   3.358   7.747 -0.2250 -0.0525 -0.2381
  117MOL   C20030592   7.147   3.256   7.817 -0.2587 -0.0352 -0.1433
  117MOL   C20130593   7.033   3.209   7.739  0.1103  0.0100  0.0426
  117MOL   H20230594   7.393   3.511   7.633  0.8377  0.4432 -1.4319
  117MOL   H20330595   7.461   3.407   7.524  0.1451 -0.2786 -0.7026
  117MOL   H20430596   7.315   3.223   7.623 -0.8199 -0.5662  1.8736
  117MOL   H20530597   7.111   3.297   0.068  0.6694  0.2060  0.1202
  117MOL   H20630598   7.211   3.176   0.010  0.5482  1.1217  1.0548
  117MOL   H20730599   7.002   3.114   7.783  1.8519 -0.7140 -0.2336
  117MOL   H20830600   6.938   3.256   7.764  0.5304  0.9954 -0.1917
  117MOL   H20930601   7.047   3.203   7.631  0.7863 -1.5926  0.2012
  117MOL   C21030602   7.459   3.288   7.776  0.5933 -0.2517 -0.1078
  117MOL   C21130603   7.568   3.196   7.719  0.2460  0.0890 -0.2655
  117MOL   O21230604   7.530   3.059   7.755  0.1159 -0.2798  0.6229
  117MOL   C21330605   7.561   2.948   7.669 -0.0237  0.4181 -0.0500
  117MOL   C21430606   7.532   2.828   7.759  0.7614 -0.0725 -0.2104
  117MOL   H21530607   7.421   3.246   0.026 -1.6015 -1.9598 -1.7343
  117MOL   H21630608   7.493   3.389   7.798 -0.6849  0.1182  0.2171
  117MOL   H21730609   7.570   3.214   7.611 -0.5086 -1.2475 -0.5178
  117MOL   H21830610   7.667   2.949   7.643  0.2810 -0.5636  1.1018
  117MOL   H21930611   7.495   2.947   7.582  0.2584 -2.0520 -0.2966
  117MOL   H22030612   7.427   2.821   7.788  1.2088 -1.3740  1.1586
  117MOL   H22130613   7.540   2.739   7.695  0.9921  0.6491 -1.1900
  117MOL   H22230614   7.593   2.832   0.006 -2.9093  0.0256  2.3606
  117MOL   C22330615   7.712   3.221   7.773 -0.2202  0.0650 -0.2093
  117MOL   C22430616   7.798   3.325   7.700  0.1742  0.3258  0.0978
  117MOL   O22530617   0.078   3.317   7.763 -0.6088  0.4388 -0.0184
  117MOL   C22630618   0.169   3.220   7.704 -0.1482 -0.1948 -0.2609
  117MOL   C22730619   0.238   3.278   7.573 -0.2523  0.5225 -0.0430
  117MOL   H22830620   7.760   3.126   7.754  0.0774  0.2150 -0.2035
  117MOL   H22930621   7.703   3.242   0.036  3.5726 -0.6897  0.3046
  117MOL   H23030622   7.811   3.293   7.597  1.1834 -0.0186  0.3301
  117MOL   H23130623   0.121   3.125   7.680  2.5980 -1.0387 -2.6660
  117MOL   H23230624   0.245   3.194   7.778  0.3062 -1.3975 -1.1495
  117MOL   H23330625   0.176   3.326   7.497 -1.1292 -1.4131 -0.5902
  117MOL   H23430626   0.317   3.351   7.589 -0.6592  0.6162  1.6359
  117MOL   H23530627   0.289   3.191   7.533  1.8238 -0.4202  4.3391
  117MOL   C23630628   7.764   3.472   7.700 -0.1338  0.0813 -0.1112
  117MOL   C23730629   0.019   3.559   7.609 -0.1249 -0.4535 -0.3738
  117MOL   O23830630   0.004   3.701   7.643 -0.1370  0.1603  0.2171
  117MOL   C23930631   0.085   3.747   7.751  0.3717 -0.5355  0.0953
  117MOL   C24030632   0.214   3.803   7.685 -0.0696  0.7246 -0.1445
  117MOL   H24130633   7.761   3.513   7.801  3.5415 -3.3192  1.5081
  117MOL   H24230634   7.661   3.484   7.668  0.0104  0.7416 -0.3321
  117MOL   H24330635   0.122   3.526   7.624  0.4170  1.2092 -0.4052
  117MOL   H24430636   0.100   3.674   7.831  1.4492 -0.0360  0.3479
  117MOL   H24530637   0.032   3.821   7.810  2.2958  0.0282  1.1336
  117MOL   H24630638   0.204   3.897   7.630 -1.0306  0.0698 -1.1254
  117MOL   H24730639   0.282   3.824   7.767  0.2860  0.1556 -0.2938
  117MOL   H24830640   0.264   3.728   7.624 -0.2787  0.7915 -0.4046
  117MOL   C24930641   7.831   3.537   7.460  0.2292  1.0712 -0.6660
  117MOL   C25030642   7.707   3.605   7.403 -0.5719  0.1023 -1.0821
  117MOL   O25130643   7.707   3.598   7.259 -0.2848 -0.2056  0.4210
  117MOL   C25230644   7.609   3.678   7.203  0.2521 -0.3097  0.4604
  117MOL   C25330645   7.620   3.655   7.051  0.7785 -0.0167  0.1946
  117MOL   H25430646   7.838   3.431   7.435 -1.3290  1.1281 -1.4356
  117MOL   H25530647   0.075   3.568   7.403 -0.4691  0.1157 -2.3172
  117MOL   H25630648   7.611   3.577   7.447  0.1336 -0.8324 -0.1025
  117MOL   H25730649   7.623   3.780   7.239 -1.0728 -0.6274  1.9206
  117MOL   H25830650   7.510   3.647   7.235 -1.2458  1.0210 -2.6500
  117MOL   H25930651   7.526   3.693   7.012 -0.0336 -1.1928  0.9645
  117MOL   H26030652   7.699   3.719   7.012 -0.1563  0.4290 -0.9910
  117MOL   H26130653   7.628   3.549   7.025  0.3088  0.0848 -0.3757
  117MOL   H26230654   7.724   3.710   7.428  0.1032 -0.6175  1.6368
  118MOL     C130655   0.655   4.673   0.765  0.8740 -0.3171 -0.2069
  118MOL     C230656   0.804   4.653   0.755  0.3714 -0.4035 -0.0810
  118MOL     O330657   0.844   4.635   0.618 -0.2071 -0.1762  0.2573
  118MOL     C430658   0.984   4.672   0.597 -0.5891 -0.5561 -0.3064
  118MOL     C530659   0.982   4.717   0.450  1.0714 -0.5811  0.0108
  118MOL     H630660   0.626   4.763   0.712  1.2489 -0.2801 -0.3472
  118MOL     H730661   0.608   4.583   0.724 -2.0855  0.7945  0.6162
  118MOL     H830662   0.857   4.731   0.810 -3.5054  1.9082  0.5478
  118MOL     H930663   1.051   4.588   0.613 -1.4414 -1.0735  0.6874
  118MOL    H1030664   1.028   4.753   0.655 -0.6129  0.5564 -1.8099
  118MOL    H1130665   1.083   4.743   0.418  1.1394 -2.9439 -1.8511
  118MOL    H1230666   0.961   4.639   0.377  0.5390 -0.9522  0.5568
  118MOL    H1330667   0.919   4.803   0.432  2.1721 -0.1927 -2.0810
  118MOL    H1430668   0.625   4.692   0.868  0.1774  0.2244 -0.5039
  118MOL    C1530669   0.844   4.524   0.831  0.7873 -0.7765 -0.6443
  118MOL    C1630670   0.866   4.547   0.984  0.0954 -0.0007  0.0829
  118MOL    O1730671   0.972   4.637   1.004 -0.1989  0.3801  0.2738
  118MOL    C1830672   0.972   4.691   1.141 -0.6711 -0.5231 -0.4474
  118MOL    C1930673   1.005   4.836   1.139  0.3208 -0.5053  0.0657
  118MOL    H2030674   0.943   4.489   0.800  0.9377 -1.7069  0.8236
  118MOL    H2130675   0.770   4.445   0.823  0.0774 -0.2649  0.7425
  118MOL    H2230676   0.771   4.586   1.019 -0.7732 -1.6346 -0.4157
  118MOL    H2330677   1.061   4.650   1.189  1.3804  0.0450 -3.6022
  118MOL    H2430678   0.884   4.682   1.205  1.1549 -0.3641  2.1481
  118MOL    H2530679   0.942   4.890   1.069 -1.0506  1.2636  2.5720
  118MOL    H2630680   1.107   4.860   1.109  0.7249 -1.0984  0.9485
  118MOL    H2730681   0.984   4.885   1.235  2.0475 -1.3107  0.8801
  118MOL    C2830682   0.895   4.418   1.063 -0.1050 -0.0918 -0.7480
  118MOL    C2930683   0.810   4.292   1.043  0.4027  0.0364 -0.1797
  118MOL    O3030684   0.821   4.246   0.911 -0.3178  0.0933 -0.3027
  118MOL    C3130685   0.918   4.149   0.886  0.1007 -0.1140 -0.0289
  118MOL    C3230686   0.898   4.116   0.744 -0.2760  0.5318  0.0832
  118MOL    H3330687   0.918   4.449   1.165  1.9474 -0.3921 -1.0911
  118MOL    H3430688   0.993   4.384   1.030  0.7742 -2.3175  3.6792
  118MOL    H3530689   0.855   4.208   1.096 -1.7043  0.4056  2.2791
  118MOL    H3630690   0.911   4.055   0.941 -0.2740 -0.0485  0.0378
  118MOL    H3730691   1.019   4.190   0.884  0.6048 -1.1688  2.1206
  118MOL    H3830692   0.794   4.088   0.729 -0.1757 -1.0111  2.0146
  118MOL    H3930693   0.921   4.211   0.697  0.5297  0.6515  0.6995
  118MOL    H4030694   0.956   4.029   0.712  1.4947  1.5668  0.3884
  118MOL    C4130695   0.663   4.312   1.074 -0.1255  0.4758 -0.1084
  118MOL    C4230696   0.576   4.182   1.069  0.9012 -0.2546  0.2811
  118MOL    O4330697   0.440   4.219   1.054  0.1539 -0.0695 -0.3621
  118MOL    C4430698   0.386   4.221   0.921  0.0388 -0.5936 -0.2658
  118MOL    C4530699   0.240   4.253   0.927 -0.4905  0.6960  0.4895
  118MOL    H4630700   0.629   4.382   0.997  0.4534 -0.8592 -1.5984
  118MOL    H4730701   0.642   4.368   1.166 -0.7965  2.2234 -1.3039
  118MOL    H4830702   0.612   4.126   0.983 -1.7300  0.2736 -1.2197
  118MOL    H4930703   0.396   4.121   0.879  1.4988 -0.5899  0.0459
  118MOL    H5030704   0.442   4.288   0.855 -0.1099 -1.8391 -1.6839
  118MOL    H5130705   0.211   4.356   0.946 -1.4958  0.5731 -0.3021
  118MOL    H5230706   0.190   4.213   0.839 -2.9486  0.6382  1.8555
  118MOL    H5330707   0.198   4.192   1.007 -0.7880  2.3371  1.6123
  118MOL    C5430708   0.585   4.097   1.200 -0.5303  0.1214  0.0739
  118MOL    C5530709   0.494   3.970   1.211 -0.0968  0.5807 -0.3910
  118MOL    O5630710   0.365   4.001   1.268  0.1546 -0.3166 -0.0102
  118MOL    C5730711   0.261   3.929   1.198  0.3816 -0.6745 -0.8755
  118MOL    C5830712   0.136   3.971   1.278  0.3417 -0.1102  0.0920
  118MOL    H5930713   0.564   4.157   1.288 -1.8784  0.1306 -0.2347
  118MOL    H6030714   0.685   4.057   1.219 -0.5423 -2.3768 -4.3850
  118MOL    H6130715   0.500   3.943   1.106 -0.1080 -1.2013  0.0493
  118MOL    H6230716   0.275   3.823   1.178 -0.4634 -0.4115 -3.0271
  118MOL    H6330717   0.235   3.989   1.111  0.4023  0.6451  0.0147
  118MOL    H6430718   0.158   4.017   1.374  0.6003 -2.2028  1.0819
  118MOL    H6530719   0.075   4.043   1.224  1.5981  0.6071 -0.3779
  118MOL    H6630720   0.077   3.880   1.290 -0.4361  0.3230 -0.4018
  118MOL    C6730721   0.552   3.842   1.290 -0.2371 -0.5355  0.0601
  118MOL    C6830722   0.645   3.747   1.212 -0.3264 -0.3007  0.0220
  118MOL    O6930723   0.697   3.655   1.304  0.2255 -0.2862  0.1667
  118MOL    C7030724   0.611   3.545   1.337  0.1525 -0.0808 -0.1909
  118MOL    C7130725   0.671   3.441   1.429  0.2532  0.3749 -0.8267
  118MOL    H7230726   0.463   3.784   1.315  0.2307 -1.8439 -1.2452
  118MOL    H7330727   0.597   3.880   1.382 -0.2973  0.3585 -0.2711
  118MOL    H7430728   0.593   3.688   1.137  0.3314  0.7988 -1.3219
  118MOL    H7530729   0.589   3.493   1.243  0.2851 -1.2378  0.4010
  118MOL    H7630730   0.520   3.587   1.379  0.6601  0.8383 -0.0029
  118MOL    H7730731   0.676   3.473   1.533 -2.6853  0.5413 -0.6963
  118MOL    H7830732   0.621   3.344   1.430  1.3219 -0.1891 -1.1543
  118MOL    H7930733   0.772   3.414   1.397 -0.6192 -1.2922 -2.2542
  118MOL    C8030734   0.764   3.821   1.147  0.5884 -0.0566 -0.3870
  118MOL    C8130735   0.878   3.739   1.083 -0.2610  0.3935 -0.6684
  118MOL    O8230736   0.955   3.848   1.041 -0.3574  0.3969  0.9767
  118MOL    C8330737   1.076   3.876   1.103 -0.6654 -0.0090  0.8911
  118MOL    C8430738   1.064   3.964   1.224  0.4742  0.5732 -0.1448
  118MOL    H8530739   0.804   3.891   1.220 -1.2623  0.3733  0.2190
  118MOL    H8630740   0.726   3.870   1.057  1.8567 -1.9265 -1.9687
  118MOL    H8730741   0.937   3.688   1.158  0.9405  1.0260 -1.1611
  118MOL    H8830742   1.127   3.935   1.027 -0.8865 -0.3163  0.5037
  118MOL    H8930743   1.137   3.788   1.122 -0.0777 -0.5295 -2.9376
  118MOL    H9030744   1.014   3.912   1.305  2.4167 -0.0884  0.6650
  118MOL    H9130745   1.159   4.002   1.262  0.4403  2.5394 -1.9246
  118MOL    H9230746   1.006   4.054   1.203 -0.1602 -0.0612 -1.1843
  118MOL    C9330747   0.851   3.643   0.967 -0.0041  0.6489  0.5399
  118MOL    C9430748   0.981   3.559   0.933  0.3472 -0.0396 -0.2869
  118MOL    O9530749   0.989   3.545   0.795  0.1553  0.4578  0.1719
  118MOL    C9630750   1.038   3.654   0.717 -0.6059 -0.6600 -0.5789
  118MOL    C9730751   0.965   3.634   0.581 -0.1645 -0.6946 -0.4568
  118MOL    H9830752   0.831   3.695   0.874  3.4187  1.0261 -0.0375
  118MOL    H9930753   0.773   3.567   0.975 -0.8987  1.6670  1.5536
  118MOL   H10030754   1.077   3.603   0.958  1.2149 -1.1296 -1.5598
  118MOL   H10130755   1.142   3.631   0.694  0.0681 -0.2425  1.8701
  118MOL   H10230756   1.024   3.754   0.758  0.2901 -0.9282  0.4054
  118MOL   H10330757   0.991   3.713   0.512  1.6457  0.1510  1.1334
  118MOL   H10430758   0.985   3.532   0.546 -0.0501 -0.1371 -2.0492
  118MOL   H10530759   0.857   3.644   0.588 -0.0134  0.7761 -0.2295
  118MOL   C10630760   0.980   3.414   0.992  0.0871 -0.7189  0.0478
  118MOL   C10730761   0.951   3.400   1.137  0.4277 -0.5652  0.1427
  118MOL   O10830762   1.060   3.463   1.203  0.0906  0.2282  0.7854
  118MOL   C10930763   1.042   3.514   1.333  0.3844 -0.5848  0.3148
  118MOL   C11030764   1.162   3.607   1.369 -0.0239 -0.2444 -0.5376
  118MOL   H11130765   1.071   3.355   0.982  0.1293 -0.3376 -1.9490
  118MOL   H11230766   0.902   3.356   0.943  0.1563 -1.0290  0.3027
  118MOL   H11330767   0.856   3.449   1.159  0.7877  0.7302 -1.1136
  118MOL   H11430768   1.033   3.429   1.401  0.7727 -0.8952 -0.0189
  118MOL   H11530769   0.949   3.571   1.339  0.5452 -0.3840  0.9273
  118MOL   H11630770   1.195   3.677   1.293  0.3949 -2.1071 -2.1136
  118MOL   H11730771   1.124   3.678   1.443  4.3026  1.2515  0.3820
  118MOL   H11830772   1.246   3.551   1.410 -1.2411 -0.8107  1.2328
  118MOL   C11930773   0.942   3.252   1.191 -0.5529 -0.6420 -0.1838
  118MOL   C12030774   0.834   3.167   1.139  0.0515  0.3438  0.2012
  118MOL   O12130775   0.711   3.216   1.178  0.0690 -0.6859  0.4553
  118MOL   C12230776   0.602   3.161   1.106  0.3342 -0.6337 -0.6065
  118MOL   C12330777   0.484   3.254   1.133 -0.6283  0.1498  0.1101
  118MOL   H12430778   0.927   3.251   1.299  2.1204 -1.4325  0.2165
  118MOL   H12530779   1.036   3.207   1.160 -0.3505 -0.1925 -0.2252
  118MOL   H12630780   0.840   3.175   1.030  0.9768 -0.4821  0.1839
  118MOL   H12730781   0.573   3.058   1.127 -0.4126 -0.3410 -0.1961
  118MOL   H12830782   0.621   3.157   0.999  0.7781  2.3117 -0.6798
  118MOL   H12930783   0.526   3.348   1.099 -0.2809  0.2545  0.8026
  118MOL   H13030784   0.400   3.227   1.070 -1.9538 -1.8664  2.6392
  118MOL   H13130785   0.444   3.256   1.235 -0.2824  0.0525  0.2506
  118MOL   C13230786   0.844   3.020   1.177  0.1862 -0.2638 -0.1387
  118MOL   C13330787   0.950   2.935   1.102  0.3071 -0.0203 -0.0201
  118MOL   O13430788   0.921   2.946   0.963  0.0870  0.3058 -0.1111
  118MOL   C13530789   1.038   2.940   0.881  0.0014  0.0592  0.0040
  118MOL   C13630790   1.117   3.070   0.860 -0.5319  0.2200 -0.5323
  118MOL   H13730791   0.753   2.965   1.154 -0.0169  0.0317 -0.0395
  118MOL   H13830792   0.853   3.008   1.285 -1.7344 -2.8387 -0.2186
  118MOL   H13930793   1.055   2.950   1.126  0.1353 -1.4005  1.6959
  118MOL   H14030794   0.985   2.914   0.790 -0.7834 -0.3597  0.5654
  118MOL   H14130795   1.111   2.867   0.917 -0.4784 -0.7582 -0.6503
  118MOL   H14230796   1.162   3.101   0.954  0.4722 -0.4412 -0.7865
  118MOL   H14330797   1.202   3.050   0.795  0.6002  1.1052  0.6459
  118MOL   H14430798   1.066   3.154   0.813  1.2571  4.0038  3.8645
  118MOL   C14530799   0.935   2.787   1.133 -0.2981  0.4917 -0.5834
  118MOL   C14630800   0.954   2.741   1.279  0.2192 -0.2006 -0.2496
  118MOL   O14730801   1.094   2.746   1.306 -0.2857  0.2208 -0.3604
  118MOL   C14830802   1.134   2.847   1.403 -0.5405 -0.1474  0.0838
  118MOL   C14930803   1.270   2.810   1.461 -0.1903 -0.1689  0.1406
  118MOL   H15030804   1.020   2.743   1.080 -1.3540 -0.6861 -1.3099
  118MOL   H15130805   0.844   2.748   1.089 -0.7865  1.5791 -0.5628
  118MOL   H15230806   0.902   2.806   1.349 -0.5824  1.9414 -2.7339
  118MOL   H15330807   1.070   2.846   1.491  0.9192 -2.6562  1.1632
  118MOL   H15430808   1.131   2.952   1.373  0.0068 -0.2099 -0.1927
  118MOL   H15530809   1.257   2.726   1.530 -0.8932  0.4765  0.8117
  118MOL   H15630810   1.334   2.784   1.377  1.5012  2.0940  0.6866
  118MOL   H15730811   1.327   2.892   1.505  1.9506  0.0216 -2.8547
  118MOL   C15830812   0.896   2.596   1.282  1.0165  0.3157 -0.4873
  118MOL   C15930813   0.895   2.544   1.430  0.4991 -0.0203  0.4345
  118MOL   O16030814   0.861   2.406   1.425 -0.1682 -0.7440  0.3966
  118MOL   C16130815   0.962   2.317   1.391  0.5652  0.4542 -0.2496
  118MOL   C16230816   0.902   2.186   1.330  0.4167  0.4527 -0.4684
  118MOL   H16330817   0.950   2.532   1.212  2.0826  0.6871 -0.0047
  118MOL   H16430818   0.792   2.597   1.250 -0.2888  2.3139  3.4945
  118MOL   H16530819   0.992   2.555   1.480  0.1961 -3.0227  1.7478
  118MOL   H16630820   1.010   2.293   1.486 -1.5179  0.2023  0.7792
  118MOL   H16730821   1.040   2.357   1.327 -2.0830  4.1877 -1.3255
  118MOL   H16830822   0.981   2.112   1.318  0.5020  0.6591 -1.1958
  118MOL   H16930823   0.829   2.156   1.405 -0.0293  1.2042 -0.5974
  118MOL   H17030824   0.842   2.210   1.242  0.6005 -0.5980 -0.8790
  118MOL   C17130825   0.792   2.619   1.515 -0.3002 -0.6340  0.1781
  118MOL   C17230826   0.760   2.580   1.660  0.5007 -0.1983  0.1383
  118MOL   O17330827   0.687   2.694   1.724  0.4753 -0.1618 -0.0795
  118MOL   C17430828   0.603   2.661   1.826 -0.2215 -0.2011 -0.4642
  118MOL   C17530829   0.524   2.780   1.874 -0.2961  1.2095  0.0377
  118MOL   H17630830   0.690   2.611   1.478 -0.2764 -1.2336  0.2485
  118MOL   H17730831   0.808   2.727   1.523 -1.2177 -0.5017  0.2514
  118MOL   H17830832   0.698   2.491   1.665 -1.2202  0.9925  0.3064
  118MOL   H17930833   0.677   2.645   1.905  1.2379  0.7536 -1.6257
  118MOL   H18030834   0.547   2.570   1.802 -1.7326  0.1545  1.5544
  118MOL   H18130835   0.587   2.869   1.875 -1.7581  2.2581  1.4193
  118MOL   H18230836   0.462   2.812   1.790 -0.9476 -0.0550  0.0373
  118MOL   H18330837   0.462   2.750   1.958  0.0524  1.0278  0.2294
  118MOL   C18430838   0.890   2.557   1.741 -0.2318 -0.4463  0.1665
  118MOL   C18530839   0.929   2.411   1.763 -0.3311 -0.6617  0.2085
  118MOL   O18630840   0.827   2.367   1.852  0.3640 -0.2990  0.4521
  118MOL   C18730841   0.748   2.258   1.811 -0.8770 -0.1732  0.4041
  118MOL   C18830842   0.613   2.259   1.878  0.1392  0.1360 -0.6177
  118MOL   H18930843   0.882   2.606   1.838  0.5984 -0.5119  0.2722
  118MOL   H19030844   0.972   2.606   1.689 -0.1979 -2.0628 -1.3287
  118MOL   H19130845   0.930   2.363   1.665  2.3677 -0.1302 -0.0562
  118MOL   H19230846   0.802   2.164   1.822 -1.2527 -0.5627 -0.9495
  118MOL   H19330847   0.732   2.265   1.703 -0.3663  1.9010  0.4299
  118MOL   H19430848   0.625   2.257   1.986 -0.9832 -0.5147 -0.4969
  118MOL   H19530849   0.558   2.349   1.851  1.0678  0.3866 -1.7314
  118MOL   H19630850   0.555   2.172   1.847 -1.0822  0.3947  0.9148
  118MOL   C19730851   1.066   2.391   1.823 -0.1029  0.5547 -0.5791
  118MOL   C19830852   1.103   2.240   1.858  0.0988  0.2790 -0.3505
  118MOL   O19930853   1.217   2.250   1.939  0.5166 -0.4243 -0.1370
  118MOL   C20030854   1.208   2.229   2.075  0.7188  0.8930  0.1650
  118MOL   C20130855   1.345   2.243   2.143  0.6452 -0.1816 -0.6372
  118MOL   H20230856   1.074   2.450   1.915  0.0930 -1.0248  0.4285
  118MOL   H20330857   1.140   2.429   1.753 -1.5687  0.5804 -2.1510
  118MOL   H20430858   1.019   2.198   1.914  1.5347 -2.7982 -0.4044
  118MOL   H20530859   1.154   2.136   2.092  1.8012  0.5608  1.8697
  118MOL   H20630860   1.147   2.302   2.128 -1.3959  1.6068 -3.1233
  118MOL   H20730861   1.389   2.343   2.151  1.7618 -0.9383  3.3934
  118MOL   H20830862   1.327   2.210   2.245  1.6390 -1.3494 -0.8282
  118MOL   H20930863   1.415   2.170   2.103  0.6405 -0.1358 -0.7317
  118MOL   C21030864   1.120   2.148   1.733  0.0664 -1.2700  0.1379
  118MOL   C21130865   1.132   2.002   1.767  0.3344  0.8491  0.3673
  118MOL   O21230866   1.196   1.943   1.653  0.1360  0.9475 -0.1270
  118MOL   C21330867   1.120   1.912   1.538 -0.7112  0.1093  0.4994
  118MOL   C21430868   1.222   1.898   1.426 -0.1748 -0.7396 -0.2003
  118MOL   H21530869   1.202   2.186   1.672  0.5139  1.2215  2.2307
  118MOL   H21630870   1.032   2.172   1.673  1.1335  4.6384  0.6565
  118MOL   H21730871   1.209   1.997   1.845  0.4725  2.3381  0.3426
  118MOL   H21830872   1.053   1.993   1.509  0.1381  0.5094 -0.3780
  118MOL   H21930873   1.077   1.812   1.543  2.8631 -1.3912  2.5232
  118MOL   H22030874   1.305   1.833   1.453  0.5398 -0.4321 -1.5796
  118MOL   H22130875   1.162   1.872   1.338 -0.2700 -1.5695  0.1065
  118MOL   H22230876   1.262   1.998   1.407 -1.8986 -0.1286 -0.6617
  118MOL   C22330877   0.998   1.927   1.811 -0.0970  0.0539  0.2100
  118MOL   C22430878   1.023   1.815   1.905 -0.2726 -0.2929 -0.1144
  118MOL   O22530879   1.086   1.712   1.822  0.5521 -0.5778  0.4506
  118MOL   C22630880   1.228   1.692   1.837 -0.5913 -0.4168 -0.2710
  118MOL   C22730881   1.264   1.603   1.964  0.4791  0.1673  0.0746
  118MOL   H22830882   0.944   1.893   1.723 -0.4793 -0.1375  0.5193
  118MOL   H22930883   0.938   2.006   1.856  0.2548  0.1103  0.5872
  118MOL   H23030884   1.085   1.850   1.987 -1.5759  0.1840  0.6657
  118MOL   H23130885   1.283   1.785   1.846 -1.5283  0.0776  0.4509
  118MOL   H23230886   1.271   1.643   1.750 -0.9559 -1.0164 -0.1159
  118MOL   H23330887   1.238   1.646   2.061  1.7113  1.2340 -0.0398
  118MOL   H23430888   1.210   1.509   1.977 -2.7872  1.8764 -0.6736
  118MOL   H23530889   1.370   1.577   1.971  0.7078  0.9352 -0.4250
  118MOL   C23630890   0.890   1.755   1.965  0.0909 -0.5581  0.0280
  118MOL   C23730891   0.830   1.825   2.090 -0.9948 -0.3957  0.1234
  118MOL   O23830892   0.922   1.815   2.205  0.1577 -0.0413 -0.5608
  118MOL   C23930893   0.989   1.936   2.232  0.4052  0.2305 -0.1435
  118MOL   C24030894   0.888   2.029   2.303  0.0750 -0.2093 -0.1965
  118MOL   H24130895   0.908   1.654   2.003 -0.4696 -0.5958  0.1910
  118MOL   H24230896   0.820   1.739   1.883  1.6373 -2.9993 -0.8702
  118MOL   H24330897   0.800   1.925   2.057 -1.4828 -0.8824 -0.9519
  118MOL   H24430898   1.022   1.995   2.146  0.1051  3.0010  1.5694
  118MOL   H24530899   1.078   1.919   2.292 -0.2945 -1.4290  0.4412
  118MOL   H24630900   0.825   1.970   2.370 -0.0168 -0.6120 -0.6297
  118MOL   H24730901   0.948   2.100   2.360  1.4921  0.5432 -2.5585
  118MOL   H24830902   0.826   2.093   2.240 -1.1330 -0.1674  1.0143
  118MOL   C24930903   0.703   1.754   2.135 -0.2492 -0.0326 -0.2696
  118MOL   C25030904   0.608   1.836   2.218  0.0070 -0.2244 -0.0962
  118MOL   O25130905   0.552   1.948   2.146 -0.2292 -0.1637  0.2204
  118MOL   C25230906   0.437   1.994   2.216 -0.0750  0.0183 -0.1615
  118MOL   C25330907   0.396   2.128   2.157  0.5783  0.0968  0.3814
  118MOL   H25430908   0.725   1.665   2.194  0.0314 -1.3171 -2.2814
  118MOL   H25530909   0.644   1.707   2.057 -4.0705 -0.7152  2.8676
  118MOL   H25630910   0.521   1.773   2.237 -0.7825  0.5019 -1.2079
  118MOL   H25730911   0.452   1.993   2.324 -0.3889  1.7199 -0.0930
  118MOL   H25830912   0.354   1.924   2.205  0.3098 -0.4382 -0.2383
  118MOL   H25930913   0.367   2.120   2.053 -3.5024 -0.6619  1.4605
  118MOL   H26030914   0.302   2.160   2.202  2.0140  1.9953  2.0980
  118MOL   H26130915   0.471   2.207   2.160 -0.6804  1.3765 -1.0919
  118MOL   H26230916   0.650   1.870   2.313  1.6080  0.1210 -0.9110
  119MOL     C130917   6.585   4.170   1.896 -0.5918 -0.3415  0.1064
  119MOL     C230918   6.588   4.326   1.905 -0.0956  0.6637 -0.0749
  119MOL     O330919   6.723   4.367   1.865 -0.7364 -0.0405 -0.5077
  119MOL     C430920   6.739   4.501   1.845 -0.6458 -0.8783 -0.4372
  119MOL     C530921   6.875   4.540   1.795 -0.0557 -0.2566 -0.2374
  119MOL     H630922   6.612   4.148   1.793 -0.2968  0.8039 -0.0738
  119MOL     H730923   6.663   4.128   1.961 -0.4991 -0.5937 -0.1692
  119MOL     H830924   6.516   4.364   1.832 -0.1025  0.6713 -0.0640
  119MOL     H930925   6.718   4.562   1.933  0.9996  0.7141 -1.1148
  119MOL    H1030926   6.665   4.539   1.775 -0.8568 -2.4495 -1.0917
  119MOL    H1130927   6.885   4.517   1.689  0.3795 -0.4629 -0.1552
  119MOL    H1230928   6.903   4.642   1.823  1.0585 -1.2767  2.5848
  119MOL    H1330929   6.952   4.475   1.838  0.6761  0.7066 -0.0712
  119MOL    H1430930   6.487   4.128   1.916 -0.2994 -0.3254  1.6549
  119MOL    C1530931   6.535   4.378   2.045  0.2968  0.2034  1.3174
  119MOL    C1630932   6.399   4.321   2.103  0.4048 -0.1311  0.7565
  119MOL    O1730933   6.289   4.303   2.011  0.2081 -0.8292 -0.3993
  119MOL    C1830934   6.234   4.427   1.964 -0.1555 -0.3818  0.3959
  119MOL    C1930935   6.086   4.408   1.934  0.2927 -0.0092 -0.0147
  119MOL    H2030936   6.541   4.487   2.040  1.6246  0.0459 -1.3879
  119MOL    H2130937   6.611   4.341   2.115 -0.3047 -1.7544  0.9607
  119MOL    H2230938   6.429   4.217   2.114  0.5411 -0.9333 -5.4869
  119MOL    H2330939   6.287   4.457   1.874 -0.7033  1.9826  0.8302
  119MOL    H2430940   6.252   4.509   2.033 -1.1932  0.9186 -0.8397
  119MOL    H2530941   6.051   4.312   1.893 -2.9554  0.2353  1.9872
  119MOL    H2630942   6.050   4.491   1.873  3.6478  1.4480 -0.1115
  119MOL    H2730943   6.032   4.417   2.028 -0.0448 -1.9300  0.0030
  119MOL    C2830944   6.354   4.381   2.243 -0.1052  0.8955 -0.3134
  119MOL    C2930945   6.207   4.347   2.292 -0.3992 -0.6788  0.4237
  119MOL    O3030946   6.165   4.431   2.396  0.2530 -0.2997  0.1744
  119MOL    C3130947   6.083   4.544   2.349  0.0925  0.1463  0.4505
  119MOL    C3230948   6.056   4.645   2.453 -0.1354 -0.5258 -0.1490
  119MOL    H3330949   6.346   4.487   2.223  1.8306  1.0116 -0.5256
  119MOL    H3430950   6.431   4.368   2.319  0.8399  1.2418 -1.2075
  119MOL    H3530951   6.138   4.355   2.208  0.1228 -1.8648 -0.1297
  119MOL    H3630952   5.991   4.495   2.319  1.9145 -1.6222 -2.5427
  119MOL    H3730953   6.128   4.597   2.264 -2.7411  1.0771 -0.5203
  119MOL    H3830954   6.155   4.668   2.493 -0.0624  2.6917 -2.0574
  119MOL    H3930955   6.002   4.732   2.418 -0.5741 -0.4956  0.5935
  119MOL    H4030956   5.995   4.605   2.534 -0.4491 -0.1058 -0.1775
  119MOL    C4130957   6.187   4.206   2.343  0.5386 -0.3492 -0.3792
  119MOL    C4230958   6.041   4.161   2.369  0.2302  0.1401  0.3149
  119MOL    O4330959   6.034   4.047   2.459 -0.2770 -0.1373 -0.4648
  119MOL    C4430960   6.009   4.101   2.585 -0.0291  0.4816 -0.2859
  119MOL    C4530961   6.005   3.978   2.671 -0.0230  0.7543  0.0967
  119MOL    H4630962   6.243   4.196   2.436 -0.2279  1.0486  0.2449
  119MOL    H4730963   6.235   4.136   2.275  0.0824 -2.0513  1.0347
  119MOL    H4830964   5.990   4.247   2.412 -1.2841  0.3614 -1.8042
  119MOL    H4930965   5.913   4.151   2.597 -0.5496 -0.0617 -2.0847
  119MOL    H5030966   6.090   4.162   2.623 -2.3726  2.1875  2.2003
  119MOL    H5130967   5.976   3.891   2.612 -0.8183  2.0400 -1.4134
  119MOL    H5230968   6.106   3.968   2.710 -0.7478 -0.7739  1.6459
  119MOL    H5330969   5.923   3.995   2.740 -2.0507 -1.4851 -1.6407
  119MOL    C5430970   5.957   4.121   2.241 -0.1587  0.4167  0.3285
  119MOL    C5530971   6.004   4.002   2.156  0.3478 -0.4492  1.3262
  119MOL    O5630972   6.051   4.054   2.035  0.2224  0.2319 -0.3232
  119MOL    C5730973   6.151   3.973   1.977  0.2460 -0.6340  1.1337
  119MOL    C5830974   6.141   3.999   1.822 -0.1525 -0.5226 -0.5618
  119MOL    H5930975   5.932   4.207   2.179  0.2441  0.4513  0.2135
  119MOL    H6030976   5.861   4.087   2.281  0.1615  0.3974  1.0899
  119MOL    H6130977   6.093   3.964   2.205  0.6548 -1.1712  0.2239
  119MOL    H6230978   6.125   3.867   1.987 -1.7351 -0.2187  0.7224
  119MOL    H6330979   6.246   4.002   2.021  0.4766  1.0304 -0.3989
  119MOL    H6430980   6.053   3.956   1.774 -0.6623 -0.9585  0.7513
  119MOL    H6530981   6.143   4.107   1.804 -1.2897 -0.2826  0.6797
  119MOL    H6630982   6.232   3.963   1.774  0.7669 -0.9427  1.4530
  119MOL    C6730983   5.893   3.892   2.133 -0.0896 -0.7447  0.3609
  119MOL    C6830984   5.891   3.794   2.251  0.2289 -0.4773 -1.0143
  119MOL    O6930985   5.974   3.686   2.235  0.1383  0.2507  0.0610
  119MOL    C7030986   6.110   3.708   2.273 -0.0080  0.2021  0.1793
  119MOL    C7130987   6.162   3.575   2.324 -0.4814 -0.1028 -0.4973
  119MOL    H7230988   5.917   3.838   2.041  2.3964  0.7890  0.0360
  119MOL    H7330989   5.793   3.933   2.125  0.3279 -0.1601 -2.4189
  119MOL    H7430990   5.921   3.855   2.336 -1.6802  0.8522 -1.2514
  119MOL    H7530991   6.129   3.788   2.344  1.4879  0.7449 -0.8074
  119MOL    H7630992   6.154   3.742   2.179 -0.0491  0.3643  0.2191
  119MOL    H7730993   6.102   3.536   2.406 -0.8622 -0.8183 -1.1084
  119MOL    H7830994   6.176   3.500   2.246 -0.0580 -2.1526  1.5200
  119MOL    H7930995   6.257   3.594   2.374 -0.5728 -0.0921 -0.3299
  119MOL    C8030996   5.754   3.752   2.285  0.4161  0.2105 -0.0302
  119MOL    C8130997   5.725   3.680   2.418  0.4206  0.3515  0.1791
  119MOL    O8230998   5.606   3.597   2.410 -0.1614 -0.0998  0.2170
  119MOL    C8330999   5.616   3.461   2.365  0.2270  0.1151 -0.5126
  119MOL    C8431000   5.569   3.446   2.226  0.6701  0.0726 -0.3426
  119MOL    H8531001   5.721   3.687   2.204 -1.2091  1.4132 -0.3445
  119MOL    H8631002   5.686   3.836   2.272  0.7465  0.5037  0.1552
  119MOL    H8731003   5.809   3.616   2.446  0.7844  0.4177 -0.7390
  119MOL    H8831004   5.537   3.420   2.428  0.2115  0.8586 -0.0358
  119MOL    H8931005   5.708   3.406   2.380  1.3665  1.7573 -1.2512
  119MOL    H9031006   5.647   3.421   2.155 -2.1610  0.4191 -3.7015
  119MOL    H9131007   5.491   3.369   2.222  0.9053 -0.1702 -0.3018
  119MOL    H9231008   5.515   3.534   2.194 -1.5945 -1.3060 -0.4620
  119MOL    C9331009   5.695   3.774   2.539  0.5102 -0.9292 -0.3559
  119MOL    C9431010   5.652   3.704   2.668 -0.0748  0.3325  0.7326
  119MOL    O9531011   5.663   3.798   2.777  0.2155  0.2812  0.3750
  119MOL    C9631012   5.537   3.856   2.819  0.0834  0.3977  0.2744
  119MOL    C9731013   5.554   3.945   2.945  0.1685  0.6840 -0.8204
  119MOL    H9831014   5.608   3.838   2.526  0.9468 -0.4074 -0.7421
  119MOL    H9931015   5.772   3.848   2.563  0.3027 -0.5836 -0.7438
  119MOL   H10031016   5.549   3.668   2.667 -0.0290  0.1993  0.6954
  119MOL   H10131017   5.460   3.783   2.846  0.8034 -0.6512 -0.4574
  119MOL   H10231018   5.491   3.904   2.733 -0.2848 -1.5105 -0.6247
  119MOL   H10331019   5.477   4.020   2.964 -0.4434 -0.6016  2.0236
  119MOL   H10431020   5.566   3.883   3.033  0.3349 -0.4648 -1.6476
  119MOL   H10531021   5.650   3.996   2.939  2.5264 -3.4205  0.3596
  119MOL   C10631022   5.736   3.579   2.704 -0.1702  0.1199 -1.0343
  119MOL   C10731023   5.706   3.516   2.843 -0.8743 -0.5213  0.7737
  119MOL   O10831024   5.768   3.596   2.942 -0.0962  0.4821 -0.4754
  119MOL   C10931025   5.703   3.616   3.068  0.1757  0.0277 -1.1496
  119MOL   C11031026   5.798   3.720   3.143  0.0967 -0.5359  0.2435
  119MOL   H11131027   5.835   3.624   2.706  0.1894 -0.6413  2.9043
  119MOL   H11231028   5.729   3.509   2.621  0.4986 -0.5634 -0.5268
  119MOL   H11331029   5.597   3.510   2.852 -0.8605 -0.7094  0.8215
  119MOL   H11431030   5.706   3.526   3.130 -0.5581  0.2232 -0.8144
  119MOL   H11531031   5.599   3.648   3.067  0.1663  0.1634  0.8681
  119MOL   H11631032   5.796   3.819   3.097  1.0948  0.2835  1.9211
  119MOL   H11731033   5.754   3.718   3.243 -1.2679 -1.7748 -0.3654
  119MOL   H11831034   5.901   3.685   3.150  0.5477  0.6723 -0.2369
  119MOL   C11931035   5.752   3.370   2.857 -0.3470 -0.1422  0.0862
  119MOL   C12031036   5.683   3.261   2.787 -0.3308  0.5807 -0.1703
  119MOL   O12131037   5.555   3.253   2.845 -0.4498  0.1472 -0.1409
  119MOL   C12231038   5.447   3.191   2.780 -1.0408  0.4979  0.2817
  119MOL   C12331039   5.392   3.295   2.685  0.2823 -0.1380 -0.1899
  119MOL   H12431040   5.746   3.354   2.965 -0.0685  0.7336  0.2384
  119MOL   H12531041   5.855   3.373   2.823 -0.8268  2.6994 -1.2619
  119MOL   H12631042   5.687   3.281   2.680  1.9588  3.6142  0.4243
  119MOL   H12731043   5.368   3.163   2.850  0.1810 -2.7413  0.4444
  119MOL   H12831044   5.476   3.098   2.732 -0.7498  1.8783 -2.2746
  119MOL   H12931045   5.302   3.272   2.628  1.4580 -0.7939 -1.8274
  119MOL   H13031046   5.366   3.391   2.730  0.5268  0.7329 -1.8755
  119MOL   H13131047   5.461   3.321   2.606  1.6163 -0.0693  0.9768
  119MOL   C13231048   5.754   3.125   2.816  0.6894 -0.0922 -0.2480
  119MOL   C13331049   5.910   3.118   2.821  0.6736  0.5535 -0.2139
  119MOL   O13431050   5.967   3.195   2.926 -1.0159 -0.0919  0.1589
  119MOL   C13531051   5.949   3.151   3.061 -0.1324  0.4725  0.2068
  119MOL   C13631052   6.012   3.260   3.146 -0.0021  0.2925  0.2301
  119MOL   H13731053   5.711   3.066   2.736  0.3297  0.5331 -0.5230
  119MOL   H13831054   5.719   3.079   2.908  1.0264 -1.7893 -0.9549
  119MOL   H13931055   5.924   3.012   2.842 -3.3296 -0.3536 -1.6522
  119MOL   H14031056   6.005   3.059   3.078  1.4527  1.6455  1.4839
  119MOL   H14131057   5.847   3.126   3.091  0.5035 -0.7130  1.4405
  119MOL   H14231058   5.968   3.360   3.146  0.5780  0.5489  0.4384
  119MOL   H14331059   6.022   3.221   3.247  0.4557 -0.5753 -0.1413
  119MOL   H14431060   6.115   3.279   3.117  0.1203 -0.8191 -0.0741
  119MOL   C14531061   5.980   3.142   2.685 -0.4392  0.1126  0.8359
  119MOL   C14631062   6.131   3.118   2.691  0.0513  0.3029 -0.4720
  119MOL   O14731063   6.189   3.163   2.572 -0.3784  0.1616  0.6576
  119MOL   C14831064   6.325   3.210   2.588  0.2580 -0.3149 -0.8018
  119MOL   C14931065   6.379   3.258   2.459 -0.2838 -0.5383 -0.4811
  119MOL   H15031066   5.959   3.244   2.654  0.8129 -0.0973 -0.7634
  119MOL   H15131067   5.941   3.083   2.603  0.5880  0.6209 -0.0379
  119MOL   H15231068   6.170   3.174   2.777 -0.7860  0.7066 -0.3456
  119MOL   H15331069   6.380   3.131   2.638 -3.3483 -1.5390  1.4405
  119MOL   H15431070   6.318   3.290   2.661 -2.1838  0.5662 -1.9564
  119MOL   H15531071   6.487   3.268   2.448 -0.0277 -0.1399  2.0992
  119MOL   H15631072   6.342   3.223   2.362  1.6182  1.2393 -1.9080
  119MOL   H15731073   6.350   3.363   2.448 -2.2696 -1.0741 -0.7004
  119MOL   C15831074   6.164   2.979   2.713  0.0328 -0.4194 -0.3628
  119MOL   C15931075   6.211   2.941   2.857 -0.8584 -1.3160 -0.2938
  119MOL   O16031076   6.348   2.977   2.873 -0.3184  0.2206 -0.1519
  119MOL   C16131077   6.372   3.071   2.974  0.1452  0.4849  0.1687
  119MOL   C16231078   6.526   3.092   2.980 -0.7002 -0.3102  0.0117
  119MOL   H16331079   6.245   2.954   2.645 -0.0132  0.0937 -0.6087
  119MOL   H16431080   6.080   2.919   2.679  1.5389 -1.7375 -1.8855
  119MOL   H16531081   6.152   3.001   2.927  0.6001 -0.6093  0.3574
  119MOL   H16631082   6.332   3.043   3.071 -1.2830  0.7216 -0.3504
  119MOL   H16731083   6.338   3.170   2.947  1.7493  1.3119  1.0989
  119MOL   H16831084   6.581   3.001   3.003 -1.0365 -0.5035  0.0621
  119MOL   H16931085   6.562   3.140   2.889 -1.5127  4.0063  1.8238
  119MOL   H17031086   6.547   3.173   3.050 -0.9605  0.0513 -0.3292
  119MOL   C17131087   6.188   2.798   2.894 -0.3964  0.0105  0.4356
  119MOL   C17231088   6.187   2.750   3.039  0.3057  0.1211  0.2138
  119MOL   O17331089   6.310   2.772   3.112 -0.1872 -0.1719  0.2340
  119MOL   C17431090   6.440   2.726   3.066  0.0441 -0.1311  0.3914
  119MOL   C17531091   6.542   2.735   3.184  0.5894 -0.7907  0.2496
  119MOL   H17631092   6.250   2.728   2.837  0.5820  1.1266  0.1036
  119MOL   H17731093   6.088   2.788   2.851 -0.5266  0.2394  0.6868
  119MOL   H17831094   6.122   2.814   3.098  0.5698  2.4941 -1.9627
  119MOL   H17931095   6.469   2.788   2.982  0.3178  2.4664  2.3392
  119MOL   H18031096   6.428   2.624   3.030  2.9191 -0.2889 -0.2445
  119MOL   H18131097   6.585   2.835   3.193 -4.0945  1.3328  0.1085
  119MOL   H18231098   6.499   2.704   3.279  2.2034 -1.4313  0.8012
  119MOL   H18331099   6.628   2.669   3.171  1.0472 -0.5914  2.1042
  119MOL   C18431100   6.137   2.608   3.055  0.2437 -0.0555  0.6218
  119MOL   C18531101   5.988   2.593   3.025  0.0032  0.0077 -0.3460
  119MOL   O18631102   5.898   2.667   3.106  0.5082 -0.8462  0.0026
  119MOL   C18731103   5.785   2.714   3.035 -0.4907 -0.0910  0.6601
  119MOL   C18831104   5.712   2.803   3.137  0.1644  0.4124 -0.3276
  119MOL   H18931105   6.153   2.576   3.158 -0.9612 -0.7612  0.6011
  119MOL   H19031106   6.204   2.544   2.999  1.7598  1.0008  1.1934
  119MOL   H19131107   5.975   2.629   2.924 -1.5822  1.0091  0.2031
  119MOL   H19231108   5.723   2.628   3.013 -1.4822  0.9983 -0.8952
  119MOL   H19331109   5.804   2.776   2.948  0.8452 -0.9160  0.3476
  119MOL   H19431110   5.620   2.845   3.098 -1.7217 -1.3004  2.1376
  119MOL   H19531111   5.690   2.737   3.220 -0.3638 -1.5520 -1.9803
  119MOL   H19631112   5.753   2.893   3.181  0.0190  1.1938 -1.7481
  119MOL   C19731113   5.945   2.446   3.032  0.0923 -0.2148 -0.5746
  119MOL   C19831114   5.998   2.358   2.915 -0.0858 -0.1813 -0.2624
  119MOL   O19931115   5.926   2.413   2.800  0.6946  0.4055 -0.6149
  119MOL   C20031116   5.988   2.396   2.674 -0.0210 -0.2229  1.0325
  119MOL   C20131117   5.925   2.499   2.573 -0.1677  0.3755 -0.1622
  119MOL   H20231118   5.836   2.443   3.035  0.0817  0.9811  0.6320
  119MOL   H20331119   5.971   2.415   3.133 -1.4876  1.1767  0.2756
  119MOL   H20431120   6.106   2.356   2.902 -0.2319 -1.0337 -1.3431
  119MOL   H20531121   5.972   2.293   2.643  2.9673 -0.6638  0.8494
  119MOL   H20631122   6.095   2.412   2.672  0.1088 -1.0033  1.7780
  119MOL   H20731123   5.951   2.602   2.596 -0.9127  0.6196 -0.4328
  119MOL   H20831124   5.952   2.476   2.470 -1.1519 -1.6523  0.0153
  119MOL   H20931125   5.819   2.477   2.568  0.2309 -1.6291 -0.2125
  119MOL   C21031126   5.955   2.209   2.935  0.2174 -0.0604  0.0344
  119MOL   C21131127   6.022   2.145   3.055 -0.1181  0.0434 -0.1868
  119MOL   O21231128   6.164   2.147   3.024 -0.1666  0.7095 -0.0576
  119MOL   C21331129   6.232   2.178   3.140 -0.3997  0.1593 -0.4639
  119MOL   C21431130   6.379   2.201   3.112  0.0857 -0.4483  0.2195
  119MOL   H21531131   5.991   2.167   2.842 -1.5627 -0.6042 -0.4052
  119MOL   H21631132   5.846   2.209   2.938  0.1888 -0.4994 -1.1575
  119MOL   H21731133   6.001   2.215   3.136  0.9601 -0.9708  1.0018
  119MOL   H21831134   6.214   2.101   3.214  0.6064 -0.2266 -0.6162
  119MOL   H21931135   6.200   2.278   3.170  0.1506  0.7816 -1.8881
  119MOL   H22031136   6.439   2.110   3.104  0.5693 -0.2962  1.8528
  119MOL   H22131137   6.387   2.258   3.019 -1.7319  1.9449  1.4679
  119MOL   H22231138   6.437   2.265   3.179  0.7380 -0.4773 -0.3156
  119MOL   C22331139   5.989   1.992   3.081  0.5173 -0.3475 -0.2888
  119MOL   C22431140   5.843   1.956   3.118  0.1323  0.4575  0.2397
  119MOL   O22531141   5.814   2.022   3.236  0.5700 -0.3538  0.4203
  119MOL   C22631142   5.678   2.064   3.250  0.0156  0.9767  0.4234
  119MOL   C22731143   5.667   2.154   3.372 -1.1322 -0.7760  0.4950
  119MOL   H22831144   6.061   1.948   3.151  1.4084  1.6529  0.1046
  119MOL   H22931145   6.021   1.928   3.000 -0.0831  0.1837 -0.9483
  119MOL   H23031146   5.781   1.992   3.036  0.3100 -0.9095 -0.5205
  119MOL   H23131147   5.619   1.972   3.252  1.4543 -0.0404 -2.1932
  119MOL   H23231148   5.637   2.122   3.167 -0.0506  0.6013  0.1918
  119MOL   H23331149   5.750   2.221   3.351 -0.3249 -2.7280 -2.8022
  119MOL   H23431150   5.571   2.204   3.388 -1.9696 -2.7025  1.7168
  119MOL   H23531151   5.683   2.095   3.463 -1.8540 -0.3303  0.9179
  119MOL   C23631152   5.829   1.800   3.128 -0.5192  0.5842  0.5470
  119MOL   C23731153   5.839   1.728   2.996  0.3265 -0.2539  0.3057
  119MOL   O23831154   5.965   1.719   2.926 -0.1637  0.3905  0.0668
  119MOL   C23931155   6.055   1.625   2.982  0.2483 -0.4661  0.0444
  119MOL   C24031156   6.186   1.652   2.905 -0.0415  0.4477  0.1211
  119MOL   H24131157   5.738   1.775   3.183 -0.7393 -1.5417 -0.7398
  119MOL   H24231158   5.898   1.762   3.203  0.7063  0.6520 -0.5401
  119MOL   H24331159   5.794   1.630   3.008 -1.7306  0.4424 -1.3439
  119MOL   H24431160   6.000   1.532   2.988 -0.5883  0.0828  1.1566
  119MOL   H24531161   6.065   1.660   3.085 -0.9480  0.2301 -0.0636
  119MOL   H24631162   6.164   1.681   2.802 -1.7302 -0.7874  0.1237
  119MOL   H24731163   6.231   1.738   2.956  0.3037  1.5185 -1.9260
  119MOL   H24831164   6.246   1.561   2.909 -1.4043 -0.4819 -0.4106
  119MOL   C24931165   5.745   1.793   2.890  0.1883  0.2931 -0.0984
  119MOL   C25031166   5.724   1.716   2.761 -0.0386  0.1709 -0.5501
  119MOL   O25131167   5.619   1.773   2.686 -0.2574  0.1441 -0.3511
  119MOL   C25231168   5.586   1.679   2.587 -0.0197 -0.5236 -0.1533
  119MOL   C25331169   5.487   1.732   2.482  0.7549 -0.6589 -0.1945
  119MOL   H25431170   5.771   1.895   2.861  0.5635  0.4757  0.8731
  119MOL   H25531171   5.645   1.809   2.929  0.4955  0.5313  0.5989
  119MOL   H25631172   5.819   1.709   2.708 -0.0273 -2.6735 -0.2605
  119MOL   H25731173   5.524   1.601   2.632 -0.3384  0.7197  1.5658
  119MOL   H25831174   5.680   1.647   2.542  0.5122 -0.6209  1.0171
  119MOL   H25931175   5.455   1.649   2.419 -0.7927  1.1619 -1.8563
  119MOL   H26031176   5.405   1.792   2.522 -0.4133 -0.4905 -2.7164
  119MOL   H26131177   5.551   1.793   2.418  2.0125 -2.3409 -0.5945
  119MOL   H26231178   5.703   1.614   2.794 -0.0595  0.5841  0.7642
  120MOL     C131179   2.800   3.291   3.806  0.0933  0.1966 -0.4522
  120MOL     C231180   2.671   3.368   3.828  0.5042  0.4673 -1.0524
  120MOL     O331181   2.650   3.448   3.708 -0.1795  0.2043 -0.8663
  120MOL     C431182   2.633   3.378   3.590 -0.2640 -0.7214 -0.1243
  120MOL     C531183   2.586   3.456   3.474 -0.3033 -0.9793 -0.0326
  120MOL     H631184   2.841   3.259   3.902  2.2018 -1.1542 -1.7609
  120MOL     H731185   2.782   3.214   3.730 -0.9226 -0.9221  0.9002
  120MOL     H831186   2.592   3.294   3.832  1.3732 -0.4137  0.5837
  120MOL     H931187   2.553   3.306   3.602 -0.5980  0.1713  4.0289
  120MOL    H1031188   2.721   3.319   3.565 -1.2365 -1.7351 -1.1725
  120MOL    H1131189   2.579   3.403   3.379  1.1460  3.5785 -2.8434
  120MOL    H1231190   2.488   3.503   3.489  1.0443  2.2974 -1.0716
  120MOL    H1331191   2.656   3.539   3.462 -0.6571 -0.5694  0.6939
  120MOL    H1431192   2.875   3.355   3.759 -0.8228  1.4465 -0.2447
  120MOL    C1531193   2.683   3.448   3.958  0.2930  0.0110 -0.4583
  120MOL    C1631194   2.565   3.552   3.980 -0.0568  0.0631 -0.4323
  120MOL    O1731195   2.588   3.627   4.101  0.3498 -0.2866  0.0776
  120MOL    C1831196   2.633   3.764   4.085 -0.4460  0.4527  0.5419
  120MOL    C1931197   2.769   3.774   4.012  0.2459 -0.3012  0.1763
  120MOL    H2031198   2.785   3.485   3.965 -0.0834  0.7328  1.3511
  120MOL    H2131199   2.686   3.387   4.048 -1.2586 -1.1997 -1.2206
  120MOL    H2231200   2.567   3.619   3.893  2.0979  0.2457 -0.2693
  120MOL    H2331201   2.647   3.809   4.183  2.3304  1.3341 -0.2051
  120MOL    H2431202   2.558   3.814   4.023  1.9054  1.7066 -1.4208
  120MOL    H2531203   2.805   3.877   4.017 -2.5577  0.7324  0.3671
  120MOL    H2631204   2.759   3.744   3.907  4.5468 -1.4897  0.0031
  120MOL    H2731205   2.848   3.707   4.044 -0.8895 -2.5387 -1.5027
  120MOL    C2831206   2.426   3.491   3.998  0.5718 -0.2859  0.0950
  120MOL    C2931207   2.314   3.595   4.014 -0.5326 -0.1649  0.1162
  120MOL    O3031208   2.206   3.518   4.058  0.2061  0.2192 -0.2041
  120MOL    C3131209   2.148   3.546   4.184  0.1020 -0.2440 -0.3465
  120MOL    C3231210   2.017   3.461   4.194  0.1113 -0.2219  0.3510
  120MOL    H3331211   2.430   3.423   4.082  1.8318  0.0961  0.3601
  120MOL    H3431212   2.407   3.426   3.912 -1.4475  0.8432 -0.3511
  120MOL    H3531213   2.331   3.672   4.090  0.5397 -2.2854  2.0685
  120MOL    H3631214   2.127   3.653   4.191  1.2195 -0.0585  0.3973
  120MOL    H3731215   2.210   3.536   4.273 -2.0038  0.8819  1.3082
  120MOL    H3831216   2.057   3.359   4.195  0.9080  0.0689 -1.0720
  120MOL    H3931217   1.960   3.475   4.285  0.6889  0.6703  0.5729
  120MOL    H4031218   1.943   3.451   4.114 -1.6450  0.2002  1.9011
  120MOL    C4131219   2.283   3.674   3.887 -0.4191  0.1920  0.9123
  120MOL    C4231220   2.161   3.769   3.894 -0.0433 -0.4340  1.5022
  120MOL    O4331221   2.140   3.836   4.016 -0.0236 -0.1544  0.3220
  120MOL    C4431222   2.229   3.951   4.033  0.2264 -0.0496 -0.3718
  120MOL    C4531223   2.160   4.057   4.131 -1.1829 -0.1265  0.0503
  120MOL    H4631224   2.279   3.605   3.803  0.5107 -0.2367  1.2112
  120MOL    H4731225   2.369   3.737   3.865 -0.5201  0.6771  1.8672
  120MOL    H4831226   2.176   3.831   3.805 -4.1892  0.2476  1.1729
  120MOL    H4931227   2.254   4.007   3.942 -0.8932  0.0591 -0.6233
  120MOL    H5031228   2.319   3.905   4.073  0.1588 -0.1780 -0.3685
  120MOL    H5131229   2.078   4.103   4.075  0.0223  1.5172 -0.3685
  120MOL    H5231230   2.125   4.019   4.227  1.3967  0.4569  1.2454
  120MOL    H5331231   2.225   4.137   4.164 -0.3571 -0.6893 -0.2134
  120MOL    C5431232   2.031   3.690   3.876 -0.2049 -0.0403 -1.0182
  120MOL    C5531233   1.910   3.783   3.842  0.2148  0.3099  0.1130
  120MOL    O5631234   1.778   3.718   3.846 -0.5152 -0.0447  0.0841
  120MOL    C5731235   1.742   3.664   3.964 -0.1618  0.1047  0.0817
  120MOL    C5831236   1.590   3.626   3.953  0.7377 -0.5079 -1.0681
  120MOL    H5931237   2.009   3.635   3.967 -3.2959  0.5944 -1.3258
  120MOL    H6031238   2.035   3.615   3.797  2.5569  1.5406 -2.4362
  120MOL    H6131239   1.908   3.866   3.912  0.7995  1.5357 -1.2937
  120MOL    H6231240   1.754   3.717   4.058  1.6553 -1.1948  0.6034
  120MOL    H6331241   1.800   3.573   3.981  2.8565  2.0904  0.7907
  120MOL    H6431242   1.519   3.708   3.948 -1.5406 -2.3604 -0.0375
  120MOL    H6531243   1.557   3.559   3.873  0.3551  1.0051 -2.1935
  120MOL    H6631244   1.564   3.572   4.044  0.7435 -1.8610 -1.8536
  120MOL    C6731245   1.910   3.848   3.702 -0.4198 -0.7706 -0.0973
  120MOL    C6831246   1.919   3.758   3.572  0.1102 -0.5971 -0.0326
  120MOL    O6931247   1.979   3.829   3.459 -0.1877  0.0430 -0.2617
  120MOL    C7031248   1.905   3.926   3.395  0.1717 -0.0785 -0.2350
  120MOL    C7131249   1.995   3.990   3.291  0.0984  0.2604  0.7310
  120MOL    H7231250   2.002   3.905   3.693 -0.8019 -0.5192 -2.7619
  120MOL    H7331251   1.831   3.923   3.704 -1.0266 -1.4251  1.3928
  120MOL    H7431252   1.990   3.678   3.591 -0.5109 -1.2467 -0.4103
  120MOL    H7531253   1.876   4.007   3.462  1.3238  0.4183 -0.3295
  120MOL    H7631254   1.816   3.891   3.343  0.1008  0.3288 -0.3981
  120MOL    H7731255   1.938   4.071   3.245  2.9555  1.9066 -0.0578
  120MOL    H7831256   2.088   4.023   3.337  0.5829  1.1573 -0.8578
  120MOL    H7931257   2.021   3.918   3.213  1.5949  0.9823  0.5423
  120MOL    C8031258   1.790   3.679   3.534 -0.4206 -0.0418 -0.8049
  120MOL    C8131259   1.802   3.583   3.409  0.1109 -0.0011 -0.7001
  120MOL    O8231260   1.670   3.522   3.398 -0.3509  0.3463 -0.0034
  120MOL    C8331261   1.605   3.572   3.289 -0.3866  0.3880  0.0917
  120MOL    C8431262   1.457   3.516   3.287  0.2801  0.2218  0.6412
  120MOL    H8531263   1.721   3.759   3.511  0.5662  1.7479  2.1444
  120MOL    H8631264   1.753   3.630   3.624 -0.3985 -1.5980 -1.6138
  120MOL    H8731265   1.839   3.631   3.318 -0.2083 -0.0085 -0.8358
  120MOL    H8831266   1.650   3.536   3.196  1.3969  0.0505  1.0757
  120MOL    H8931267   1.608   3.681   3.292  1.4781  0.3501 -0.0774
  120MOL    H9031268   1.396   3.575   3.356 -0.0074 -2.3075  2.6052
  120MOL    H9131269   1.423   3.534   3.185 -0.5599 -1.0896  0.6795
  120MOL    H9231270   1.463   3.409   3.307 -1.7766 -0.2020 -0.8082
  120MOL    C9331271   1.889   3.462   3.441 -0.0313  0.5934 -0.3624
  120MOL    C9431272   1.908   3.366   3.325 -0.2883  0.2480  0.2435
  120MOL    O9531273   1.995   3.258   3.370 -0.4291  0.2119  0.2189
  120MOL    C9631274   1.913   3.147   3.381 -0.0469  0.1401 -0.5723
  120MOL    C9731275   1.992   3.038   3.462 -0.1811 -0.3818  0.5487
  120MOL    H9831276   1.869   3.422   3.541  0.6352 -0.1381 -0.5164
  120MOL    H9931277   1.989   3.500   3.463 -0.6606  0.9395  2.1479
  120MOL   H10031278   1.812   3.325   3.291 -0.5774  0.8514  0.3305
  120MOL   H10131279   1.890   3.100   3.285 -1.4933 -2.4629  0.9917
  120MOL   H10231280   1.820   3.160   3.435  1.0275  1.3549  1.0300
  120MOL   H10331281   2.088   3.021   3.413 -0.4251 -2.4831  0.7781
  120MOL   H10431282   2.004   3.078   3.562  0.0654  0.4326  0.2015
  120MOL   H10531283   1.931   2.949   3.475 -2.1286  0.9392  0.6294
  120MOL   C10631284   1.978   3.420   3.197  0.3445 -0.3793 -0.4650
  120MOL   C10731285   1.963   3.328   3.074  0.7418  0.2614 -0.1412
  120MOL   O10831286   2.055   3.371   2.976  0.0630  0.3274  0.8816
  120MOL   C10931287   2.171   3.287   2.969 -0.6913 -0.8014  0.1271
  120MOL   C11031288   2.279   3.365   2.900  0.0010  0.6023  0.2039
  120MOL   H11131289   2.081   3.441   3.224  0.1710  0.5715 -0.5241
  120MOL   H11231290   1.949   3.522   3.173  1.5506 -0.0367 -0.5094
  120MOL   H11331291   1.988   3.223   3.091  0.0034  0.1886  0.5151
  120MOL   H11431292   2.160   3.193   2.916  1.8904  1.3831 -4.5826
  120MOL   H11531293   2.213   3.268   3.068 -1.5375 -0.2244  0.6036
  120MOL   H11631294   2.363   3.296   2.896 -0.4893 -0.0022  0.2937
  120MOL   H11731295   2.249   3.379   2.796  0.8854 -0.5241 -0.2015
  120MOL   H11831296   2.298   3.458   2.954  0.7081  0.7760 -0.3270
  120MOL   C11931297   1.820   3.334   3.014 -0.1756  0.1692 -0.3013
  120MOL   C12031298   1.815   3.246   2.883 -0.1455  0.6855  1.0693
  120MOL   O12131299   1.693   3.277   2.817 -0.0630  0.3274  0.0510
  120MOL   C12231300   1.693   3.383   2.718 -0.8028 -0.5003 -1.1147
  120MOL   C12331301   1.553   3.449   2.693  0.3371  0.0676  0.1359
  120MOL   H12431302   1.798   3.435   2.981 -2.2134 -0.4725 -0.9652
  120MOL   H12531303   1.743   3.314   3.088  1.4358  0.5424  1.5031
  120MOL   H12631304   1.894   3.260   2.809  0.2693 -0.5864  1.2527
  120MOL   H12731305   1.747   3.344   2.631  2.3556 -1.4505  1.1728
  120MOL   H12831306   1.769   3.452   2.754 -0.8498  0.3374 -2.5951
  120MOL   H12931307   1.549   3.527   2.617  0.2483  0.5735  0.6569
  120MOL   H13031308   1.477   3.377   2.661 -1.0933  1.0726  1.2280
  120MOL   H13131309   1.515   3.491   2.786 -1.0876 -0.2509 -0.2970
  120MOL   C13231310   1.791   3.096   2.920 -0.9783 -0.9185 -0.2352
  120MOL   C13331311   1.806   2.981   2.812  1.2162  0.1144 -0.8616
  120MOL   O13431312   1.761   2.862   2.866  0.1195 -0.3364  0.2463
  120MOL   C13531313   1.623   2.841   2.835 -0.1058  0.1586 -0.0047
  120MOL   C13631314   1.569   2.718   2.915 -0.0888 -0.8596 -0.3874
  120MOL   H13731315   1.691   3.101   2.964 -0.9996  0.3272 -0.4228
  120MOL   H13831316   1.869   3.079   2.995 -0.3854  0.7957 -0.4539
  120MOL   H13931317   1.750   3.005   2.722 -1.9490 -1.5953  0.6052
  120MOL   H14031318   1.616   2.822   2.728 -1.4395 -0.8829  0.2495
  120MOL   H14131319   1.557   2.925   2.853 -0.7212 -0.3029 -0.0926
  120MOL   H14231320   1.537   2.752   3.014  0.6195  1.4992 -0.9331
  120MOL   H14331321   1.477   2.676   2.874 -0.8605  1.4699 -1.0850
  120MOL   H14431322   1.651   2.646   2.911  1.2536  0.6123  0.1127
  120MOL   C14531323   1.957   2.949   2.794 -0.5065  0.3515  0.5497
  120MOL   C14631324   1.980   2.877   2.667  0.1171 -0.0902 -0.2890
  120MOL   O14731325   2.119   2.849   2.680 -0.0328  0.1852  0.2491
  120MOL   C14831326   2.148   2.717   2.724 -0.2670 -0.0982  0.8010
  120MOL   C14931327   2.301   2.691   2.720  0.7878 -0.0836  0.0942
  120MOL   H15031328   1.986   2.888   2.879  2.3377 -0.4289 -0.9005
  120MOL   H15131329   2.011   3.044   2.800 -1.6695  0.8754  3.5778
  120MOL   H15231330   1.916   2.789   2.672  0.6125 -0.3879  1.0027
  120MOL   H15331331   2.103   2.639   2.662 -2.2206 -0.3793  2.4959
  120MOL   H15431332   2.122   2.704   2.829  2.2510  0.8553  1.5937
  120MOL   H15531333   2.358   2.758   2.784  1.6522  0.4666 -1.2326
  120MOL   H15631334   2.319   2.592   2.761 -0.5449 -0.7227 -0.8199
  120MOL   H15731335   2.356   2.693   2.626  3.0775  0.9086  1.4293
  120MOL   C15831336   1.956   2.964   2.544  0.4026  0.2216 -0.4054
  120MOL   C15931337   2.011   2.894   2.420  0.7027  0.0485 -0.4201
  120MOL   O16031338   2.131   2.958   2.400 -0.4629  0.1600  0.2801
  120MOL   C16131339   2.237   2.882   2.345 -0.0641  0.3570  0.3423
  120MOL   C16231340   2.358   2.914   2.442  0.0416 -0.1052  0.3587
  120MOL   H16331341   2.002   3.062   2.554 -0.1560  0.3450  1.0158
  120MOL   H16431342   1.853   2.992   2.525  0.3437 -0.6399 -1.4099
  120MOL   H16531343   2.023   2.787   2.437  0.7400  0.0775 -0.2587
  120MOL   H16631344   2.267   2.917   2.246 -2.8022  2.3894  0.1648
  120MOL   H16731345   2.226   2.773   2.347  3.8428 -0.1078  0.0360
  120MOL   H16831346   2.387   3.019   2.434  0.7548 -0.4877 -2.8819
  120MOL   H16931347   2.337   2.892   2.546  1.6265 -0.4056  0.6218
  120MOL   H17031348   2.445   2.862   2.401 -1.0671 -0.1301 -2.0805
  120MOL   C17131349   1.928   2.914   2.290  0.6849 -0.2499  0.2839
  120MOL   C17231350   1.793   2.842   2.263  0.1808  0.1233  0.1748
  120MOL   O17331351   1.704   2.914   2.344 -0.0741 -0.1623 -0.1799
  120MOL   C17431352   1.566   2.906   2.299  0.4428  0.0968 -0.0970
  120MOL   C17531353   1.472   2.982   2.383 -0.4802  0.1451 -0.3598
  120MOL   H17631354   1.996   2.890   2.207 -0.6536 -2.3605 -0.2463
  120MOL   H17731355   1.913   3.019   2.267 -1.6646 -0.2186  1.8224
  120MOL   H17831356   1.780   2.861   2.156 -1.1035 -3.3552 -0.3623
  120MOL   H17931357   1.541   2.801   2.313  1.7999 -0.4225 -1.3940
  120MOL   H18031358   1.561   2.940   2.196  0.6726  0.6038  0.0576
  120MOL   H18131359   1.453   2.935   2.479 -0.8731 -1.4721 -1.2051
  120MOL   H18231360   1.523   3.078   2.396 -0.9752  0.6050 -1.7006
  120MOL   H18331361   1.384   2.995   2.319  0.5602 -1.5376 -2.1904
  120MOL   C18431362   1.792   2.697   2.305  0.1441  0.5639 -0.5201
  120MOL   C18531363   1.892   2.607   2.228 -0.0987 -0.5142  0.0193
  120MOL   O18631364   1.846   2.595   2.093  0.2835 -0.1015  0.5345
  120MOL   C18731365   1.945   2.602   1.990 -0.5288 -0.6143 -0.7688
  120MOL   C18831366   1.908   2.709   1.891 -0.1837  0.1178 -0.0614
  120MOL   H18931367   1.693   2.652   2.292  1.5228 -2.0709 -2.5669
  120MOL   H19031368   1.816   2.698   2.411  0.4622  1.8114 -0.5942
  120MOL   H19131369   1.989   2.657   2.228 -2.1953  3.7900 -1.0102
  120MOL   H19231370   1.942   2.511   1.931  1.5705 -0.5588 -0.9734
  120MOL   H19331371   2.045   2.629   2.023 -1.6784  2.4929  0.3906
  120MOL   H19431372   1.905   2.810   1.932 -0.7104  0.6701 -1.4462
  120MOL   H19531373   1.976   2.720   1.806 -0.1139 -0.1568 -0.0426
  120MOL   H19631374   1.809   2.698   1.848  0.0987  1.5867 -1.1427
  120MOL   C19731375   1.892   2.468   2.287 -0.6177 -0.3506 -0.4228
  120MOL   C19831376   2.008   2.373   2.241  0.3913  0.1962 -0.1630
  120MOL   O19931377   2.003   2.239   2.298  0.3209 -0.4773  0.6064
  120MOL   C20031378   1.900   2.169   2.236  0.3194  0.2892  0.1376
  120MOL   C20131379   1.869   2.036   2.303  0.0857  0.2332 -0.2092
  120MOL   H20231380   1.794   2.435   2.255 -0.7491  0.4889 -0.8986
  120MOL   H20331381   1.891   2.475   2.396  2.5153  0.4161 -0.3821
  120MOL   H20431382   2.002   2.369   2.133  3.2221  0.5012 -0.3639
  120MOL   H20531383   1.921   2.150   2.131  0.7940  1.1101  0.0864
  120MOL   H20631384   1.804   2.222   2.235 -0.5216 -1.1984  0.6290
  120MOL   H20731385   1.785   1.983   2.258  0.3708 -0.6180  0.2561
  120MOL   H20831386   1.957   1.972   2.292 -1.1735 -1.3471 -1.3520
  120MOL   H20931387   1.852   2.038   2.411 -1.1015  1.5934 -0.4024
  120MOL   C21031388   2.150   2.426   2.302  0.4418  0.7757 -0.4208
  120MOL   C21131389   2.269   2.344   2.250 -0.5786  0.0834 -0.1687
  120MOL   O21231390   2.380   2.423   2.294 -0.4642 -0.3398 -0.2551
  120MOL   C21331391   2.454   2.378   2.407 -0.5875 -0.2369  0.0894
  120MOL   C21431392   2.545   2.494   2.448 -0.2811  1.0387  0.7266
  120MOL   H21531393   2.155   2.429   2.411 -1.7194  1.2508 -0.2976
  120MOL   H21631394   2.148   2.530   2.270 -4.9571  0.7851 -0.6032
  120MOL   H21731395   2.277   2.243   2.290 -0.5744 -0.9142 -2.6023
  120MOL   H21831396   2.512   2.287   2.388 -1.0545 -0.6374  0.5662
  120MOL   H21931397   2.385   2.356   2.489  0.9760 -0.5725  1.3529
  120MOL   H22031398   2.495   2.585   2.481 -0.1304  1.2014  0.5066
  120MOL   H22131399   2.614   2.466   2.527  1.1662  2.4745 -0.0083
  120MOL   H22231400   2.613   2.527   2.369  1.3179  0.5953  1.9044
  120MOL   C22331401   2.289   2.337   2.098  0.4752  0.5005  0.1837
  120MOL   C22431402   2.235   2.202   2.033 -0.4033  0.0178 -0.3028
  120MOL   O22531403   2.322   2.095   2.069  0.8688 -0.7848 -0.2035
  120MOL   C22631404   2.261   1.988   2.140  0.1981 -1.2331 -0.4559
  120MOL   C22731405   2.383   1.892   2.159  0.6077 -0.9192 -0.0115
  120MOL   H22831406   2.395   2.342   2.075  0.3688  2.6468  0.0563
  120MOL   H22931407   2.241   2.424   2.055  0.4848 -0.1699 -1.2051
  120MOL   H23031408   2.134   2.180   2.069 -0.9906 -0.3536 -2.1515
  120MOL   H23131409   2.183   1.956   2.071 -0.3716 -1.6745  0.3798
  120MOL   H23231410   2.223   2.023   2.237  0.3170  0.2627 -0.9262
  120MOL   H23331411   2.421   1.866   2.061 -0.3689  0.4668 -0.7834
  120MOL   H23431412   2.459   1.938   2.221  0.8384 -1.0397 -0.2049
  120MOL   H23531413   2.351   1.803   2.214 -0.7853  0.5091  1.5408
  120MOL   C23631414   2.239   2.218   1.882  0.1476 -0.0272  0.5467
  120MOL   C23731415   2.163   2.111   1.803 -0.1690  0.2319  0.2263
  120MOL   O23831416   2.186   2.126   1.664  0.7643  0.1316  0.2534
  120MOL   C23931417   2.288   2.044   1.611 -0.1177 -0.3659 -0.0131
  120MOL   C24031418   2.277   2.071   1.462 -0.2322  0.1032  0.0543
  120MOL   H24131419   2.342   2.211   1.847  0.4559  4.6846  0.3110
  120MOL   H24231420   2.202   2.317   1.857 -1.5935 -0.7167  0.2869
  120MOL   H24331421   2.210   2.017   1.834  1.3064  0.8886  0.0296
  120MOL   H24431422   2.271   1.943   1.649  2.4505 -1.0495 -0.5975
  120MOL   H24531423   2.389   2.077   1.638 -0.5549  0.6537  0.3952
  120MOL   H24631424   2.368   2.039   1.412 -0.5698 -0.3620 -0.2596
  120MOL   H24731425   2.185   2.037   1.414 -0.1475 -0.2534  0.1418
  120MOL   H24831426   2.273   2.177   1.438 -0.6588  0.0495 -0.1282
  120MOL   C24931427   2.005   2.105   1.827  0.2781 -0.2786  0.3034
  120MOL   C25031428   1.931   2.242   1.836  0.2056  0.1126 -0.3865
  120MOL   O25131429   1.797   2.221   1.810  0.0497  0.0685  0.0961
  120MOL   C25231430   1.709   2.326   1.770  0.4287 -0.4121 -0.0404
  120MOL   C25331431   1.564   2.301   1.769  0.3423  1.0686  0.0262
  120MOL   H25431432   1.988   2.052   1.921 -2.5804  0.1059  0.0337
  120MOL   H25531433   1.963   2.048   1.744  0.0805 -1.0704  0.9414
  120MOL   H25631434   1.934   2.295   1.931 -0.0079 -1.9750  0.8239
  120MOL   H25731435   1.740   2.370   1.675  0.6083 -2.6966 -1.0500
  120MOL   H25831436   1.723   2.403   1.847  0.8610 -1.6438  1.1197
  120MOL   H25931437   1.508   2.394   1.779 -0.6950  0.3679  0.9511
  120MOL   H26031438   1.545   2.257   1.670  0.8484  0.6284  0.1241
  120MOL   H26131439   1.536   2.232   1.849  1.7856  0.5481  0.0895
  120MOL   H26231440   1.973   2.301   1.755 -0.8471 -1.5270 -2.1756
  121MOL     C131441   5.608   5.877   4.679 -0.2722  0.2836  0.7427
  121MOL     C231442   5.676   5.983   4.772 -0.4927 -0.3148  0.0397
  121MOL     O331443   5.634   5.947   4.909  0.1722 -0.2137  0.1362
  121MOL     C431444   5.733   5.988   5.003  0.3551  0.7271 -0.6038
  121MOL     C531445   5.701   5.903   5.127  0.0632 -0.5738 -0.2634
  121MOL     H631446   5.664   5.783   4.675  1.1466  1.0909  1.1667
  121MOL     H731447   5.507   5.853   4.712 -0.2765  0.0609  0.5698
  121MOL     H831448   5.781   5.970   4.747 -0.7379 -0.3646 -0.9698
  121MOL     H931449   5.708   6.090   5.031 -0.5166  0.1498  0.7809
  121MOL    H1031450   5.839   5.985   4.977  0.7838 -0.1891  1.1568
  121MOL    H1131451   5.736   5.805   5.094  1.7308  0.5957 -2.1674
  121MOL    H1231452   5.748   5.942   5.217  1.3986 -2.1331 -0.2567
  121MOL    H1331453   5.595   5.895   5.148 -0.1502  1.9910 -0.2249
  121MOL    H1431454   5.600   5.911   4.576  2.0282  2.4245  1.2205
  121MOL    C1531455   5.630   6.126   4.745  0.3510  0.0589  0.0928
  121MOL    C1631456   5.671   6.200   4.612 -0.3683 -0.4612  0.4083
  121MOL    O1731457   5.587   6.172   4.499 -0.2174 -0.0958 -0.4606
  121MOL    C1831458   5.468   6.248   4.493 -0.3223 -0.5650 -0.2381
  121MOL    C1931459   5.369   6.173   4.410 -0.0168  0.7479 -0.2482
  121MOL    H2031460   5.657   6.191   4.829  0.0373  0.5936 -0.2183
  121MOL    H2131461   5.521   6.129   4.752  0.2079 -0.1367 -1.8587
  121MOL    H2231462   5.666   6.304   4.644  3.0146 -0.3561  0.7807
  121MOL    H2331463   5.482   6.346   4.448  0.1492 -1.8076 -2.8910
  121MOL    H2431464   5.429   6.281   4.590  0.4465 -0.7093  0.1252
  121MOL    H2531465   5.283   6.239   4.394  0.7211  1.3831 -1.6767
  121MOL    H2631466   5.330   6.083   4.457  3.2299 -0.7611 -0.3749
  121MOL    H2731467   5.416   6.146   4.316 -0.3763  1.4192 -0.6286
  121MOL    C2831468   5.819   6.185   4.574 -0.6013 -0.7625  0.2111
  121MOL    C2931469   5.906   6.252   4.689 -0.0599  0.2475 -0.4068
  121MOL    O3031470   5.866   6.386   4.713 -0.2276  0.2242  0.0988
  121MOL    C3131471   5.886   6.437   4.843  0.0684 -0.3427 -0.4989
  121MOL    C3231472   5.834   6.583   4.858 -0.3282 -0.0543 -0.0418
  121MOL    H3331473   5.836   6.242   4.483  0.3699  0.8679  1.4032
  121MOL    H3431474   5.851   6.081   4.563  0.6438 -0.3575 -0.1067
  121MOL    H3531475   5.895   6.192   4.779 -0.3769 -0.4718 -0.9225
  121MOL    H3631476   5.995   6.437   4.855  0.1970  0.3065 -1.6559
  121MOL    H3731477   5.847   6.368   4.918  0.1065 -1.6201 -1.6421
  121MOL    H3831478   5.904   6.644   4.801 -1.9681 -0.1893 -2.2762
  121MOL    H3931479   5.739   6.590   4.805 -1.7366 -0.0732  2.3954
  121MOL    H4031480   5.825   6.625   4.958 -0.9035 -1.6938  0.6195
  121MOL    C4131481   6.057   6.267   4.643 -0.3247  0.0135 -0.1558
  121MOL    C4231482   6.123   6.130   4.618  0.7965  0.3093  0.5864
  121MOL    O4331483   6.176   6.080   4.737  0.1664 -0.0481  0.3138
  121MOL    C4431484   6.157   5.942   4.757 -0.1530 -0.3339 -0.6700
  121MOL    C4531485   6.202   5.910   4.892 -0.3201  0.1820 -0.3580
  121MOL    H4631486   6.117   6.338   4.700 -0.1721  0.3762 -0.7676
  121MOL    H4731487   6.061   6.314   4.545  1.1904  1.4501  0.5834
  121MOL    H4831488   6.055   6.055   4.577  0.0366  1.3622 -0.1144
  121MOL    H4931489   6.222   5.894   4.684  0.2104 -0.4613 -0.2691
  121MOL    H5031490   6.059   5.900   4.740 -0.6090  0.8988 -1.1689
  121MOL    H5131491   6.199   5.804   4.916  0.2071 -0.1113 -1.5596
  121MOL    H5231492   6.304   5.945   4.908 -0.5713  1.6330 -1.8062
  121MOL    H5331493   6.139   5.960   4.966  0.8212  0.6005  0.3456
  121MOL    C5431494   6.251   6.161   4.525 -0.7998  1.7318 -0.1992
  121MOL    C5531495   6.226   6.181   4.370  0.0692 -0.1423  0.6194
  121MOL    O5631496   6.237   6.060   4.301 -0.2857 -1.1657  0.1381
  121MOL    C5731497   6.151   5.954   4.329 -0.2081 -0.5881 -0.2415
  121MOL    C5831498   6.187   5.838   4.240  0.2602  0.2876 -0.1005
  121MOL    H5931499   6.326   6.082   4.535 -1.0380  1.3371 -1.4503
  121MOL    H6031500   6.304   6.246   4.568 -0.4879  0.7546  1.4272
  121MOL    H6131501   6.128   6.220   4.340  0.5688  0.1588 -0.6785
  121MOL    H6231502   6.050   5.984   4.302 -0.4794 -1.2072  0.0859
  121MOL    H6331503   6.162   5.933   4.436 -1.1050 -4.7033 -0.8934
  121MOL    H6431504   6.274   5.777   4.265 -0.7712 -1.0723  0.2616
  121MOL    H6531505   6.119   5.752   4.238  3.4357 -2.3392  0.5314
  121MOL    H6631506   6.182   5.886   4.142 -0.5865  0.7583  0.1638
  121MOL    C6731507   6.343   6.265   4.314  0.4328 -0.7505  0.2537
  121MOL    C6831508   6.333   6.317   4.174  0.0771  0.3386 -0.5788
  121MOL    O6931509   6.456   6.370   4.122 -0.5803  0.8428  0.0684
  121MOL    C7031510   6.565   6.290   4.068  0.1259 -0.1165 -0.0599
  121MOL    C7131511   6.630   6.381   3.969 -0.3063 -0.3067 -0.2676
  121MOL    H7231512   6.433   6.204   4.330  0.2717 -0.9512  0.3973
  121MOL    H7331513   6.359   6.350   4.380  1.0174  1.0065 -2.0919
  121MOL    H7431514   6.316   6.230   4.112  0.2856 -0.2779  0.2151
  121MOL    H7531515   6.536   6.191   4.034  1.3900 -0.3706 -0.4185
  121MOL    H7631516   6.642   6.279   4.144  3.0892  0.1308 -2.9206
  121MOL    H7731517   6.719   6.335   3.926  0.6994 -0.0610  1.4832
  121MOL    H7831518   6.562   6.412   3.890 -0.6037 -2.0536 -0.6980
  121MOL    H7931519   6.660   6.474   4.019 -2.1282 -0.2989  0.8453
  121MOL    C8031520   6.239   6.430   4.156  0.6669  0.4380  0.3070
  121MOL    C8131521   6.204   6.457   4.008  0.3189  0.9225  0.0534
  121MOL    O8231522   6.182   6.600   4.008  0.0931 -0.5475  0.0325
  121MOL    C8331523   6.304   6.675   3.989 -0.0138  0.2810 -0.4683
  121MOL    C8431524   6.269   6.826   4.011  0.5614  0.0847 -0.4918
  121MOL    H8531525   6.267   6.521   4.208  0.6415 -0.1520  1.3617
  121MOL    H8631526   6.150   6.410   4.216 -0.1612 -0.2350 -1.1009
  121MOL    H8731527   6.280   6.437   3.932  0.4187 -1.2682  0.7005
  121MOL    H8831528   6.346   6.669   3.889 -2.0931  1.7006 -1.4685
  121MOL    H8931529   6.379   6.645   4.062 -1.3054  1.0699  1.2276
  121MOL    H9031530   6.209   6.858   3.926 -2.2248  0.6531  1.6011
  121MOL    H9131531   6.208   6.840   4.101 -0.7652 -0.1984 -1.3352
  121MOL    H9231532   6.359   6.885   4.025  0.6384 -0.2607  0.5528
  121MOL    C9331533   6.063   6.411   3.975 -0.7634 -0.0702  0.4158
  121MOL    C9431534   6.038   6.265   3.926  1.2425 -0.7643  0.5609
  121MOL    O9531535   6.122   6.238   3.812 -0.2776 -0.1463 -0.2515
  121MOL    C9631536   6.143   6.098   3.782  0.5602  0.1068 -0.4610
  121MOL    C9731537   6.268   6.074   3.696  0.1421 -0.0606  0.3587
  121MOL    H9831538   6.016   6.475   3.900 -1.6474  0.5387  1.4731
  121MOL    H9931539   6.002   6.444   4.059 -1.3158 -1.0819  0.4136
  121MOL   H10031540   6.074   6.200   4.006 -0.9331 -1.0691  1.3135
  121MOL   H10131541   6.059   6.069   3.719  0.0847 -0.3059  0.3534
  121MOL   H10231542   6.147   6.043   3.877  0.8672  1.3750  0.2710
  121MOL   H10331543   6.366   6.095   3.738  0.5368  1.0117 -1.0738
  121MOL   H10431544   6.269   5.975   3.649  1.0866 -0.2807  0.8175
  121MOL   H10531545   6.260   6.137   3.608  3.0540 -0.8037 -0.5018
  121MOL   C10631546   5.892   6.243   3.883 -0.1208  0.0393 -0.3589
  121MOL   C10731547   5.788   6.238   3.997 -0.0785 -0.6272 -0.6420
  121MOL   O10831548   5.803   6.112   4.060  0.1605  0.2134 -0.5153
  121MOL   C10931549   5.764   6.105   4.199 -0.4037  0.0655  0.2506
  121MOL   C11031550   5.725   5.970   4.262 -0.4093 -0.6729 -0.2643
  121MOL   H11131551   5.895   6.153   3.820  0.1009  0.3286 -0.7679
  121MOL   H11231552   5.861   6.324   3.817 -1.0457 -2.8438 -3.5971
  121MOL   H11331553   5.809   6.328   4.054  1.2181 -1.3625  0.0522
  121MOL   H11431554   5.688   6.181   4.214 -1.6107 -0.0972 -4.3518
  121MOL   H11531555   5.849   6.150   4.251 -0.7274 -0.4739  1.2553
  121MOL   H11631556   5.640   5.914   4.223  0.2189  0.4960 -3.4959
  121MOL   H11731557   5.805   5.897   4.259 -0.3062 -0.4971 -3.3193
  121MOL   H11831558   5.707   5.996   4.366 -4.0107  0.3067 -1.0702
  121MOL   C11931559   5.643   6.233   3.939 -0.0982  0.2196  0.1396
  121MOL   C12031560   5.588   6.361   3.879  0.1984 -0.4001 -0.2703
  121MOL   O12131561   5.465   6.382   3.939 -0.0494  0.5854 -0.7084
  121MOL   C12231562   5.471   6.504   4.012 -0.4601 -0.7336 -0.5820
  121MOL   C12331563   5.343   6.543   4.076  0.6554 -0.3350  0.4189
  121MOL   H12431564   5.575   6.197   4.016  0.7787 -0.4918  0.5903
  121MOL   H12531565   5.634   6.149   3.869  2.1806  1.2613 -1.4849
  121MOL   H12631566   5.657   6.441   3.903 -0.8934  0.1012  1.2484
  121MOL   H12731567   5.488   6.595   3.954  0.3394 -0.7747 -0.4179
  121MOL   H12831568   5.549   6.501   4.088 -0.0227 -2.1048 -1.0662
  121MOL   H12931569   5.349   6.644   4.118  1.2177 -0.0289 -0.3886
  121MOL   H13031570   5.267   6.553   3.999  0.0873  0.7299  1.0962
  121MOL   H13131571   5.301   6.471   4.146 -1.9790  0.4422 -0.2994
  121MOL   C13231572   5.556   6.360   3.727  0.1627 -0.6954 -0.4319
  121MOL   C13331573   5.497   6.498   3.666  0.4159  0.6617 -0.7314
  121MOL   O13431574   5.433   6.468   3.544 -0.2982  0.0035 -0.2754
  121MOL   C13531575   5.314   6.388   3.543  0.3631 -0.2723 -0.1275
  121MOL   C13631576   5.240   6.416   3.404  0.0852 -0.7676 -0.1184
  121MOL   H13731577   5.499   6.268   3.711  0.4525 -0.9201 -0.1737
  121MOL   H13831578   5.654   6.341   3.682 -0.3834 -0.5636 -1.6851
  121MOL   H13931579   5.425   6.546   3.732  1.0242 -0.8945  1.1138
  121MOL   H14031580   5.243   6.420   3.619 -0.7000 -3.3030  0.2429
  121MOL   H14131581   5.332   6.283   3.567 -0.3690 -0.7944 -1.7925
  121MOL   H14231582   5.305   6.401   3.318 -1.0292  1.6155 -1.4376
  121MOL   H14331583   5.150   6.354   3.403 -0.6305  0.2507 -0.1034
  121MOL   H14431584   5.208   6.520   3.398 -0.6294 -0.9632  0.1421
  121MOL   C14531585   5.594   6.613   3.639 -0.8024 -0.4725  0.4680
  121MOL   C14631586   5.696   6.585   3.532 -0.5688  0.0627  0.0279
  121MOL   O14731587   5.824   6.645   3.568  0.3397 -0.1536 -0.2893
  121MOL   C14831588   5.902   6.558   3.645  0.9496  0.1127 -0.0011
  121MOL   C14931589   6.044   6.614   3.638 -0.4182 -0.4006 -0.5669
  121MOL   H15031590   5.647   6.648   3.728  1.4906 -2.3665 -0.0893
  121MOL   H15131591   5.531   6.698   3.615 -1.0524 -0.2352  1.9431
  121MOL   H15231592   5.700   6.478   3.509 -1.2056  0.5828 -2.6409
  121MOL   H15331593   5.900   6.460   3.599  1.2569  0.6132 -1.0998
  121MOL   H15431594   5.857   6.555   3.745 -0.8487 -0.2816 -0.7983
  121MOL   H15531595   6.075   6.631   3.535  0.5280 -0.1730 -0.2466
  121MOL   H15631596   6.067   6.707   3.691 -1.8464  0.6969 -1.8095
  121MOL   H15731597   6.115   6.540   3.672 -1.3693 -0.5624  1.1506
  121MOL   C15831598   5.644   6.655   3.397 -0.4406  0.4463  1.0259
  121MOL   C15931599   5.692   6.598   3.264  0.4449  0.4879  0.3242
  121MOL   O16031600   5.694   6.708   3.173 -0.4842 -0.2020  0.1477
  121MOL   C16131601   5.815   6.785   3.179  0.6631 -0.3130  0.5936
  121MOL   C16231602   5.800   6.911   3.091 -0.3237 -0.3550  0.8634
  121MOL   H16331603   5.648   6.764   3.402  2.7385  0.5618 -1.8889
  121MOL   H16431604   5.536   6.636   3.390 -0.0549 -1.4841  0.0118
  121MOL   H16531605   5.793   6.564   3.287 -0.6800 -2.0639  1.6361
  121MOL   H16631606   5.898   6.737   3.128  1.8435  2.4368 -0.1556
  121MOL   H16731607   5.839   6.808   3.283  0.1206 -3.4314  1.4846
  121MOL   H16831608   5.885   6.975   3.116 -1.0619  1.2234 -0.6030
  121MOL   H16931609   5.800   6.880   2.987 -1.1396 -0.9946  1.0538
  121MOL   H17031610   5.707   6.965   3.108 -0.9195 -0.8639 -0.7614
  121MOL   C17131611   5.600   6.481   3.217  0.3681  0.2368 -0.0748
  121MOL   C17231612   5.667   6.385   3.120  0.3102 -0.4420  0.1230
  121MOL   O17331613   5.706   6.455   3.004  0.3289 -0.5335 -0.2472
  121MOL   C17431614   5.849   6.461   2.993  0.3034  0.2793 -0.2882
  121MOL   C17531615   5.877   6.558   2.875  0.3742 -0.9359  0.3924
  121MOL   H17631616   5.508   6.521   3.175  0.6613  0.9685 -0.0401
  121MOL   H17731617   5.576   6.426   3.308  1.3465  0.7604  0.5097
  121MOL   H17831618   5.750   6.337   3.172  1.3132  0.8991 -0.1962
  121MOL   H17931619   5.887   6.359   2.982 -1.1937 -0.4055  0.5907
  121MOL   H18031620   5.911   6.493   3.075  0.5567  1.4567 -0.9317
  121MOL   H18131621   5.813   6.546   2.788 -0.4916 -0.3114  0.9410
  121MOL   H18231622   5.864   6.661   2.908 -0.3998 -0.9585  0.1610
  121MOL   H18331623   5.983   6.550   2.852  0.8886  0.0577  2.2584
  121MOL   C18431624   5.570   6.276   3.070 -0.5101  0.1662  0.4825
  121MOL   C18531625   5.517   6.180   3.181 -0.1431 -0.5441  0.1770
  121MOL   O18631626   5.629   6.115   3.243  0.2959 -0.1570  0.0440
  121MOL   C18731627   5.657   6.148   3.383  0.4084 -0.2341 -0.1503
  121MOL   C18831628   5.784   6.076   3.437  0.4763 -0.2252  0.9523
  121MOL   H18931629   5.623   6.203   3.010 -2.2567 -1.3100  0.6662
  121MOL   H19031630   5.489   6.312   3.006 -0.0207 -0.7639 -0.6740
  121MOL   H19131631   5.466   6.230   3.263 -1.1746  0.0784 -0.8318
  121MOL   H19231632   5.564   6.112   3.426  0.7729 -3.2154 -1.7540
  121MOL   H19331633   5.678   6.255   3.388  3.1336 -0.7419  0.3950
  121MOL   H19431634   5.788   6.101   3.543 -0.1806  1.2234  0.6548
  121MOL   H19531635   5.789   5.969   3.416  2.4251  0.2757 -1.4106
  121MOL   H19631636   5.870   6.119   3.386 -0.2212  0.7973  0.6036
  121MOL   C19731637   5.431   6.082   3.113 -0.7981  0.1822 -0.4326
  121MOL   C19831638   5.344   5.988   3.201 -0.2974 -0.0074 -0.0786
  121MOL   O19931639   5.333   5.868   3.130  0.6734 -0.3233  0.1116
  121MOL   C20031640   5.438   5.775   3.132  0.1306 -0.4879 -0.1857
  121MOL   C20131641   5.405   5.695   3.011 -0.1475 -0.8197 -0.0095
  121MOL   H20231642   5.480   6.025   3.034 -1.8477 -1.3553  0.0040
  121MOL   H20331643   5.357   6.147   3.066 -0.1016  2.8869  2.0559
  121MOL   H20431644   5.377   5.985   3.305 -1.2573  0.5382  0.2535
  121MOL   H20531645   5.441   5.721   3.227  1.3034 -0.3370 -0.1357
  121MOL   H20631646   5.534   5.825   3.123  0.1794 -0.7579 -1.2374
  121MOL   H20731647   5.499   5.647   2.983  0.4097 -0.0094  0.4681
  121MOL   H20831648   5.331   5.622   3.043 -1.6785  1.1850  1.1167
  121MOL   H20931649   5.373   5.763   2.933 -0.5073 -1.9408 -0.8580
  121MOL   C21031650   5.196   6.043   3.222 -0.3966  0.4480  0.0070
  121MOL   C21131651   5.097   5.943   3.276 -0.0793  0.5373  0.6835
  121MOL   O21231652   4.963   5.998   3.286 -0.1707 -0.2937 -0.1499
  121MOL   C21331653   4.898   6.040   3.163  0.1107 -0.2920 -0.0400
  121MOL   C21431654   4.756   5.984   3.188  0.1554 -0.3691 -0.5749
  121MOL   H21531655   5.158   6.073   3.124  2.3399 -0.1434 -1.3042
  121MOL   H21631656   5.184   6.129   3.287  0.6437  0.7018 -0.1240
  121MOL   H21731657   5.089   5.868   3.197 -0.0064  0.4257  0.7823
  121MOL   H21831658   4.933   6.003   3.067 -3.4812  0.3218 -1.6526
  121MOL   H21931659   4.897   6.149   3.160  1.8737 -0.1963  1.5988
  121MOL   H22031660   4.694   6.026   3.109  0.8200 -0.7113 -1.2756
  121MOL   H22131661   4.748   5.876   3.178  0.3311 -0.3198 -1.2308
  121MOL   H22231662   4.708   6.007   3.283  1.0358 -0.5618 -0.0826
  121MOL   C22331663   5.134   5.861   3.403 -0.1433 -0.4191 -0.2760
  121MOL   C22431664   5.126   5.946   3.533 -0.2158 -0.2570  0.0665
  121MOL   O22531665   5.212   5.902   3.637  0.0255  0.1305 -0.5787
  121MOL   C22631666   5.345   5.947   3.628  0.9506 -0.5786  0.3531
  121MOL   C22731667   5.407   5.939   3.770 -0.1075 -0.1161 -0.3948
  121MOL   H22831668   5.236   5.827   3.386  0.5094  1.5259 -0.4109
  121MOL   H22931669   5.073   5.771   3.409 -1.4165  0.5147  1.2502
  121MOL   H23031670   5.147   6.044   3.491  0.3713 -1.4685 -2.6061
  121MOL   H23131671   5.348   6.049   3.589  0.5286 -1.2388 -1.4154
  121MOL   H23231672   5.390   5.884   3.552  0.3424  2.4654 -2.6623
  121MOL   H23331673   5.510   5.975   3.772 -0.5348  1.1276 -0.4574
  121MOL   H23431674   5.351   6.006   3.836 -0.1727 -0.3769 -0.1833
  121MOL   H23531675   5.414   5.836   3.803 -0.1668 -0.2442 -0.7820
  121MOL   C23631676   4.982   5.962   3.602  0.4882 -0.2960 -0.6739
  121MOL   C23731677   4.951   6.104   3.662  0.1399  0.2598  0.2723
  121MOL   O23831678   4.957   6.194   3.550 -0.0219 -0.7856 -0.2069
  121MOL   C23931679   4.835   6.250   3.506 -0.1141 -0.2090  0.1116
  121MOL   C24031680   4.859   6.362   3.408  0.3445 -0.0765 -0.4128
  121MOL   H24131681   4.972   5.883   3.677 -1.1661 -0.8125 -1.4235
  121MOL   H24231682   4.905   5.945   3.527  0.7636  0.4904 -1.1338
  121MOL   H24331683   4.857   6.114   3.717  0.8232 -1.2824  1.7705
  121MOL   H24431684   4.775   6.294   3.586 -1.0863 -3.0330  1.0050
  121MOL   H24531685   4.773   6.179   3.452  0.3373 -1.1220  0.7877
  121MOL   H24631686   4.917   6.316   3.329  0.2360 -0.5994 -0.1904
  121MOL   H24731687   4.771   6.376   3.346  1.3774  2.1967 -1.4591
  121MOL   H24831688   4.910   6.451   3.447  0.1362 -0.8862  1.8098
  121MOL   C24931689   5.060   6.164   3.767  0.4627  0.0218 -0.2293
  121MOL   C25031690   5.012   6.281   3.844 -0.2605  0.1049  0.2278
  121MOL   O25131691   4.924   6.238   3.939 -0.0316 -0.0283  0.7821
  121MOL   C25231692   4.866   6.349   4.005  0.3640  0.2203  0.2304
  121MOL   C25331693   4.791   6.299   4.132  0.5180 -0.4389  0.0312
  121MOL   H25431694   5.150   6.187   3.710  1.2633  0.7048  1.2631
  121MOL   H25531695   5.097   6.085   3.832  2.8720  1.6326  0.4558
  121MOL   H25631696   5.098   6.325   3.895  1.8285 -2.0575 -1.3097
  121MOL   H25731697   4.788   6.387   3.939 -0.4679 -2.7848 -0.5898
  121MOL   H25831698   4.939   6.427   4.022  0.1193  0.2886  0.9765
  121MOL   H25931699   4.742   6.203   4.112  1.4201 -1.1347  1.0926
  121MOL   H26031700   4.870   6.272   4.202 -0.5783 -0.8222  1.1318
  121MOL   H26131701   4.725   6.368   4.185 -0.0666 -2.1371  1.6015
  121MOL   H26231702   4.962   6.346   3.773 -0.1502 -1.1566 -1.0120
  122MOL     C131703   1.563   6.047   5.954  0.1873  0.2834  0.6718
  122MOL     C231704   1.656   5.989   6.059 -0.9830 -0.0834 -0.4643
  122MOL     O331705   1.577   5.894   6.137  0.1212 -0.0900 -0.5437
  122MOL     C431706   1.590   5.758   6.102 -0.5097 -0.6171 -0.2493
  122MOL     C531707   1.514   5.667   6.194  0.5474 -0.4516 -0.5826
  122MOL     H631708   1.491   6.111   6.004 -0.0105  0.7672 -0.2111
  122MOL     H731709   1.612   6.090   5.866 -1.8919 -3.1100 -2.2849
  122MOL     H831710   1.745   5.944   6.015 -1.2752 -2.5258  1.3216
  122MOL     H931711   1.695   5.728   6.099  0.1534  1.2782  2.2118
  122MOL    H1031712   1.544   5.754   6.004  1.8386  0.5970 -1.4524
  122MOL    H1131713   1.531   5.564   6.162  1.7787 -0.0037 -1.4015
  122MOL    H1231714   1.555   5.666   6.295  1.1947  0.4149 -0.8312
  122MOL    H1331715   1.409   5.694   6.205  0.2594 -1.8956  0.3268
  122MOL    H1431716   1.497   5.969   5.915 -2.2811  2.2539  0.7952
  122MOL    C1531717   1.687   6.096   6.170  0.3747 -0.1404  0.1910
  122MOL    C1631718   1.766   6.050   6.301 -0.2852 -0.3149  0.9413
  122MOL    O1731719   1.801   6.170   6.376  0.5727 -0.3526 -0.1462
  122MOL    C1831720   1.703   6.205   6.470 -0.2184  0.1525 -0.4665
  122MOL    C1931721   1.742   6.330   6.547 -0.3867  0.4870 -0.8379
  122MOL    H2031722   1.592   6.139   6.203 -1.6334 -4.5663  0.5733
  122MOL    H2131723   1.739   6.182   6.129 -0.8190  1.2563  1.5449
  122MOL    H2231724   1.691   5.993   6.357  0.2157 -1.2343  0.6725
  122MOL    H2331725   1.685   6.125   6.542  2.2362 -0.1283 -0.0947
  122MOL    H2431726   1.611   6.215   6.413 -1.1961  0.3613  1.1086
  122MOL    H2531727   1.737   6.408   6.472 -1.4559 -0.7994 -2.1264
  122MOL    H2631728   1.845   6.320   6.583 -1.0602 -0.9115  0.7679
  122MOL    H2731729   1.682   6.354   6.635  0.3979  0.1758 -0.2062
  122MOL    C2831730   1.888   5.965   6.275 -0.3168 -0.7154 -0.2898
  122MOL    C2931731   1.931   5.902   6.409  0.1640  0.2171  0.4608
  122MOL    O3031732   2.069   5.875   6.396 -0.0289  0.1291 -0.0052
  122MOL    C3131733   2.152   5.888   6.509  0.4744  0.0882 -0.6420
  122MOL    C3231734   2.292   5.835   6.499 -0.3540  0.0722  0.6437
  122MOL    H3331735   1.965   6.035   6.241  0.2286 -0.8913  0.5624
  122MOL    H3431736   1.874   5.875   6.216 -3.3674 -0.7524  0.4224
  122MOL    H3531737   1.910   5.976   6.486  2.1783 -0.0777  1.3301
  122MOL    H3631738   2.110   5.841   6.598  1.8557  0.3360  0.1621
  122MOL    H3731739   2.149   5.994   6.537  3.8030  0.0329  0.1579
  122MOL    H3831740   2.287   5.734   6.458 -2.0572  0.3124  0.2274
  122MOL    H3931741   2.362   5.890   6.436  0.4090 -0.9035  0.6239
  122MOL    H4031742   2.338   5.819   6.597 -0.6237  2.2899  1.1682
  122MOL    C4131743   1.867   5.769   6.459 -0.3290  0.2788 -0.6481
  122MOL    C4231744   1.792   5.764   6.596 -0.0092  0.5440  0.7828
  122MOL    O4331745   1.884   5.812   6.690  0.0565  0.3762 -0.4392
  122MOL    C4431746   1.843   5.927   6.756 -0.2657 -0.2718  0.1978
  122MOL    C4531747   1.948   5.955   6.859 -0.2250  0.0116  0.6324
  122MOL    H4631748   1.939   5.687   6.453 -0.0157  0.3469  1.6536
  122MOL    H4731749   1.789   5.733   6.392 -2.5166 -1.1552  2.5696
  122MOL    H4831750   1.710   5.834   6.577  1.4417  1.7527 -1.2350
  122MOL    H4931751   1.747   5.916   6.806 -1.4253 -0.2093 -1.9576
  122MOL    H5031752   1.850   6.013   6.689  3.8835 -0.4349  0.2845
  122MOL    H5131753   1.983   5.857   6.892 -3.6221 -2.4325 -2.4951
  122MOL    H5231754   2.031   5.996   6.801 -0.9226  0.9063  0.2717
  122MOL    H5331755   1.925   6.025   6.938 -2.2382  1.3324 -1.0840
  122MOL    C5431756   1.740   5.623   6.621 -0.0982 -0.7739 -0.1984
  122MOL    C5531757   1.825   5.525   6.713  0.5975 -0.3667  0.4804
  122MOL    O5631758   1.943   5.486   6.636  0.3600 -0.6173 -0.2322
  122MOL    C5731759   2.072   5.507   6.696  0.5404 -0.2010 -0.3633
  122MOL    C5831760   2.178   5.481   6.590  0.4991 -0.3573 -0.2685
  122MOL    H5931761   1.724   5.570   6.528  1.4221  1.6684 -1.9109
  122MOL    H6031762   1.648   5.645   6.675  0.5186  1.5535 -0.0427
  122MOL    H6131763   1.867   5.562   6.807 -0.2570 -0.9559  1.1048
  122MOL    H6231764   2.080   5.433   6.775  1.0272  0.7896  0.5374
  122MOL    H6331765   2.078   5.609   6.735 -0.9596 -0.7282  1.3064
  122MOL    H6431766   2.275   5.516   6.625 -0.0375 -2.0780  3.2322
  122MOL    H6531767   2.192   5.379   6.552 -0.5855 -0.8691  0.6712
  122MOL    H6631768   2.149   5.549   6.510  0.8162  1.4544  1.1393
  122MOL    C6731769   1.761   5.386   6.741 -0.3559 -0.4865  0.4615
  122MOL    C6831770   1.638   5.370   6.829 -0.3594  0.1986  0.5170
  122MOL    O6931771   1.668   5.366   6.970  0.1810 -0.3822 -0.1983
  122MOL    C7031772   1.692   5.493   7.036 -0.5711 -0.1571 -0.2091
  122MOL    C7131773   1.570   5.536   7.122  0.4916  0.2780 -0.2437
  122MOL    H7231774   1.829   5.312   6.782  0.4220  0.3031  0.6167
  122MOL    H7331775   1.753   5.340   6.643  1.2148 -0.3542  0.2616
  122MOL    H7431776   1.569   5.453   6.816 -0.4611 -0.1816 -1.5952
  122MOL    H7531777   1.711   5.580   6.974 -1.2869 -0.0589 -0.2992
  122MOL    H7631778   1.779   5.478   7.100 -1.4444 -1.3420  0.7394
  122MOL    H7731779   1.529   5.460   7.188  1.7123 -0.2837 -0.1255
  122MOL    H7831780   1.605   5.611   7.194  0.4060 -1.1582  1.3100
  122MOL    H7931781   1.493   5.578   7.057  0.4914  1.4315  0.4930
  122MOL    C8031782   1.548   5.248   6.796 -0.5236  0.9465  0.6989
  122MOL    C8131783   1.429   5.224   6.891  0.2933 -0.0088  0.0767
  122MOL    O8231784   1.389   5.088   6.889  0.3973  0.2247 -0.1015
  122MOL    C8331785   1.446   5.006   7.002  0.0289  0.1453  0.3594
  122MOL    C8431786   1.387   4.860   7.006 -0.0898 -0.4125 -0.1641
  122MOL    H8531787   1.608   5.160   6.819  0.0834  0.7023 -1.7095
  122MOL    H8631788   1.510   5.235   6.695 -0.7432 -0.4144  0.9576
  122MOL    H8731789   1.466   5.239   6.993  1.8493 -1.5105 -0.2502
  122MOL    H8831790   1.422   5.062   7.093 -0.2576  0.8875 -0.1645
  122MOL    H8931791   1.554   4.994   7.004 -0.3502 -4.2621 -0.9056
  122MOL    H9031792   1.389   4.826   7.110  0.2894  0.7145  0.1991
  122MOL    H9131793   1.284   4.847   6.974  0.5917  0.1148 -2.6806
  122MOL    H9231794   1.439   4.794   6.937  0.1978  1.0228 -1.3273
  122MOL    C9331795   1.306   5.316   6.868  0.3649  0.0540  0.3514
  122MOL    C9431796   1.192   5.278   6.974  0.2406  0.8123 -0.5112
  122MOL    O9531797   1.064   5.329   6.937  0.4155  0.0416 -0.2058
  122MOL    C9631798   0.997   5.256   6.829 -0.4131  0.6072 -0.6577
  122MOL    C9731799   0.925   5.130   6.883 -0.2557  0.1626  0.3458
  122MOL    H9831800   1.266   5.309   6.767 -0.4256  0.1952  0.6554
  122MOL    H9931801   1.340   5.419   6.861  1.5948 -0.3973 -0.7038
  122MOL   H10031802   1.181   5.170   6.985 -3.3118  1.0846 -0.8063
  122MOL   H10131803   1.071   5.227   6.754 -0.4583 -2.6606  0.4971
  122MOL   H10231804   0.935   5.321   6.766 -1.2364  0.9783  0.5233
  122MOL   H10331805   0.849   5.151   6.958  0.1405  2.7421  0.0650
  122MOL   H10431806   0.880   5.072   6.802  0.2862 -2.0447  1.5948
  122MOL   H10531807   1.000   5.066   6.929  2.1182  1.0165 -2.2332
  122MOL   C10631808   1.222   5.350   7.102  0.3103 -0.1724  0.1800
  122MOL   C10731809   1.144   5.290   7.218 -0.0781 -0.3368 -0.2956
  122MOL   O10831810   1.126   5.381   7.329 -0.1618  0.0424  0.4637
  122MOL   C10931811   1.002   5.457   7.318  0.1619 -0.7840  1.0251
  122MOL   C11031812   0.998   5.557   7.440 -0.2215  0.3337 -0.7636
  122MOL   H11131813   1.187   5.452   7.083 -0.7423 -0.7628 -1.1510
  122MOL   H11231814   1.329   5.362   7.122  0.7000  0.0837 -1.9428
  122MOL   H11331815   1.044   5.261   7.186 -0.2832 -1.6990  1.4598
  122MOL   H11431816   0.915   5.392   7.312 -0.6782  0.5143 -2.0849
  122MOL   H11531817   1.001   5.519   7.228  1.6059  0.0077  1.5353
  122MOL   H11631818   1.022   5.519   7.539  1.3140  2.7080 -0.1780
  122MOL   H11731819   1.060   5.645   7.425 -0.1450  0.2844 -0.7409
  122MOL   H11831820   0.896   5.593   7.444 -0.6009 -0.3617 -3.2962
  122MOL   C11931821   1.202   5.171   7.273 -0.7508  0.2052 -0.4969
  122MOL   C12031822   1.119   5.094   7.382  0.0483 -1.0704  0.4251
  122MOL   O12131823   1.203   4.985   7.415 -0.1970 -0.3198  0.4106
  122MOL   C12231824   1.296   5.002   7.523  0.5158  0.0279 -0.2620
  122MOL   C12331825   1.384   4.874   7.523 -0.3296 -0.4616  0.2522
  122MOL   H12431826   1.301   5.195   7.311  0.3493 -0.3610 -2.8932
  122MOL   H12531827   1.230   5.103   7.192 -0.6239 -0.1785 -0.1279
  122MOL   H12631828   1.100   5.165   7.463  1.3934  2.3226 -2.1193
  122MOL   H12731829   1.244   5.026   7.616  1.2644 -4.3705  1.3989
  122MOL   H12831830   1.373   5.078   7.509  1.0911 -0.7201 -1.1872
  122MOL   H12931831   1.453   4.881   7.607  0.5177  0.7705 -0.5321
  122MOL   H13031832   1.333   4.779   7.538 -1.6888  0.1060 -0.6069
  122MOL   H13131833   1.434   4.857   7.428  1.2127  0.2757  0.9210
  122MOL   C13231834   0.986   5.033   7.336  0.7396  0.0473 -0.0428
  122MOL   C13331835   0.897   5.005   7.465 -0.5641 -0.7122 -0.1672
  122MOL   O13431836   0.845   4.876   7.468  0.1228 -0.4088 -0.1295
  122MOL   C13531837   0.951   4.781   7.495 -0.1881 -0.4198  0.4209
  122MOL   C13631838   0.896   4.645   7.533  0.1063  0.4986 -0.2060
  122MOL   H13731839   1.003   4.941   7.279 -0.7110 -0.0117 -0.3902
  122MOL   H13831840   0.931   5.104   7.274  0.2329  0.1354  0.5048
  122MOL   H13931841   0.961   5.023   7.551 -0.2096  2.5745 -1.0752
  122MOL   H14031842   1.027   4.810   7.567  1.4984  1.5006 -2.0399
  122MOL   H14131843   1.011   4.775   7.405 -0.1629  2.7619  0.1543
  122MOL   H14231844   0.826   4.618   7.455 -1.3146  0.9314  0.9040
  122MOL   H14331845   0.969   4.563   7.539 -0.2770  0.0705 -1.2924
  122MOL   H14431846   0.843   4.641   7.628  0.1734  5.8194  0.1954
  122MOL   C14531847   0.778   5.109   7.481  0.9066  0.1317  0.7728
  122MOL   C14631848   0.719   5.103   7.627 -0.8411  0.3072 -0.0133
  122MOL   O14731849   0.619   5.200   7.629 -0.3334 -0.1759  0.5500
  122MOL   C14831850   0.487   5.160   7.595  0.1507  0.2409 -0.2141
  122MOL   C14931851   0.396   5.287   7.609  0.2140  0.4639 -0.5429
  122MOL   H15031852   0.705   5.108   7.400 -1.0900  0.1919  2.5281
  122MOL   H15131853   0.824   5.207   7.472  0.3498  0.3921  0.7764
  122MOL   H15231854   0.687   4.999   7.635 -1.2611  0.4110 -0.3150
  122MOL   H15331855   0.455   5.091   7.674 -0.1573  0.0057 -0.5441
  122MOL   H15431856   0.487   5.113   7.497  0.3932  1.8748 -1.0112
  122MOL   H15531857   0.290   5.265   7.604  0.4794 -0.8221 -0.6941
  122MOL   H15631858   0.400   5.340   7.705 -0.8288 -0.5751  0.0878
  122MOL   H15731859   0.414   5.360   7.530 -3.6423  1.7822 -0.2890
  122MOL   C15831860   0.819   5.148   7.733 -0.4047 -0.0185 -0.1001
  122MOL   C15931861   0.891   5.036   7.823  0.1872  0.5523  0.4652
  122MOL   O16031862   0.793   4.983   0.071  0.1191  0.0157 -0.2289
  122MOL   C16131863   0.754   4.851   0.052 -0.6378 -0.0365  0.1773
  122MOL   C16231864   0.749   4.779   0.184 -0.2386 -0.2009 -0.2661
  122MOL   H16331865   0.765   5.217   7.798  0.1871  0.1519  0.2085
  122MOL   H16431866   0.900   5.208   7.692 -1.9996  1.2345 -1.5444
  122MOL   H16531867   0.929   4.963   7.752  0.0550  2.2963 -1.4744
  122MOL   H16631868   0.814   4.788   7.830  0.5290 -0.2365  1.4253
  122MOL   H16731869   0.652   4.864   0.015 -0.4771 -0.6807 -0.5129
  122MOL   H16831870   0.698   4.683   0.177 -0.8189  0.0579  0.3190
  122MOL   H16931871   0.850   4.746   0.209 -1.2374 -1.9169  1.6801
  122MOL   H17031872   0.707   4.836   0.267 -1.1272  0.7355 -1.3297
  122MOL   C17131873   1.007   5.109   0.054  0.5932  0.1075  0.3020
  122MOL   C17231874   1.091   5.004   0.135  0.4660 -0.0432 -0.7291
  122MOL   O17331875   1.162   5.081   0.224  0.0932  0.4329 -0.0119
  122MOL   C17431876   1.096   5.100   0.351 -0.5503  0.4998  0.0385
  122MOL   C17531877   1.192   5.180   0.430  0.3924  0.8185 -0.4513
  122MOL   H17631878   0.964   5.186   0.118  1.9385  1.5808 -0.5482
  122MOL   H17731879   1.067   5.168   7.829  0.9077  1.6798  1.8883
  122MOL   H17831880   1.027   4.931   0.184 -1.5596  1.7154 -0.6937
  122MOL   H17931881   1.074   5.003   0.394 -0.4466  0.7728  0.7251
  122MOL   H18031882   0.999   5.146   0.332 -1.1011 -0.1128  1.3266
  122MOL   H18131883   1.158   5.234   0.518 -2.2169 -1.7530  0.2185
  122MOL   H18231884   1.277   5.117   0.456  0.1937  1.4860  1.8547
  122MOL   H18331885   1.230   5.255   0.361 -2.0740  1.8542 -0.7507
  122MOL   C18431886   1.197   4.932   0.050 -0.0578  0.2221 -0.8244
  122MOL   C18531887   1.253   4.800   0.107 -0.0613  0.1363 -0.0327
  122MOL   O18631888   1.368   4.753   0.044 -0.7496 -0.0757 -0.3212
  122MOL   C18731889   1.482   4.838   0.065 -0.1664  0.6491  0.1012
  122MOL   C18831890   1.601   4.758   0.119 -0.1779  0.5749 -0.3289
  122MOL   H18931891   1.278   5.001   0.027  1.1676 -0.3448  1.6600
  122MOL   H19031892   1.151   4.917   7.796 -1.9347  4.1193 -0.6421
  122MOL   H19131893   1.279   4.813   0.212  0.3635  1.8561 -0.3361
  122MOL   H19231894   1.454   4.929   0.118 -2.1999  1.2003 -1.8357
  122MOL   H19331895   1.511   4.870   7.808  0.8623 -0.4647  0.0256
  122MOL   H19431896   1.670   4.835   0.155  1.2995 -0.5285 -0.7928
  122MOL   H19531897   1.567   4.702   0.206 -1.1071  1.1836 -0.2901
  122MOL   H19631898   1.655   4.692   0.051  1.0314  2.3984 -1.1881
  122MOL   C19731899   1.147   4.690   0.090  0.3326 -0.4806 -0.3100
  122MOL   C19831900   1.199   4.545   0.124  0.7195 -0.5968  0.3483
  122MOL   O19931901   1.085   4.464   0.118  0.2405 -0.1621  0.1310
  122MOL   C20031902   1.055   4.403   7.838  0.7380 -0.7708  0.2103
  122MOL   C20131903   0.955   4.287   0.001  0.0585 -0.2000  0.4255
  122MOL   H20231904   1.108   4.684   7.832  1.2335 -0.8896 -0.6386
  122MOL   H20331905   1.060   4.706   0.153  0.3986 -0.1006 -0.3157
  122MOL   H20431906   1.277   4.512   0.056  2.8155 -0.7828  2.7466
  122MOL   H20531907   1.143   4.365   7.786 -0.7508 -0.3790 -2.7137
  122MOL   H20631908   1.009   4.470   7.765  1.6168 -0.0947  0.2694
  122MOL   H20731909   0.968   4.226   0.090 -0.3106  1.6005  1.7403
  122MOL   H20831910   0.851   4.319   0.006 -0.0638  0.3583 -3.5344
  122MOL   H20931911   0.972   4.228   7.754  0.4932 -0.6763  0.8126
  122MOL   C21031912   1.265   4.540   0.262  0.1380  0.2865 -0.3467
  122MOL   C21131913   1.306   4.405   0.312 -0.3514  0.3134  0.5612
  122MOL   O21231914   1.388   4.426   0.422 -0.7534 -0.1069 -0.3768
  122MOL   C21331915   1.334   4.442   0.551  0.0451 -0.8359  0.7379
  122MOL   C21431916   1.280   4.307   0.614 -0.1140 -0.2359 -0.4923
  122MOL   H21531917   1.207   4.584   0.343  0.2929 -0.0775 -0.0339
  122MOL   H21631918   1.357   4.598   0.266 -0.8356  2.0221 -2.6686
  122MOL   H21731919   1.220   4.340   0.332 -1.5291  1.6263 -0.1547
  122MOL   H21831920   1.249   4.509   0.536 -0.1805 -0.7949  2.0947
  122MOL   H21931921   1.400   4.492   0.622  1.9818 -0.9253 -0.9697
  122MOL   H22031922   1.210   4.322   0.696  1.0956  2.2635  0.1182
  122MOL   H22131923   1.221   4.252   0.541 -1.7771 -0.9271  1.3553
  122MOL   H22231924   1.366   4.245   0.638  0.0443 -0.5600 -1.8362
  122MOL   C22331925   1.405   4.334   0.213  0.4664 -0.7424 -0.9997
  122MOL   C22431926   1.489   4.210   0.255 -0.0195  0.0152 -0.3986
  122MOL   O22531927   1.539   4.149   0.137 -0.9198 -1.0277 -0.1772
  122MOL   C22631928   1.656   4.215   0.089  0.8880  0.9882 -0.0885
  122MOL   C22731929   1.722   4.142   7.811 -0.2704  0.4816 -0.3972
  122MOL   H22831930   1.481   4.406   0.183  0.0959 -0.2445 -0.7480
  122MOL   H22931931   1.348   4.312   0.122 -1.6351 -0.9776  0.3161
  122MOL   H23031932   1.572   4.237   0.321 -0.1812 -0.1213 -0.1383
  122MOL   H23131933   1.725   4.230   0.172  1.0181  1.3977 -0.2705
  122MOL   H23231934   1.633   4.318   0.062  1.0072  1.7500  2.6300
  122MOL   H23331935   1.756   4.042   7.838  0.9081  0.4993 -1.7500
  122MOL   H23431936   1.652   4.145   7.728 -0.4800 -1.5169 -0.3142
  122MOL   H23531937   1.810   4.193   7.772 -0.3192  0.2130 -0.8530
  122MOL   C23631938   1.406   4.098   0.323 -0.6990 -0.5934  0.7065
  122MOL   C23731939   1.482   3.981   0.383  0.8159  0.2067  0.1250
  122MOL   O23831940   1.392   3.877   0.420  0.1218  0.8384 -0.2245
  122MOL   C23931941   1.377   3.786   0.311  0.0402  0.2876  0.2313
  122MOL   C24031942   1.288   3.675   0.369 -0.3246  0.8030 -0.4794
  122MOL   H24131943   1.332   4.064   0.251  2.0566 -3.2388 -0.9818
  122MOL   H24231944   1.352   4.143   0.406  0.1870  0.0393  0.9561
  122MOL   H24331945   1.548   3.950   0.303 -0.8314  0.1456 -1.2343
  122MOL   H24431946   1.471   3.741   0.277  1.0665  1.1669  1.8665
  122MOL   H24531947   1.312   3.832   0.237  1.4881 -0.0484 -1.2907
  122MOL   H24631948   1.193   3.712   0.408 -1.2670 -1.2081 -0.7958
  122MOL   H24731949   1.266   3.594   0.298 -3.9433 -0.1207  1.5607
  122MOL   H24831950   1.326   3.641   0.465  0.1693  1.1267 -0.5602
  122MOL   C24931951   1.542   4.016   0.519 -0.5470  0.0283 -0.1444
  122MOL   C25031952   1.646   3.911   0.570  0.1995 -0.5155 -0.9518
  122MOL   O25131953   1.693   3.958   0.698 -0.4455 -0.3412 -0.0585
  122MOL   C25231954   1.777   3.871   0.771 -0.2918 -0.5842 -0.5653
  122MOL   C25331955   1.775   3.924   0.919  0.6781 -0.0366 -0.2719
  122MOL   H25431956   1.465   4.031   0.595 -0.7255  1.4187 -0.5905
  122MOL   H25531957   1.601   4.107   0.520  1.5478 -1.2630 -1.6344
  122MOL   H25631958   1.592   3.816   0.575  0.5938 -0.7539 -1.1715
  122MOL   H25731959   1.877   3.874   0.726 -0.7915  0.7323 -1.6320
  122MOL   H25831960   1.738   3.770   0.777 -1.1499 -0.3291 -1.7068
  122MOL   H25931961   1.848   4.003   0.938  1.7318 -1.2777  0.9814
  122MOL   H26031962   1.672   3.957   0.937  0.4075 -1.1683  0.3085
  122MOL   H26131963   1.786   3.840   0.988  1.5020 -1.0280 -1.5922
  122MOL   H26231964   1.729   3.887   0.504  0.0672 -1.4937 -0.7783
  123MOL     C131965   4.496   1.031   1.428  0.6938 -0.5299  0.3569
  123MOL     C231966   4.600   1.022   1.539 -0.5200 -0.7803  0.2512
  123MOL     O331967   4.708   0.962   1.473 -0.2226 -0.3950 -0.1089
  123MOL     C431968   4.831   1.041   1.486 -0.1295 -0.0004  0.3339
  123MOL     C531969   4.835   1.168   1.410 -0.5741  0.0630  0.2911
  123MOL     H631970   4.453   0.932   1.414 -1.0452  0.1762  0.5725
  123MOL     H731971   4.417   1.100   1.455  2.6395  1.7472  0.4006
  123MOL     H831972   4.624   1.118   1.585 -1.0164 -1.4159  1.8688
  123MOL     H931973   4.917   0.978   1.464  1.4370  2.5170 -0.9706
  123MOL    H1031974   4.857   1.062   1.589  0.1829  1.3981 -0.0166
  123MOL    H1131975   4.800   1.133   1.313 -0.2887  0.4822  0.0340
  123MOL    H1231976   4.778   1.245   1.462  0.8123  0.5530  1.1127
  123MOL    H1331977   4.939   1.202   1.418 -0.2002 -1.4242  2.4718
  123MOL    H1431978   4.533   1.076   1.335 -0.3198  1.1249  0.7456
  123MOL    C1531979   4.551   0.941   1.659 -0.1506  0.0023 -0.2614
  123MOL    C1631980   4.444   1.014   1.747 -0.0943 -0.0375  0.1358
  123MOL    O1731981   4.521   1.114   1.803  0.2573  0.3383 -0.6403
  123MOL    C1831982   4.462   1.241   1.795  0.0399 -0.0515 -0.1284
  123MOL    C1931983   4.563   1.343   1.838  0.1026 -0.0826 -0.4494
  123MOL    H2031984   4.638   0.906   1.714 -0.2921 -0.5306 -0.3754
  123MOL    H2131985   4.506   0.853   1.614  1.0520  0.7984 -3.2069
  123MOL    H2231986   4.356   1.055   1.698 -0.0847 -0.9293 -0.6465
  123MOL    H2331987   4.381   1.231   1.867  0.8085  1.3771  0.9633
  123MOL    H2431988   4.422   1.266   1.697 -0.3086  1.4574  0.3788
  123MOL    H2531989   4.651   1.292   1.876 -0.3532 -1.0602 -0.6925
  123MOL    H2631990   4.518   1.404   1.917  0.8076 -1.4600  1.0455
  123MOL    H2731991   4.603   1.404   1.758 -1.0260 -0.9225 -1.6778
  123MOL    C2831992   4.393   0.916   1.858 -0.2968  0.2611  0.1073
  123MOL    C2931993   4.261   0.846   1.824 -0.0977 -0.2591 -0.5450
  123MOL    O3031994   4.151   0.938   1.834 -0.1691 -0.5181  0.0030
  123MOL    C3131995   4.052   0.931   1.729 -1.1930  0.1329 -0.3349
  123MOL    C3231996   3.941   1.006   1.799  0.1582 -0.2431  0.3858
  123MOL    H3331997   4.375   0.978   1.946  1.2315 -0.5747  1.0299
  123MOL    H3431998   4.476   0.847   1.876 -1.4573 -0.8102  1.4606
  123MOL    H3531999   4.273   0.809   1.722 -0.3557  1.8223 -1.3438
  123MOL    H3632000   4.029   0.829   1.698 -0.0924  0.0726 -0.9799
  123MOL    H3732001   4.092   0.981   1.640 -0.7597  1.1080  0.3992
  123MOL    H3832002   3.967   1.066   1.886 -1.3106 -0.8369  1.2506
  123MOL    H3932003   3.887   1.076   1.735  1.1774  1.3202  1.2178
  123MOL    H4032004   3.875   0.930   1.842  0.4997  0.4145  2.1256
  123MOL    C4132005   4.241   0.715   1.902 -0.5789 -0.3719 -0.7722
  123MOL    C4232006   4.307   0.587   1.847  0.3171  0.2375 -0.3953
  123MOL    O4332007   4.446   0.621   1.870  0.2496  0.4326 -0.1202
  123MOL    C4432008   4.529   0.507   1.897 -0.2637 -0.2555  0.1611
  123MOL    C4532009   4.671   0.565   1.929  0.1427  0.0466 -0.7595
  123MOL    H4632010   4.135   0.691   1.895 -0.1303 -1.9850 -2.5317
  123MOL    H4732011   4.277   0.733   2.003  0.6688 -1.0935 -1.0761
  123MOL    H4832012   4.275   0.496   1.898  2.5707 -0.1317  0.4290
  123MOL    H4932013   4.540   0.447   1.807  0.5013 -0.0285  0.1000
  123MOL    H5032014   4.487   0.436   1.968  1.3378  0.8642  2.3005
  123MOL    H5132015   4.724   0.616   1.848  0.5566  0.7237 -0.0689
  123MOL    H5232016   4.661   0.639   2.009 -0.8308 -2.2789  1.3327
  123MOL    H5332017   4.737   0.482   1.954 -0.7942 -0.3428  0.4431
  123MOL    C5432018   4.291   0.551   1.693  0.5971  0.1933  0.2467
  123MOL    C5532019   4.155   0.542   1.620  0.3247  0.5657  0.1962
  123MOL    O5632020   4.085   0.449   1.703 -0.3567 -0.0283 -0.3944
  123MOL    C5732021   3.942   0.473   1.707 -0.0562  0.5254 -0.3552
  123MOL    C5832022   3.882   0.380   1.809  0.1562  0.5279  0.1640
  123MOL    H5932023   4.348   0.458   1.692 -0.6585 -0.6002  0.5381
  123MOL    H6032024   4.350   0.624   1.640  0.1013 -0.0073 -0.5883
  123MOL    H6132025   4.109   0.641   1.612  3.1040  1.8504 -0.3849
  123MOL    H6232026   3.899   0.460   1.607  0.5892  0.9192 -0.6870
  123MOL    H6332027   3.916   0.573   1.743 -0.9597 -0.0682  0.6596
  123MOL    H6432028   3.774   0.392   1.825 -0.7541 -4.5848 -1.2817
  123MOL    H6532029   3.903   0.278   1.777  0.1783  0.4606  0.3935
  123MOL    H6632030   3.930   0.393   1.906 -4.2560 -1.3423  2.8009
  123MOL    C6732031   4.175   0.481   1.478  0.1413 -0.1189  0.1293
  123MOL    C6832032   4.229   0.578   1.372  0.3360 -0.5099  0.0047
  123MOL    O6932033   4.118   0.665   1.336 -0.0987 -0.1511 -0.0026
  123MOL    C7032034   4.139   0.803   1.316  0.4984  1.2749  0.3274
  123MOL    C7132035   4.012   0.874   1.317  0.2896  0.6282  0.5999
  123MOL    H7232036   4.084   0.444   1.433  1.0991 -0.2557 -1.7279
  123MOL    H7332037   4.238   0.394   1.496 -0.3694 -0.5008  0.0666
  123MOL    H7432038   4.318   0.628   1.411 -0.2030  0.2858  0.2355
  123MOL    H7532039   4.185   0.832   1.222  1.9571 -0.0254  0.6208
  123MOL    H7632040   4.197   0.833   1.403  1.8716  0.6910 -0.3703
  123MOL    H7732041   3.942   0.834   1.391  0.1581  0.9876  0.6679
  123MOL    H7832042   4.008   0.982   1.328 -1.9211  0.8335 -1.6925
  123MOL    H7932043   3.961   0.860   1.221 -0.6741 -0.4649  1.2455
  123MOL    C8032044   4.270   0.508   1.240 -0.4760 -0.4236  0.3182
  123MOL    C8132045   4.356   0.384   1.255  0.9083  0.6440 -0.3497
  123MOL    O8232046   4.458   0.409   1.352 -0.3711 -0.0609  0.3482
  123MOL    C8332047   4.532   0.291   1.391 -0.3657  0.0201  0.2842
  123MOL    C8432048   4.646   0.331   1.487 -0.9265  0.1344  0.2773
  123MOL    H8532049   4.335   0.578   1.186  1.8463 -1.1979  2.0449
  123MOL    H8632050   4.182   0.491   1.178 -0.6901 -2.0432  1.0638
  123MOL    H8732051   4.293   0.303   1.290 -0.7401  0.9364 -2.5318
  123MOL    H8832052   4.581   0.241   1.307 -0.6307  2.0921 -1.1658
  123MOL    H8932053   4.462   0.227   1.444  0.1327  0.3290  1.3178
  123MOL    H9032054   4.596   0.352   1.582 -0.1680 -2.0909  1.2074
  123MOL    H9132055   4.696   0.234   1.496 -1.0161  0.2501  2.3729
  123MOL    H9232056   4.713   0.413   1.463  1.4217 -1.6637  0.4445
  123MOL    C9332057   4.417   0.339   1.117  0.3869  0.0802 -0.0341
  123MOL    C9432058   4.322   0.318   0.997 -0.4317 -0.0073 -1.5154
  123MOL    O9532059   4.241   0.208   1.042  0.1966 -0.4477  0.2187
  123MOL    C9632060   4.121   0.199   0.969 -0.3752  0.8204  0.6721
  123MOL    C9732061   4.031   0.097   1.032 -0.5257 -0.3054 -0.1437
  123MOL    H9832062   4.469   0.243   1.119  0.3609  0.0670 -0.0050
  123MOL    H9932063   4.505   0.396   1.087  0.9307 -0.6373  0.1949
  123MOL   H10032064   4.262   0.405   0.970 -1.9227  0.3152  2.4720
  123MOL   H10132065   4.140   0.187   0.863 -1.1641  1.6849  0.4280
  123MOL   H10232066   4.068   0.294   0.974 -1.2476  0.3634  0.3696
  123MOL   H10332067   4.082   0.004   1.010 -0.1118 -0.0745 -0.1650
  123MOL   H10432068   3.993   0.103   1.134 -1.8955 -0.9939 -0.5973
  123MOL   H10532069   3.941   0.094   0.970  0.5718  1.5340 -1.8865
  123MOL   C10632070   4.415   0.276   0.869 -0.0126 -0.6575 -0.0576
  123MOL   C10732071   4.474   0.402   0.792  0.0233 -0.3370  0.1894
  123MOL   O10832072   4.376   0.482   0.722  0.1362 -0.3327  0.7248
  123MOL   C10932073   4.373   0.615   0.748 -0.0536  0.7031  0.5598
  123MOL   C11032074   4.490   0.691   0.683  0.1136 -0.3968  0.0768
  123MOL   H11132075   4.363   0.209   0.801 -0.1719 -0.8540  0.2567
  123MOL   H11232076   4.495   0.217   0.913  1.5244  2.1701  1.0985
  123MOL   H11332077   4.521   0.471   0.863 -1.0199  1.6321 -0.9837
  123MOL   H11432078   4.365   0.632   0.855  0.7058 -1.1862  0.9432
  123MOL   H11532079   4.277   0.645   0.706  0.4286  2.6407  0.8231
  123MOL   H11632080   4.476   0.680   0.576  2.7029  1.4283 -0.4950
  123MOL   H11732081   4.491   0.798   0.705  0.1931  0.0762 -2.1408
  123MOL   H11832082   4.590   0.660   0.715 -0.0243 -1.0482 -0.1336
  123MOL   C11932083   4.583   0.366   0.694  0.0509 -0.5143  0.0040
  123MOL   C12032084   4.714   0.333   0.753 -1.2787  0.1508 -0.1866
  123MOL   O12132085   4.776   0.453   0.785 -0.0490  0.2505  0.3406
  123MOL   C12232086   4.863   0.448   0.899 -0.5777 -0.2297  0.1322
  123MOL   C12332087   4.929   0.586   0.914 -0.8130  0.6287 -0.1972
  123MOL   H12432088   4.597   0.444   0.620  0.7419 -0.8264 -0.1999
  123MOL   H12532089   4.554   0.285   0.626  0.6207  0.3600 -1.2934
  123MOL   H12632090   4.692   0.271   0.840 -1.3519 -0.2259 -0.4781
  123MOL   H12732091   4.941   0.373   0.883 -0.2293  0.2658 -0.5276
  123MOL   H12832092   4.799   0.424   0.983  0.9705 -2.7426  0.6616
  123MOL   H12932093   5.002   0.593   0.995 -2.4798  1.4323  1.2694
  123MOL   H13032094   4.981   0.608   0.821 -0.8281  0.3136 -0.2817
  123MOL   H13132095   4.850   0.661   0.915 -0.8955  0.5437  1.8435
  123MOL   C13232096   4.809   0.250   0.666  0.2369 -0.6173 -0.1764
  123MOL   C13332097   4.864   0.332   0.543  0.4698 -0.3850  0.0456
  123MOL   O13432098   4.758   0.357   0.456 -0.6734 -0.3139 -0.2443
  123MOL   C13532099   4.771   0.425   0.327 -0.0384  1.3791 -0.9005
  123MOL   C13632100   4.648   0.510   0.307  0.1813 -0.3450  0.2102
  123MOL   H13732101   4.753   0.164   0.628 -0.2789 -0.7337  0.8278
  123MOL   H13832102   4.886   0.211   0.732  2.1777  2.2199 -0.6648
  123MOL   H13932103   4.906   0.429   0.567 -1.7263  0.4434  0.5810
  123MOL   H14032104   4.775   0.346   0.252  0.4519  0.6840 -0.1617
  123MOL   H14132105   4.868   0.476   0.334  0.1803  0.8595 -0.0050
  123MOL   H14232106   4.631   0.550   0.407  0.5267 -1.6571  0.8083
  123MOL   H14332107   4.642   0.582   0.225 -1.4446 -1.7264 -0.9098
  123MOL   H14432108   4.564   0.447   0.276  0.2751  0.4177 -1.6885
  123MOL   C14532109   4.977   0.251   0.476  0.0629 -0.9595  0.0852
  123MOL   C14632110   5.119   0.238   0.538  0.1040 -0.0295 -0.2605
  123MOL   O14732111   5.135   0.137   0.642 -0.3940 -0.0722  0.0739
  123MOL   C14832112   5.121   7.842   0.600  0.7061 -0.3901 -0.7532
  123MOL   C14932113   5.183   7.752   0.712 -0.3100 -0.1102 -0.4573
  123MOL   H15032114   4.982   0.292   0.375  0.4903  0.4385  0.6551
  123MOL   H15132115   4.940   0.151   0.456  1.8184 -1.8332  1.1049
  123MOL   H15232116   5.176   0.194   0.455  0.1668 -1.3938  0.4832
  123MOL   H15332117   5.170   7.825   0.505  0.8203 -0.7829 -0.6207
  123MOL   H15432118   5.013   7.831   0.585  0.2060  0.2165  1.9871
  123MOL   H15532119   5.281   7.793   0.735  0.6559 -2.5346 -0.1149
  123MOL   H15632120   5.124   7.772   0.801 -0.8953 -1.6003 -0.4845
  123MOL   H15732121   5.195   7.647   0.685 -0.8932  0.3760 -2.7508
  123MOL   C15832122   5.190   0.370   0.566 -0.0146 -0.0194  0.6504
  123MOL   C15932123   5.194   0.464   0.450  0.1415 -0.1927  0.8587
  123MOL   O16032124   5.254   0.410   0.334 -0.2945 -0.0302 -0.4978
  123MOL   C16132125   5.396   0.391   0.331 -0.0939  0.3499 -0.3688
  123MOL   C16232126   5.419   0.311   0.203  0.1750  0.0104 -0.4360
  123MOL   H16332127   5.289   0.346   0.606  1.6247 -0.2739 -3.3103
  123MOL   H16432128   5.146   0.425   0.649 -2.2856 -0.8868  0.0507
  123MOL   H16532129   5.093   0.498   0.427  0.2357 -1.0452 -0.8760
  123MOL   H16632130   5.432   0.328   0.412  1.4602  0.5600 -0.8782
  123MOL   H16732131   5.457   0.481   0.326  0.5777 -0.1729 -1.8815
  123MOL   H16832132   5.385   0.368   0.117 -0.9487  1.0932  0.7137
  123MOL   H16932133   5.516   0.262   0.202 -0.7566 -1.9129 -0.7411
  123MOL   H17032134   5.359   0.220   0.215 -1.2188  1.1490  1.4946
  123MOL   C17132135   5.273   0.596   0.497 -0.3201  0.8019 -0.3352
  123MOL   C17232136   5.192   0.697   0.585 -0.0330  0.3025  0.7000
  123MOL   O17332137   5.088   0.742   0.497  0.3862  0.3053  0.0964
  123MOL   C17432138   4.967   0.789   0.553  0.3673 -0.4022  0.1002
  123MOL   C17532139   4.862   0.804   0.442 -0.0767 -0.5025  0.4659
  123MOL   H17632140   5.315   0.650   0.413 -0.1506 -0.7796 -1.2790
  123MOL   H17732141   5.359   0.564   0.557 -0.8092  1.4602  0.7488
  123MOL   H17832142   5.145   0.647   0.669  0.5217  1.3625  1.6579
  123MOL   H17932143   4.998   0.874   0.615 -0.2546 -0.1268  0.0382
  123MOL   H18032144   4.919   0.721   0.623 -2.9390  0.9764 -0.7564
  123MOL   H18132145   4.763   0.820   0.484 -0.2223 -1.4872  0.4974
  123MOL   H18232146   4.888   0.893   0.384 -1.2579 -1.1027 -1.0144
  123MOL   H18332147   4.846   0.729   0.365 -1.1196  1.6356 -1.4712
  123MOL   C18432148   5.283   0.813   0.644 -0.1801  0.6096  0.1288
  123MOL   C18532149   5.368   0.895   0.544  0.1708  0.2275 -0.0581
  123MOL   O18632150   5.449   0.961   0.636  0.3243 -0.4697  0.4145
  123MOL   C18732151   5.566   1.025   0.579  0.2320 -0.2737  0.7176
  123MOL   C18832152   5.692   0.958   0.642  0.0349  0.6968 -0.1272
  123MOL   H18932153   5.342   0.761   0.719 -0.5956 -0.7711 -0.4961
  123MOL   H19032154   5.218   0.880   0.701 -0.7229 -0.3569  0.6524
  123MOL   H19132155   5.428   0.824   0.486  0.3505 -0.4345  0.9321
  123MOL   H19232156   5.562   1.133   0.595  0.7659  0.2008 -2.1370
  123MOL   H19332157   5.575   1.016   0.471 -4.7864  0.6793  0.0782
  123MOL   H19432158   5.705   0.851   0.623  3.1236  0.9184  0.3706
  123MOL   H19532159   5.782   1.014   0.616 -0.3564  1.0191 -0.7727
  123MOL   H19632160   5.680   0.964   0.750  1.7771 -1.0670  0.1901
  123MOL   C19732161   5.281   0.989   0.452  0.8026 -0.2873 -0.3961
  123MOL   C19832162   5.251   0.941   0.306  1.2818 -0.6247  0.1944
  123MOL   O19932163   5.378   0.961   0.248  0.2079 -0.3774 -0.8560
  123MOL   C20032164   5.436   0.854   0.175 -0.0552 -0.3651 -0.2064
  123MOL   C20132165   5.589   0.879   0.179  0.5267 -0.6315 -0.7460
  123MOL   H20232166   5.333   1.084   0.439  1.7618 -0.5829  1.1560
  123MOL   H20332167   5.191   1.033   0.494  1.3610 -0.0833  0.6129
  123MOL   H20432168   5.213   0.839   0.301 -2.6352  0.8449 -1.8816
  123MOL   H20532169   5.405   0.849   0.071  2.6409  0.5000 -1.0909
  123MOL   H20632170   5.424   0.755   0.218 -0.3717  0.1613  0.9439
  123MOL   H20732171   5.652   0.798   0.143 -1.5596 -2.2181 -0.9663
  123MOL   H20832172   5.614   0.963   0.114 -1.0992 -0.7476 -1.5433
  123MOL   H20932173   5.617   0.908   0.280  0.0259 -1.1464 -0.4594
  123MOL   C21032174   5.151   1.041   0.230  0.2944 -0.1635 -1.4006
  123MOL   C21132175   5.129   1.034   0.076  0.5071 -0.0041  0.1793
  123MOL   O21232176   5.043   1.123   0.027  0.0787  0.7865  0.0555
  123MOL   C21332177   5.119   1.240   7.837  0.7055  0.3655  0.2599
  123MOL   C21432178   5.036   1.344   7.758  0.5539  0.5685 -0.7846
  123MOL   H21532179   5.164   1.146   0.255  0.5436 -0.9898  2.2897
  123MOL   H21632180   5.052   1.040   0.276 -0.4583 -1.2525 -3.0289
  123MOL   H21732181   5.229   1.039   0.033  1.0081  0.0850  1.3473
  123MOL   H21832182   5.199   1.212   7.769  0.0078 -2.5846  0.6010
  123MOL   H21932183   5.157   1.289   0.083  0.4009  1.0681  0.0131
  123MOL   H22032184   4.967   1.394   7.826 -0.3097 -1.7158  0.0997
  123MOL   H22132185   5.105   1.415   7.714  0.1180  1.1256 -0.5708
  123MOL   H22232186   4.984   1.292   7.677 -1.4746 -0.4960  1.1330
  123MOL   C22332187   5.061   0.902   0.046 -0.0904  0.7540 -0.1549
  123MOL   C22432188   5.046   0.862   7.742 -0.3934  0.1831 -1.1286
  123MOL   O22532189   4.965   0.747   7.756  0.1534 -1.2758 -0.2368
  123MOL   C22632190   4.846   0.751   7.683  0.6715 -0.8160  0.4425
  123MOL   C22732191   4.767   0.620   7.688 -0.0317 -0.0646 -0.0225
  123MOL   H22832192   4.969   0.892   0.104  0.9512 -0.1566  1.3626
  123MOL   H22932193   5.111   0.815   0.088 -0.2351 -0.0619 -1.6483
  123MOL   H23032194   4.991   0.941   7.690 -1.0877 -0.0334 -0.7335
  123MOL   H23132195   4.868   0.759   7.577 -0.2496  1.9776  0.4091
  123MOL   H23232196   4.777   0.831   7.713  1.4177 -0.0483  0.1410
  123MOL   H23332197   4.674   0.618   7.631  0.0177 -0.1740 -0.0978
  123MOL   H23432198   4.825   0.545   7.636  2.0493 -0.2268  2.4216
  123MOL   H23532199   4.738   0.593   7.790 -0.6504 -1.1370 -0.4777
  123MOL   C23632200   5.172   0.820   7.673 -0.1934 -0.3439  0.0180
  123MOL   C23732201   5.154   0.800   7.515  0.1253  0.2471 -0.4490
  123MOL   O23832202   5.283   0.763   7.465  0.8994 -0.2413 -1.0049
  123MOL   C23932203   5.282   0.655   7.371 -0.9447  0.0206 -0.6620
  123MOL   C24032204   5.432   0.612   7.328 -0.0309  0.7277  0.1992
  123MOL   H24132205   5.212   0.732   7.724  2.2310  0.1478 -1.0075
  123MOL   H24232206   5.249   0.895   7.690 -0.9664  0.8622 -1.7257
  123MOL   H24332207   5.088   0.713   7.511  3.1388 -2.2217  1.6162
  123MOL   H24432208   5.246   0.699   7.279  2.1730 -1.1193 -2.5095
  123MOL   H24532209   5.216   0.572   7.395 -0.5463  0.4620  2.1399
  123MOL   H24632210   5.429   0.517   7.275 -1.0072  2.1283 -2.3278
  123MOL   H24732211   5.485   0.686   7.268 -0.8175  1.2416  0.1332
  123MOL   H24832212   5.491   0.598   7.418 -1.4650 -1.0648  0.8939
  123MOL   C24932213   5.092   0.912   7.427  0.2576 -0.4839 -0.1510
  123MOL   C25032214   5.166   1.041   7.434  0.3121 -0.3009 -0.0664
  123MOL   O25132215   5.123   1.127   7.331  0.1981 -0.1275  0.2351
  123MOL   C25232216   5.176   1.260   7.341  0.1229  0.2086  0.5301
  123MOL   C25332217   5.138   1.358   7.226  1.2242 -0.1092  0.3914
  123MOL   H25432218   4.992   0.922   7.469  0.0797  0.6480 -0.8292
  123MOL   H25532219   5.089   0.872   7.325 -0.9990  1.7878 -1.0182
  123MOL   H25632220   5.148   1.095   7.527  0.9227 -0.1192 -0.0530
  123MOL   H25732221   5.284   1.254   7.339  0.1192  0.4902 -0.6260
  123MOL   H25832222   5.147   1.306   7.436 -1.6535  2.0079 -0.8434
  123MOL   H25932223   5.197   1.321   7.143  1.6596 -1.2155  1.1722
  123MOL   H26032224   5.034   1.343   7.196  1.4166  0.3685 -0.4996
  123MOL   H26132225   5.157   1.463   7.248  1.2680 -0.0063 -0.1400
  123MOL   H26232226   5.271   1.024   7.414  0.5228  2.2860 -1.2914
  124MOL     C132227   7.523   7.463   3.709 -0.1422 -0.6139  0.2553
  124MOL     C232228   7.487   7.320   3.658  0.3042  0.9249 -0.3627
  124MOL     O332229   7.509   7.325   3.515  0.2338  0.3952 -0.2937
  124MOL     C432230   7.642   7.309   3.470  0.2979 -0.3905 -0.8264
  124MOL     C532231   7.656   7.205   3.361  0.1758  0.0038 -0.3439
  124MOL     H632232   7.527   7.480   3.816  1.2591 -2.6487  0.5572
  124MOL     H732233   7.624   7.481   3.670  0.0387  0.3378  1.1373
  124MOL     H832234   7.541   7.237   3.703  1.5002  1.0902 -1.4696
  124MOL     H932235   7.715   7.268   3.540 -2.8279 -2.0618  1.6081
  124MOL    H1032236   7.690   7.400   3.434  0.3184  0.3753  1.0987
  124MOL    H1132237   7.749   7.219   3.305  0.1066  2.0443  0.0159
  124MOL    H1232238   7.664   7.101   3.392  0.6118 -0.0662 -0.6687
  124MOL    H1332239   7.573   7.210   3.291  0.0312 -0.3778 -0.1994
  124MOL    H1432240   7.456   7.538   3.666  0.7731  0.1768  0.1752
  124MOL    C1532241   7.339   7.300   3.693  0.0052  0.9898  0.2688
  124MOL    C1632242   7.288   7.300   3.841 -0.0378  0.5367  0.0519
  124MOL    O1732243   7.373   7.212   3.921  0.1838  0.0884 -0.3114
  124MOL    C1832244   7.369   7.241   4.065  0.0980  0.4529  0.1752
  124MOL    C1932245   7.508   7.223   4.126  0.1635  0.1249  0.5815
  124MOL    H2032246   7.299   7.212   3.642  2.3002 -1.0550  1.8978
  124MOL    H2132247   7.284   7.373   3.634 -0.1217 -0.1802 -1.1134
  124MOL    H2232248   7.307   7.398   3.885 -2.2795  0.7889  0.5125
  124MOL    H2332249   7.305   7.169   4.117  0.6408  0.8687  1.4374
  124MOL    H2432250   7.326   7.336   4.096 -0.4121  0.4168 -0.4172
  124MOL    H2532251   7.536   7.118   4.135 -0.0603  0.1495  1.6613
  124MOL    H2632252   7.515   7.281   4.218 -0.7778  3.7950 -1.5540
  124MOL    H2732253   7.571   7.272   4.052  0.8711  1.1891  1.8608
  124MOL    C2832254   7.139   7.264   3.849  0.1482 -0.3547  0.9655
  124MOL    C2932255   7.043   7.356   3.772  0.5434  0.0616  0.0064
  124MOL    O3032256   7.061   7.483   3.843  0.2629  0.4008 -0.3221
  124MOL    C3132257   7.083   7.591   3.758  0.3153 -0.3391 -0.0343
  124MOL    C3232258   7.082   7.717   3.848  0.5008  0.9351 -0.4807
  124MOL    H3332259   7.109   7.272   3.953 -0.5840 -1.1615  0.8269
  124MOL    H3432260   7.116   7.160   3.828 -0.1554  0.2242 -1.7487
  124MOL    H3532261   7.065   7.358   3.665 -2.0781 -1.9400 -0.6152
  124MOL    H3632262   7.003   7.607   3.685 -1.3523 -0.5972  1.7179
  124MOL    H3732263   7.177   7.588   3.703  0.3380 -2.6860  0.0965
  124MOL    H3832264   7.161   7.715   3.924 -0.9398 -0.9274  1.0016
  124MOL    H3932265   7.099   7.814   3.800 -0.0900  0.2602 -2.0814
  124MOL    H4032266   6.999   7.719   3.919 -1.2370  0.0555 -2.4584
  124MOL    C4132267   6.897   7.315   3.785  0.4186  0.7492 -0.4122
  124MOL    C4232268   6.789   7.403   3.722 -0.5320  0.0602  0.1645
  124MOL    O4332269   6.667   7.346   3.782  0.0280  0.1218 -0.3878
  124MOL    C4432270   6.553   7.437   3.774  0.1613 -0.4300  0.8146
  124MOL    C4532271   6.442   7.392   3.868 -0.5398  0.1909  0.3469
  124MOL    H4632272   6.884   7.301   3.892 -2.5662  1.0770 -0.6961
  124MOL    H4732273   6.885   7.212   3.753  0.5791  0.7346 -0.4276
  124MOL    H4832274   6.811   7.502   3.763  2.8322 -0.3566 -0.4824
  124MOL    H4932275   6.502   7.434   3.677  0.6352 -0.4658  0.5661
  124MOL    H5032276   6.584   7.540   3.792 -1.4437  0.4282 -1.1667
  124MOL    H5132277   6.461   7.438   3.965  0.0138  0.6193  0.0458
  124MOL    H5232278   6.348   7.435   3.833  0.3634  1.5581 -0.5057
  124MOL    H5332279   6.431   7.284   3.864 -1.3616  0.2904 -0.3501
  124MOL    C5432280   6.783   7.402   3.562 -0.3560 -0.6739 -0.0218
  124MOL    C5532281   6.765   7.271   3.493 -1.0052  0.2073 -0.0428
  124MOL    O5632282   6.888   7.197   3.501 -0.9917 -0.2748  0.0981
  124MOL    C5732283   6.879   7.061   3.494  0.1443  0.1391  0.3310
  124MOL    C5832284   6.997   6.988   3.565  0.4201 -0.7170 -0.4524
  124MOL    H5932285   6.868   7.452   3.517 -0.7110 -1.4043 -1.5480
  124MOL    H6032286   6.696   7.459   3.532  0.2791 -1.1186 -2.8717
  124MOL    H6132287   6.685   7.209   3.534 -0.3943  0.5967  1.7513
  124MOL    H6232288   6.870   7.029   3.390  1.7567  0.1238  0.1771
  124MOL    H6332289   6.785   7.031   3.541 -0.2772  0.3256 -0.3835
  124MOL    H6432290   7.014   7.044   3.657 -0.0902  2.2565 -2.0762
  124MOL    H6532291   6.960   6.891   3.596 -0.1182 -0.7141 -1.0705
  124MOL    H6632292   7.088   6.996   3.505  0.7894  1.0079  0.3010
  124MOL    C6732293   6.741   7.284   3.347  0.1744  1.0199  1.2675
  124MOL    C6832294   6.592   7.302   3.308 -0.0103 -0.3257  0.4688
  124MOL    O6932295   6.521   7.419   3.345  0.2663  0.3545 -0.2662
  124MOL    C7032296   6.569   7.551   3.303  0.1709  0.6918 -0.0893
  124MOL    C7132297   6.468   7.656   3.347 -0.3962 -0.1409  0.2812
  124MOL    H7232298   6.790   7.212   3.281 -1.9138  1.8475 -1.2781
  124MOL    H7332299   6.795   7.372   3.311 -0.6985  0.8808 -0.4499
  124MOL    H7432300   6.599   7.306   3.199  0.9386 -1.4179  0.4812
  124MOL    H7532301   6.585   7.556   3.196  0.0876  2.0858 -0.0490
  124MOL    H7632302   6.668   7.576   3.341  0.7814 -2.6797  0.6669
  124MOL    H7732303   6.520   7.752   3.357 -1.8376  0.6102  0.6292
  124MOL    H7832304   6.385   7.663   3.278 -0.6073 -0.1484  0.5348
  124MOL    H7932305   6.420   7.632   3.442 -0.5004  1.8851  0.7696
  124MOL    C8032306   6.503   7.191   3.350 -0.4396  0.1412 -0.3936
  124MOL    C8132307   6.538   7.049   3.303 -0.2081  0.6460  1.1514
  124MOL    O8232308   6.544   7.035   3.160 -0.4359  0.2375 -0.1021
  124MOL    C8332309   6.637   6.931   3.114  0.3464 -0.3188 -0.2299
  124MOL    C8432310   6.653   6.936   2.962  0.3826  0.0317 -0.1053
  124MOL    H8532311   6.411   7.212   3.296 -0.3212  0.3551 -0.5157
  124MOL    H8632312   6.474   7.202   3.455  2.8270 -0.6407  0.6692
  124MOL    H8732313   6.630   7.018   3.351  0.4967 -0.3921 -0.8435
  124MOL    H8832314   6.595   6.837   3.148  0.8513 -0.5461 -0.2308
  124MOL    H8932315   6.738   6.944   3.154  0.0635 -3.1279  1.5226
  124MOL    H9032316   6.709   6.852   2.921 -1.3049 -0.4374 -1.5814
  124MOL    H9132317   6.553   6.939   2.917  0.5836  1.2964 -0.4843
  124MOL    H9232318   6.706   7.029   2.943 -0.7351  0.7503  0.2081
  124MOL    C9332319   6.418   6.956   3.338  0.2335  0.1368 -0.2196
  124MOL    C9432320   6.398   6.918   3.489  0.0206  0.3565  0.3243
  124MOL    O9532321   6.365   7.022   3.576 -0.1227 -0.2257  0.1155
  124MOL    C9632322   6.235   7.079   3.556  0.1596  1.1498  0.2020
  124MOL    C9732323   6.229   7.188   3.661 -0.3985  0.3907 -0.4608
  124MOL    H9832324   6.429   6.863   3.282  0.0910 -0.9702  1.5706
  124MOL    H9932325   6.331   7.010   3.301  0.1486 -0.5988 -1.1183
  124MOL   H10032326   6.316   6.847   3.496 -0.7761  1.1722 -0.5800
  124MOL   H10132327   6.170   6.992   3.571 -0.7935  1.8399  0.1022
  124MOL   H10232328   6.209   7.112   3.456  1.5686  2.5951  0.2957
  124MOL   H10332329   6.131   7.235   3.652 -0.0155  1.3633  0.3550
  124MOL   H10432330   6.246   7.159   3.765  1.9137  1.9706 -0.3569
  124MOL   H10532331   6.306   7.260   3.632 -0.4440  0.9058  0.6722
  124MOL   C10632332   6.517   6.848   3.544 -0.3874  0.0777  0.0975
  124MOL   C10732333   6.550   6.709   3.477 -0.6202  0.3293  0.2167
  124MOL   O10832334   6.512   6.610   3.575  0.5418  0.0901  0.3909
  124MOL   C10932335   6.393   6.554   3.553  0.4435 -0.2811  0.0518
  124MOL   C11032336   6.364   6.433   3.644  0.2633 -0.4248  0.0174
  124MOL   H11132337   6.506   6.842   3.653 -1.5224 -0.4754 -0.0298
  124MOL   H11232338   6.600   6.916   3.528 -1.7107  1.5242 -0.8128
  124MOL   H11332339   6.509   6.688   3.379  0.9173 -2.2005  0.0932
  124MOL   H11432340   6.387   6.525   3.448 -0.8580  2.7093 -0.7443
  124MOL   H11532341   6.318   6.630   3.573  0.5922 -0.5031  1.5049
  124MOL   H11632342   6.277   6.379   3.607 -0.3110 -0.8998  1.9689
  124MOL   H11732343   6.433   6.352   3.620  1.9733  2.0056 -3.6587
  124MOL   H11832344   6.350   6.452   3.751 -3.0096 -0.4027 -0.3607
  124MOL   C11932345   6.703   6.690   3.452 -0.3021  0.6225 -0.7206
  124MOL   C12032346   6.752   6.557   3.379  0.1412  0.6536 -0.8086
  124MOL   O12132347   6.894   6.570   3.375  0.3246  0.0451 -0.1919
  124MOL   C12232348   6.969   6.541   3.494  0.6686  0.0861  0.6815
  124MOL   C12332349   7.019   6.394   3.475 -0.4639  0.4747  0.0835
  124MOL   H12432350   6.749   6.687   3.551  0.9203  1.3420 -1.2489
  124MOL   H12532351   6.744   6.786   3.420  1.6972 -0.5649 -1.7943
  124MOL   H12632352   6.728   6.480   3.452  1.6244  0.9868  0.0513
  124MOL   H12732353   6.902   6.566   3.577 -0.8150 -2.7922  0.4138
  124MOL   H12832354   7.061   6.600   3.501  0.5087  0.4693 -0.4068
  124MOL   H12932355   7.068   6.386   3.378  0.1060 -2.5010  0.5528
  124MOL   H13032356   7.096   6.369   3.549  0.9792  1.4866 -1.0582
  124MOL   H13132357   6.939   6.321   3.488  0.5315 -0.4053  1.5340
  124MOL   C13232358   6.699   6.540   3.239 -0.6162 -0.7226 -0.4635
  124MOL   C13332359   6.596   6.422   3.220  0.3210  0.0319 -0.1145
  124MOL   O13432360   6.660   6.298   3.265 -0.3378  0.0860 -0.2770
  124MOL   C13532361   6.574   6.189   3.284  0.3596  0.3434 -0.4291
  124MOL   C13632362   6.644   6.071   3.351  0.7177 -0.1485 -0.2819
  124MOL   H13732363   6.779   6.526   3.166  1.1764  0.4756  1.2326
  124MOL   H13832364   6.655   6.634   3.205 -1.2420 -1.3887 -1.5340
  124MOL   H13932365   6.511   6.450   3.282 -0.5930 -1.9520 -0.4241
  124MOL   H14032366   6.547   6.147   3.187  0.2153 -0.7699  0.0900
  124MOL   H14132367   6.486   6.221   3.339 -0.2163 -2.7244  0.5206
  124MOL   H14232368   6.718   6.014   3.295  2.5286  1.6309  0.2341
  124MOL   H14332369   6.690   6.110   3.441 -0.3668  1.2514 -0.3067
  124MOL   H14432370   6.571   5.997   3.385  0.9912  0.5532  1.9100
  124MOL   C14532371   6.553   6.410   3.073  0.2554 -0.5177  0.2857
  124MOL   C14632372   6.483   6.530   3.003 -0.0607 -0.0454  0.4358
  124MOL   O14732373   6.374   6.567   3.078  1.1005  0.5472  0.4329
  124MOL   C14832374   6.323   6.692   3.050 -1.0508 -0.4507 -0.0270
  124MOL   C14932375   6.224   6.730   3.162 -0.7859 -1.0465  0.0867
  124MOL   H15032376   6.480   6.330   3.075  1.3515 -1.5159  0.4265
  124MOL   H15132377   6.638   6.375   3.015  1.8673  2.4010  0.7765
  124MOL   H15232378   6.556   6.609   3.017  0.0141  0.1871 -1.1742
  124MOL   H15332379   6.275   6.695   2.952 -1.9858 -0.6484  0.4193
  124MOL   H15432380   6.411   6.756   3.035 -1.6538 -0.2346 -2.9485
  124MOL   H15532381   6.203   6.836   3.147 -1.5655 -1.3979 -1.4619
  124MOL   H15632382   6.130   6.675   3.154 -0.2201 -1.7922 -1.9122
  124MOL   H15732383   6.258   6.718   3.264  0.3180 -3.9766 -0.5568
  124MOL   C15832384   6.441   6.502   2.850 -0.0555 -0.4859  0.2606
  124MOL   C15932385   6.549   6.450   2.759 -0.2959 -0.6415  0.3415
  124MOL   O16032386   6.655   6.546   2.759 -0.4232 -0.5653  0.3123
  124MOL   C16132387   6.785   6.491   2.769 -0.0954 -0.2304 -0.3816
  124MOL   C16232388   6.860   6.605   2.846 -1.0398 -0.1136  0.1240
  124MOL   H16332389   6.421   6.601   2.809 -3.5564 -0.9397  0.7103
  124MOL   H16432390   6.349   6.445   2.845 -1.7062  2.1256 -0.0566
  124MOL   H16532391   6.592   6.358   2.799  1.5444 -0.5408 -1.3166
  124MOL   H16632392   6.832   6.483   2.671 -0.0221 -0.7090 -0.3052
  124MOL   H16732393   6.799   6.405   2.835  1.7103  0.9377  0.8380
  124MOL   H16832394   6.966   6.578   2.852 -0.5216  1.5995 -0.9761
  124MOL   H16932395   6.849   6.697   2.788 -2.1731 -1.7730 -2.4054
  124MOL   H17032396   6.833   6.625   2.950  1.4792  0.5067  0.7061
  124MOL   C17132397   6.495   6.441   2.614 -0.6657 -0.3921  0.4840
  124MOL   C17232398   6.591   6.368   2.524 -0.0150 -0.1224  0.8207
  124MOL   O17332399   6.554   6.403   2.389 -0.2827 -0.2745  0.2616
  124MOL   C17432400   6.660   6.472   2.321 -0.0075  0.5161  0.2920
  124MOL   C17532401   6.611   6.573   2.210  0.0211 -0.6126  0.1213
  124MOL   H17632402   6.469   6.541   2.581 -0.5438 -0.9546 -1.3773
  124MOL   H17732403   6.400   6.388   2.615 -0.8737 -0.0472 -1.1714
  124MOL   H17832404   6.695   6.390   2.549 -0.1335  0.2660  0.9890
  124MOL   H17932405   6.738   6.410   2.280 -1.0458 -0.8823  0.4043
  124MOL   H18032406   6.713   6.538   2.390  0.2900 -1.8905  2.4541
  124MOL   H18132407   6.588   6.675   2.240 -0.1499 -0.3926 -0.7274
  124MOL   H18232408   6.700   6.590   2.148  1.2876  0.6240  2.2423
  124MOL   H18332409   6.533   6.530   2.147  1.9989 -0.5333 -2.4979
  124MOL   C18432410   6.578   6.206   2.532  0.0279 -1.9578  0.1200
  124MOL   C18532411   6.688   6.135   2.459 -0.1429 -0.8919  0.1578
  124MOL   O18632412   6.630   6.025   2.389 -0.2181 -0.4071  0.0371
  124MOL   C18732413   6.591   6.067   2.263  0.2269  0.1883  0.1475
  124MOL   C18832414   6.512   5.951   2.198 -0.3622 -0.7445 -0.3843
  124MOL   H18932415   6.483   6.183   2.484  0.6964 -0.5110 -1.9244
  124MOL   H19032416   6.571   6.176   2.637  1.0098  2.5068  1.5536
  124MOL   H19132417   6.741   6.206   2.397  1.0656 -0.9469  1.1089
  124MOL   H19232418   6.680   6.086   2.203  1.2510 -1.6498  1.0372
  124MOL   H19332419   6.531   6.157   2.253 -1.9567 -1.3234 -0.9099
  124MOL   H19432420   6.576   5.863   2.192  2.6705  1.3931 -0.3958
  124MOL   H19532421   6.419   5.920   2.247  0.9934 -1.7731  1.6027
  124MOL   H19632422   6.483   5.970   2.095  2.0784 -0.1904 -0.9877
  124MOL   C19732423   6.784   6.072   2.567  0.2004 -0.8952  0.1594
  124MOL   C19832424   6.912   6.011   2.510 -0.0335  0.5888  0.6463
  124MOL   O19932425   7.003   6.100   2.442  0.4932  0.1325 -0.0263
  124MOL   C20032426   7.092   6.176   2.529  0.2751  0.2354  0.8110
  124MOL   C20132427   7.236   6.117   2.526  0.1999 -0.0615  0.5441
  124MOL   H20232428   6.733   5.991   2.619 -1.7127  0.0543 -0.1981
  124MOL   H20332429   6.813   6.145   2.643 -0.2552  1.8551 -2.2311
  124MOL   H20432430   6.964   5.965   2.593 -0.0871  2.7689  1.9419
  124MOL   H20532431   7.057   6.172   2.632 -0.2272 -0.1958  0.6293
  124MOL   H20632432   7.085   6.282   2.507 -0.8471 -0.9315 -5.7054
  124MOL   H20732433   7.308   6.187   2.568  1.1425 -1.5934  1.5353
  124MOL   H20832434   7.232   6.022   2.579  1.4592  0.6616  1.9919
  124MOL   H20932435   7.266   6.083   2.427  0.1929  2.3250 -0.2964
  124MOL   C21032436   6.889   5.887   2.415 -0.1313  0.3354  0.3419
  124MOL   C21132437   7.018   5.796   2.418  0.4446 -0.6642  0.1206
  124MOL   O21232438   7.029   5.716   2.300 -0.1830 -0.1160  0.2763
  124MOL   C21332439   7.091   5.783   2.190 -0.0852  1.0932 -0.0644
  124MOL   C21432440   7.121   5.690   2.073  0.3249  0.4911 -0.2669
  124MOL   H21532441   6.876   5.922   2.313 -1.0209  1.2430  0.7590
  124MOL   H21632442   6.803   5.825   2.443 -0.2337  0.7815  1.0152
  124MOL   H21732443   7.108   5.856   2.434 -0.6296  1.4629 -1.6261
  124MOL   H21832444   7.188   5.830   2.205 -0.1832  1.6712 -1.1249
  124MOL   H21932445   7.025   5.864   2.159 -0.6440 -0.4586 -3.1383
  124MOL   H22032446   7.194   5.624   2.120 -1.9867 -0.8941  1.4894
  124MOL   H22132447   7.030   5.643   2.036  1.2824 -0.3655 -1.6252
  124MOL   H22232448   7.145   5.743   1.981 -1.1670  1.5813 -0.0326
  124MOL   C22332449   7.012   5.695   2.532  0.4340  0.9006 -0.2385
  124MOL   C22432450   7.138   5.623   2.575 -0.3990 -0.0427 -0.0860
  124MOL   O22532451   7.217   5.729   2.632  0.5109 -0.2966  1.1901
  124MOL   C22632452   7.309   5.676   2.727 -0.0738  0.3660  0.3679
  124MOL   C22732453   7.312   5.783   2.834 -0.0626 -0.3131  0.4126
  124MOL   H22832454   6.933   5.620   2.523  1.3150 -0.1453  0.6311
  124MOL   H22932455   6.983   5.746   2.624 -1.2796 -0.4275 -0.0129
  124MOL   H23032456   7.106   5.560   2.658 -0.4921  0.7881  0.5262
  124MOL   H23132457   7.406   5.658   2.680  0.0866  1.6764  0.1902
  124MOL   H23232458   7.282   5.585   2.781  0.7288  0.9826  1.8338
  124MOL   H23332459   7.386   5.757   2.910 -0.8031 -1.3792  0.7941
  124MOL   H23432460   7.333   5.884   2.800 -0.7244 -0.0284  0.8456
  124MOL   H23532461   7.219   5.782   2.891  1.3113  1.9451  2.7936
  124MOL   C23632462   7.215   5.545   2.467 -0.0140  0.2484  0.1992
  124MOL   C23732463   7.141   5.411   2.432  1.0098  0.7675  0.0914
  124MOL   O23832464   7.139   5.339   2.559  0.6129  0.3125 -0.5017
  124MOL   C23932465   7.025   5.253   2.561 -0.2897  0.4339  0.2424
  124MOL   C24032466   7.005   5.210   2.704 -0.0313 -0.5881  0.4901
  124MOL   H24132467   7.316   5.530   2.506  1.3750  1.2827 -2.8640
  124MOL   H24232468   7.222   5.606   2.378 -1.1072 -0.8292 -0.6352
  124MOL   H24332469   7.045   5.437   2.387  0.4921 -0.8532  0.2296
  124MOL   H24432470   7.039   5.162   2.503 -3.1134 -0.2716  0.5675
  124MOL   H24532471   6.931   5.295   2.524  0.7127  2.6572  0.1901
  124MOL   H24632472   6.998   5.298   2.766 -2.1105  0.1532 -0.7427
  124MOL   H24732473   6.915   5.148   2.713 -0.1997 -1.2100 -4.0410
  124MOL   H24832474   7.092   5.150   2.732  0.8821  0.6956  0.4144
  124MOL   C24932475   7.218   5.316   2.338  0.2072 -0.2576  0.5330
  124MOL   C25032476   7.237   5.380   2.201 -0.2482 -0.6109 -0.2512
  124MOL   O25132477   7.339   5.305   2.134 -0.0670  0.0965  0.2238
  124MOL   C25232478   7.335   5.318   1.994  0.3327 -0.0321  0.7644
  124MOL   C25332479   7.246   5.220   1.925 -0.2501  0.5970 -0.0660
  124MOL   H25432480   7.167   5.224   2.309  0.7533  0.0001 -1.3166
  124MOL   H25532481   7.318   5.302   2.380  0.6441  0.3699 -0.2883
  124MOL   H25632482   7.148   5.386   2.139  0.6477  1.1682 -1.4084
  124MOL   H25732483   7.437   5.295   1.965  0.0871 -2.0854  1.4821
  124MOL   H25832484   7.316   5.420   1.959  0.1157 -0.6157 -0.8871
  124MOL   H25932485   7.145   5.258   1.939  0.6554  2.7665  0.7358
  124MOL   H26032486   7.268   5.201   1.820  1.7114  0.6372  0.3047
  124MOL   H26132487   7.263   5.121   1.969 -0.9958  0.1614 -0.7463
  124MOL   H26232488   7.280   5.479   2.217  1.1264 -1.5611  2.2037
  125MOL     C132489   2.906   0.564   3.435 -0.2742 -0.0042 -0.1607
  125MOL     C232490   2.970   0.435   3.388 -0.0686  0.3976 -0.4104
  125MOL     O332491   3.064   0.401   3.488  0.1295 -0.0050 -0.7754
  125MOL     C432492   3.016   0.302   3.573 -0.0579  0.2156 -0.3445
  125MOL     C532493   3.107   0.290   3.699 -0.5200 -0.1791  0.1562
  125MOL     H632494   2.977   0.641   3.464 -0.5251 -0.0225  0.5173
  125MOL     H732495   2.841   0.600   3.356 -0.4089  1.5818  0.6522
  125MOL     H832496   2.891   0.361   3.375  1.1944 -1.5014  2.4360
  125MOL     H932497   3.016   0.208   3.517 -2.0643  1.1306 -1.9356
  125MOL    H1032498   2.914   0.327   3.602 -0.6338 -1.2323 -1.1102
  125MOL    H1132499   3.085   0.200   3.758  2.5923  0.0287  1.7172
  125MOL    H1232500   3.211   0.300   3.669 -0.0939 -2.0230  0.9115
  125MOL    H1332501   3.096   0.373   3.768  0.8708  0.3725 -0.2730
  125MOL    H1432502   2.831   0.566   3.515  0.9972  2.0998  1.0239
  125MOL    C1532503   3.044   0.449   3.260 -0.0911 -0.8322 -0.3629
  125MOL    C1632504   3.106   0.323   3.188 -0.2468 -0.1915 -0.2656
  125MOL    O1732505   3.205   0.359   3.091 -0.2508  0.4464 -0.8063
  125MOL    C1832506   3.308   0.439   3.140  0.1968  0.2339  0.2329
  125MOL    C1932507   3.421   0.418   3.038  0.8408 -0.3006  0.6507
  125MOL    H2032508   3.125   0.518   3.282 -0.6277  0.4889 -2.3746
  125MOL    H2132509   2.981   0.507   3.192 -0.2112 -0.7293 -0.1652
  125MOL    H2232510   3.146   0.253   3.262 -0.1443  0.6885  0.5171
  125MOL    H2332511   3.342   0.399   3.235 -1.0874  2.0682  1.5054
  125MOL    H2432512   3.279   0.544   3.143  0.3415  0.3481 -1.7763
  125MOL    H2532513   3.388   0.410   2.934 -0.6730 -0.9646  1.1657
  125MOL    H2632514   3.467   0.321   3.058 -1.1322 -0.9829  1.9855
  125MOL    H2732515   3.492   0.500   3.039 -0.4614  0.8663 -0.6772
  125MOL    C2832516   2.989   0.249   3.117 -0.0306 -0.1899  0.2353
  125MOL    C2932517   3.026   0.107   3.068  0.6053  0.2264  0.5125
  125MOL    O3032518   2.909   0.063   3.016  0.1602  0.0296 -0.4187
  125MOL    C3132519   2.927   7.817   2.907  0.4403 -0.2822 -0.5333
  125MOL    C3232520   2.783   7.768   2.883 -0.1578  0.1394 -0.0089
  125MOL    H3332521   2.972   0.310   3.029  0.2016 -1.2498 -0.5546
  125MOL    H3432522   2.897   0.252   3.175  1.1448  3.0527  2.0274
  125MOL    H3532523   3.097   0.119   2.986  0.7219  1.1475  0.7511
  125MOL    H3632524   2.990   7.733   2.936  1.7594  1.6939  2.5495
  125MOL    H3732525   2.962   0.013   2.812 -2.8149  0.8904 -1.3254
  125MOL    H3832526   2.728   0.016   2.863 -1.6544 -1.4987 -3.6790
  125MOL    H3932527   2.784   7.694   2.803  0.9016  0.5829 -0.4138
  125MOL    H4032528   2.745   7.725   2.976  0.3501  1.0613  0.6420
  125MOL    C4132529   3.073   0.008   3.178  0.4273  0.0854 -0.1155
  125MOL    C4232530   3.221   7.810   3.158 -0.1934  0.5015  0.1117
  125MOL    O4332531   3.226   7.731   3.033  0.1900 -0.4227  0.6661
  125MOL    C4432532   3.345   7.740   2.954 -0.5821  0.0161  0.1697
  125MOL    C4532533   3.329   7.652   2.832  0.1847 -0.1612  0.1372
  125MOL    H4632534   3.002   7.769   3.185 -1.1128  1.2706 -1.5425
  125MOL    H4732535   3.065   0.059   3.275  0.3086 -1.5151  0.7367
  125MOL    H4832536   3.271   0.060   3.132 -3.3977  1.2905 -3.7406
  125MOL    H4932537   3.434   7.703   3.006 -0.6944 -0.5245 -0.0275
  125MOL    H5032538   3.350   7.841   2.914  1.9479 -0.0025  0.3762
  125MOL    H5132539   3.231   7.676   2.791  0.3270  1.6172  0.7935
  125MOL    H5232540   3.397   7.665   2.747  0.5778 -0.8257  0.3488
  125MOL    H5332541   3.330   7.549   2.867  0.7111 -1.0524 -2.3642
  125MOL    C5432542   3.293   7.741   3.274  0.0866 -0.2440  0.0146
  125MOL    C5532543   3.321   7.822   3.404 -0.5773  0.0721  0.0981
  125MOL    O5632544   3.445   0.047   3.397 -0.3966 -0.8027  0.3213
  125MOL    C5732545   3.433   0.185   3.443  0.5546  0.1068  0.6236
  125MOL    C5832546   3.569   0.254   3.457 -0.2755 -0.3135 -0.2189
  125MOL    H5932547   3.393   7.713   3.243 -0.3918  0.9004 -2.7161
  125MOL    H6032548   3.247   7.647   3.304  1.9753 -0.9598  0.7560
  125MOL    H6132549   3.236   0.046   3.410  0.5423  1.3015  2.5481
  125MOL    H6232550   3.387   0.179   3.542  0.8724  2.4499  0.9425
  125MOL    H6332551   3.374   0.242   3.372  0.0044 -0.0961  0.9182
  125MOL    H6432552   3.569   0.360   3.484 -2.8150 -0.2397 -0.3805
  125MOL    H6532553   3.625   0.203   3.534 -0.0669 -0.6193 -0.5711
  125MOL    H6632554   3.624   0.244   3.363 -0.6740 -1.1642 -0.3642
  125MOL    C6732555   3.336   7.725   3.523  0.2274  0.2443 -0.5251
  125MOL    C6832556   3.214   7.720   3.613  0.1451 -0.8260  0.5462
  125MOL    O6932557   3.238   7.651   3.733  0.0998  0.3395 -0.3127
  125MOL    C7032558   3.332   7.705   3.825  0.2289 -0.7797  0.1662
  125MOL    C7132559   3.269   7.673   3.962  0.2958 -0.5441  0.6459
  125MOL    H7232560   3.419   7.746   3.591  1.4417 -2.5540 -1.0768
  125MOL    H7332561   3.362   7.622   3.497  0.7892  0.5139 -1.0547
  125MOL    H7432562   3.188   7.821   3.645  0.5440 -0.7328  0.5793
  125MOL    H7532563   3.335   7.814   3.825 -0.2753 -0.7676  1.1762
  125MOL    H7632564   3.436   7.674   3.808  0.8772  2.3236 -1.9136
  125MOL    H7732565   3.175   7.730   3.966  0.2311 -0.4139 -1.8195
  125MOL    H7832566   3.257   7.566   3.980 -0.1646 -0.8318 -1.2158
  125MOL    H7932567   3.333   7.720   4.037  1.7574  1.5884 -1.8622
  125MOL    C8032568   3.090   7.644   3.555  0.0499 -0.5917 -0.4317
  125MOL    C8132569   2.948   7.679   3.614 -0.7030 -0.5761  0.6445
  125MOL    O8232570   2.902   7.804   3.563  0.1629 -0.0845 -0.2422
  125MOL    C8332571   2.776   7.800   3.495  0.0860  0.1889 -0.1000
  125MOL    C8432572   2.746   0.098   3.451 -0.2047 -0.4587 -0.0007
  125MOL    H8532573   3.123   7.541   3.556  3.9524  0.5543  2.4117
  125MOL    H8632574   3.067   7.656   3.449 -0.9703 -1.2276 -0.2822
  125MOL    H8732575   2.883   7.596   3.588 -0.4801 -0.5475 -0.0232
  125MOL    H8832576   2.691   7.759   3.550 -0.5738 -0.8237 -1.8441
  125MOL    H8932577   2.792   7.730   3.413 -2.0603 -1.2422  0.6384
  125MOL    H9032578   2.831   0.129   3.390  1.1256  1.0315  2.4854
  125MOL    H9132579   2.652   0.126   3.404  0.2226  1.8177  0.4138
  125MOL    H9232580   2.750   0.164   3.538 -2.6860 -0.0493 -0.1679
  125MOL    C9332581   2.955   7.688   3.765 -1.1235  0.5864  0.0247
  125MOL    C9432582   2.820   7.674   3.838 -0.2270 -0.7175  0.4262
  125MOL    O9532583   2.826   7.742   3.958  0.0775 -0.5383 -0.3622
  125MOL    C9632584   2.792   0.042   3.948  0.0495  1.5346  0.2934
  125MOL    C9732585   2.835   0.125   4.063  0.1545  0.7001 -0.7087
  125MOL    H9832586   3.008   7.773   3.805 -0.4367 -0.1952  0.7763
  125MOL    H9932587   3.019   7.610   3.807 -1.2370  0.2775 -0.3684
  125MOL   H10032588   2.750   7.726   3.772  0.7548 -2.0446 -1.7072
  125MOL   H10132589   2.683   0.042   3.937  0.1717  1.0764 -0.9970
  125MOL   H10232590   2.840   0.090   3.863  0.8145  0.3054  0.0079
  125MOL   H10332591   2.787   0.090   4.154 -0.1521 -1.8757 -1.8145
  125MOL   H10432592   2.943   0.113   4.074 -0.1106 -0.7458  0.5381
  125MOL   H10532593   2.817   0.230   4.038  0.2553  0.4715 -1.7640
  125MOL   C10632594   2.787   7.525   3.858 -0.1655  0.3495  0.0100
  125MOL   C10732595   2.663   7.490   3.935  0.6184  0.1053 -0.0023
  125MOL   O10832596   2.668   7.353   3.968 -0.1136 -0.0766 -0.0891
  125MOL   C10932597   2.616   7.316   4.096  0.5276 -0.3057  0.0172
  125MOL   C11032598   2.639   7.167   4.114  0.0049 -0.1423  0.1147
  125MOL   H11132599   2.872   7.489   3.916 -0.6019 -3.3059 -1.5118
  125MOL   H11232600   2.795   7.479   3.759 -2.2050  0.6773 -0.3226
  125MOL   H11332601   2.662   7.547   4.028  1.6729 -0.4035  0.3335
  125MOL   H11432602   2.517   7.359   4.111  0.7105  0.3416 -0.6040
  125MOL   H11532603   2.678   7.374   4.164 -1.1896  2.9625 -1.0933
  125MOL   H11632604   2.728   7.140   4.056 -0.2200  3.2518 -1.9892
  125MOL   H11732605   2.643   7.145   4.220  1.7194  0.0933  0.1193
  125MOL   H11832606   2.557   7.114   4.065 -1.3992  0.9054  1.2847
  125MOL   C11932607   2.531   7.512   3.853 -0.0008 -0.1507 -0.0036
  125MOL   C12032608   2.459   7.642   3.876  0.7269  0.4271 -0.0653
  125MOL   O12132609   2.432   7.634   4.014 -0.5636  0.0066 -0.5002
  125MOL   C12232610   2.433   7.760   4.082 -0.6893  0.3752  0.6536
  125MOL   C12332611   2.412   7.724   4.234  0.0739 -0.3587  0.6093
  125MOL   H12432612   2.453   7.439   3.874  0.5569 -0.2270  1.8567
  125MOL   H12532613   2.555   7.493   3.748  0.4770 -3.2050  0.5957
  125MOL   H12632614   2.532   7.721   3.860  0.3097  0.6952 -0.6198
  125MOL   H12732615   2.357   7.825   4.039 -0.0422  1.9499  1.8425
  125MOL   H12832616   2.530   7.809   4.077 -0.3826 -0.3765 -0.8806
  125MOL   H12932617   2.402   7.816   4.292  3.1143 -0.0118  0.6605
  125MOL   H13032618   2.319   7.669   4.243  0.0119 -0.3633 -0.0316
  125MOL   H13132619   2.495   7.662   4.269  0.8262  0.5489  0.4701
  125MOL   C13232620   2.323   7.656   3.794 -0.3251 -0.3441 -1.2378
  125MOL   C13332621   2.288   7.803   3.751 -0.1175  0.9466 -0.3974
  125MOL   O13432622   2.180   7.801   3.668 -0.4886  0.1608 -0.0005
  125MOL   C13532623   2.064   0.007   3.739 -1.3166  0.3657  0.4041
  125MOL   C13632624   1.956   0.016   3.635  0.4814  0.6665 -0.2905
  125MOL   H13732625   2.246   7.631   3.866  0.8440 -1.1736 -0.2622
  125MOL   H13832626   2.334   7.597   3.703  0.8527  0.5809 -1.7120
  125MOL   H13932627   2.270   0.019   3.841  1.0763  1.7598 -0.6891
  125MOL   H14032628   2.077   0.107   3.780 -2.1908 -0.0962  1.8543
  125MOL   H14132629   2.030   7.783   3.819  1.7972 -0.3507  1.2109
  125MOL   H14232630   1.851   0.020   3.665 -0.0379 -0.5372 -1.8290
  125MOL   H14332631   1.982   0.098   3.567 -0.5224  0.2101 -1.2476
  125MOL   H14432632   1.968   7.766   3.580 -0.2039  0.5549 -0.2511
  125MOL   C14532633   2.391   0.032   3.665 -0.2049 -0.7821  0.1736
  125MOL   C14632634   2.406   0.182   3.706  0.4546  0.7958  0.3524
  125MOL   O14732635   2.470   0.246   3.596 -0.1396 -0.0128  0.2595
  125MOL   C14832636   2.388   0.352   3.531  0.6442  0.0479 -0.6223
  125MOL   C14932637   2.451   0.365   3.395  0.0132 -0.7744  0.3780
  125MOL   H15032638   2.355   0.028   3.562  0.0585  3.0869 -0.1273
  125MOL   H15132639   2.490   7.829   3.666 -0.1357 -0.7212  3.5399
  125MOL   H15232640   2.306   0.220   3.724  0.5213  0.4405  1.5303
  125MOL   H15332641   2.403   0.445   3.585  0.1508  1.3612 -2.6995
  125MOL   H15432642   2.282   0.328   3.520 -0.0352  1.7386  1.9607
  125MOL   H15532643   2.429   0.272   3.343  0.5614 -0.7699  0.1265
  125MOL   H15632644   2.412   0.452   3.341 -1.5766 -1.5080  0.3249
  125MOL   H15732645   2.560   0.370   3.389 -0.0845 -0.8874 -2.1063
  125MOL   C15832646   2.483   0.209   3.830 -0.6750  0.3442 -0.6716
  125MOL   C15932647   2.477   0.356   3.876 -0.1538  0.5557  0.9637
  125MOL   O16032648   2.609   0.400   3.904 -0.3454 -0.0235  0.3283
  125MOL   C16132649   2.666   0.472   3.795 -0.1859  0.2432 -0.0817
  125MOL   C16232650   2.803   0.512   3.843  0.5030 -0.1570 -0.2580
  125MOL   H16332651   2.589   0.189   3.814 -0.9499 -1.5567 -0.2449
  125MOL   H16432652   2.456   0.152   3.919 -0.0054  2.7345  1.1370
  125MOL   H16532653   2.432   0.416   3.797 -0.2788 -1.6593 -0.7088
  125MOL   H16632654   2.609   0.565   3.791 -0.4584 -0.0044 -2.5127
  125MOL   H16732655   2.676   0.414   3.703  0.9926  0.1103  0.1260
  125MOL   H16832656   2.854   0.423   3.881 -2.0858 -1.5768  0.0446
  125MOL   H16932657   2.860   0.558   3.763  0.5120 -2.6836 -1.7638
  125MOL   H17032658   2.792   0.594   3.914 -3.4793  0.5641 -1.5659
  125MOL   C17132659   2.410   0.379   4.013 -0.0379  0.0764 -0.3683
  125MOL   C17232660   2.258   0.381   4.014  0.4894  0.1614 -0.7052
  125MOL   O17332661   2.210   0.245   4.006 -0.5139 -0.5638 -0.2874
  125MOL   C17432662   2.160   0.194   4.130  0.2615 -0.2565  0.2015
  125MOL   C17532663   2.055   0.091   4.100  0.5447  0.7628 -0.7334
  125MOL   H17632664   2.454   0.474   4.043 -2.1888  1.2442 -0.8281
  125MOL   H17732665   2.445   0.323   4.100 -1.4508  0.7771  0.6881
  125MOL   H17832666   2.231   0.417   4.113  0.4034  0.5012 -0.8514
  125MOL   H17932667   2.114   0.264   4.200 -0.2839  0.6849 -1.0904
  125MOL   H18032668   2.240   0.140   4.181 -0.6868  0.5763  2.6872
  125MOL   H18132669   2.001   0.034   4.176  1.8014 -2.4327 -2.1426
  125MOL   H18232670   1.979   0.147   4.045  0.9969  1.3513 -0.7526
  125MOL   H18332671   2.094   0.012   4.035 -1.8365 -0.2070 -1.0855
  125MOL   C18432672   2.195   0.462   3.904 -0.2868  0.1482  0.1579
  125MOL   C18532673   2.039   0.483   3.921  0.2250 -0.5039  0.4722
  125MOL   O18632674   1.988   0.516   3.792  0.0380 -0.1462  0.7293
  125MOL   C18732675   1.927   0.410   3.727 -0.1708  0.5836 -0.2500
  125MOL   C18832676   1.911   0.430   3.573  0.7705 -0.2442 -0.2729
  125MOL   H18932677   2.210   0.405   3.812  0.1547 -0.1979  0.4415
  125MOL   H19032678   2.244   0.558   3.895  1.2581 -0.6517 -0.0596
  125MOL   H19132679   1.989   0.390   3.949  0.1574 -0.5852  0.0749
  125MOL   H19232680   1.827   0.398   3.768 -0.2796 -0.2003 -0.7344
  125MOL   H19332681   1.981   0.317   3.743 -1.1248  0.3574  1.8716
  125MOL   H19432682   1.851   0.516   3.545  0.2991 -0.3999  0.2420
  125MOL   H19532683   2.011   0.432   3.531  0.1363 -0.0727 -1.8078
  125MOL   H19632684   1.868   0.337   3.535  1.3119 -0.5542 -0.1245
  125MOL   C19732685   2.005   0.614   3.998  0.0087  0.2733  0.7322
  125MOL   C19832686   1.943   0.601   4.133 -0.2131  0.3324  0.2098
  125MOL   O19932687   2.036   0.534   4.219 -0.1994 -0.0030 -0.3120
  125MOL   C20032688   2.057   0.579   4.350  0.5583 -0.4024  0.4504
  125MOL   C20132689   2.182   0.667   4.351  0.2513 -0.0208  0.2985
  125MOL   H20232690   1.946   0.681   3.935 -1.0231 -0.5168  0.8457
  125MOL   H20332691   2.092   0.676   4.016 -0.0506  0.3104  0.8838
  125MOL   H20432692   1.924   0.704   4.164  2.4807  0.8053  0.3547
  125MOL   H20532693   2.074   0.486   4.405  0.4993  0.4298  1.9146
  125MOL   H20632694   1.966   0.624   4.389  1.9577  1.6152  1.4796
  125MOL   H20732695   2.266   0.600   4.329  0.9700  1.3499 -1.2613
  125MOL   H20832696   2.170   0.751   4.283 -0.7655  0.8877  1.5958
  125MOL   H20932697   2.207   0.706   4.450 -2.9211 -0.7046  1.4325
  125MOL   C21032698   1.808   0.525   4.147  1.1642 -0.0518  0.3624
  125MOL   C21132699   1.691   0.597   4.084 -0.0918  0.1648  0.3432
  125MOL   O21232700   1.658   0.710   4.168  0.0765  0.1598  0.0209
  125MOL   C21332701   1.673   0.828   4.087 -0.2894  0.0254 -1.0839
  125MOL   C21432702   1.688   0.963   4.161 -0.3865  0.7625  0.1032
  125MOL   H21532703   1.772   0.513   4.249  1.2413  0.1822  0.4181
  125MOL   H21632704   1.818   0.425   4.105  3.6236  0.5277 -0.5142
  125MOL   H21732705   1.722   0.615   3.981  1.3247  0.9639  0.8987
  125MOL   H21832706   1.584   0.826   4.024 -0.7572 -0.1919 -0.4281
  125MOL   H21932707   1.764   0.824   4.027  1.5882 -1.5001  1.7311
  125MOL   H22032708   1.604   0.986   4.226 -0.6297 -2.1220  0.8529
  125MOL   H22132709   1.780   0.965   4.219 -1.7044 -1.0092  2.3174
  125MOL   H22232710   1.696   1.047   4.092 -2.6176  2.4848  1.8749
  125MOL   C22332711   1.555   0.519   4.082  0.2873 -0.5135  0.8473
  125MOL   C22432712   1.529   0.413   3.973  0.3318  0.0087  0.4219
  125MOL   O22532713   1.633   0.315   3.987  0.1299  0.0031  0.1260
  125MOL   C22632714   1.603   0.202   3.904  0.3874  0.0123 -0.8593
  125MOL   C22732715   1.735   0.117   3.918  0.0056 -0.3271 -0.1226
  125MOL   H22832716   1.471   0.587   4.065  0.0362 -0.5806  1.7890
  125MOL   H22932717   1.528   0.481   4.180 -1.2337  0.5729  0.8716
  125MOL   H23032718   1.441   0.356   3.999  0.4639 -1.0075 -1.2933
  125MOL   H23132719   1.583   0.218   3.799  0.6233  0.7562 -0.7960
  125MOL   H23232720   1.523   0.149   3.955  0.5085  0.2679 -0.4001
  125MOL   H23332721   1.814   0.173   3.868 -0.5816  0.6926  0.0780
  125MOL   H23432722   1.766   0.111   4.023 -1.0240  1.6838  0.3291
  125MOL   H23532723   1.738   0.015   3.880 -0.8069 -0.5776  0.4637
  125MOL   C23632724   1.527   0.471   3.829  0.0339 -0.2935 -0.3691
  125MOL   C23732725   1.435   0.589   3.792 -0.1245  0.6873 -0.1606
  125MOL   O23832726   1.301   0.550   3.825 -0.2182  0.1192 -0.4011
  125MOL   C23932727   1.211   0.656   3.825 -0.0161 -0.2683 -0.1266
  125MOL   C24032728   1.084   0.599   3.894  0.5783 -0.5178 -0.2508
  125MOL   H24132729   1.513   0.403   3.746  1.1846  0.6867 -1.3791
  125MOL   H24232730   1.631   0.505   3.825 -0.1109  0.3345  0.7858
  125MOL   H24332731   1.462   0.666   3.865 -2.1625 -1.2144  2.6727
  125MOL   H24432732   1.186   0.681   3.721 -1.7464  0.0119  0.3354
  125MOL   H24532733   1.254   0.744   3.872  1.4751  0.2871 -2.4318
  125MOL   H24632734   1.006   0.675   3.900 -1.6305 -2.5471 -2.1728
  125MOL   H24732735   1.033   0.515   3.846 -0.0837  0.2787 -0.9565
  125MOL   H24832736   1.114   0.580   3.997  0.1749  0.4983  0.0572
  125MOL   C24932737   1.454   0.629   3.639 -0.6861 -0.1183 -0.0839
  125MOL   C25032738   1.597   0.682   3.618  0.5609  0.1385 -0.2488
  125MOL   O25132739   1.623   0.800   3.695 -0.1563 -0.8388  0.6098
  125MOL   C25232740   1.759   0.841   3.695  0.2311 -0.6257 -0.5168
  125MOL   C25332741   1.752   0.990   3.745  0.4246  1.1892  0.2463
  125MOL   H25432742   1.378   0.703   3.612 -0.9139 -0.2643  0.1538
  125MOL   H25532743   1.455   0.543   3.573 -1.8922  0.1819 -0.5032
  125MOL   H25632744   1.673   0.608   3.639  1.2614  1.3395  1.6500
  125MOL   H25732745   1.812   0.834   3.600  2.4493 -0.4451  0.6785
  125MOL   H25832746   1.818   0.776   3.759  0.0369 -0.5341 -0.2452
  125MOL   H25932747   1.850   1.025   3.778  1.6266  0.4128 -2.3479
  125MOL   H26032748   1.717   1.070   3.680 -1.6985 -0.4638 -0.7265
  125MOL   H26132749   1.676   0.993   3.823 -0.6060  0.3938 -0.7189
  125MOL   H26232750   1.617   0.689   3.511  1.2163 -0.8931 -0.1976
  126MOL     C132751   5.813   6.885   2.060 -1.1102 -0.8241  0.0038
  126MOL     C232752   5.928   6.982   2.041 -0.3841  0.8431 -1.0272
  126MOL     O332753   6.036   6.896   2.004 -0.6317  0.3434  0.2978
  126MOL     C432754   6.150   6.964   1.954 -0.4222 -0.2034  0.3254
  126MOL     C532755   6.249   6.867   1.881  0.0975  0.0649 -0.4677
  126MOL     H632756   5.789   6.832   1.968 -0.7308 -0.7741 -0.1270
  126MOL     H732757   5.844   6.810   2.133 -1.7460 -1.6244 -0.5410
  126MOL     H832758   5.904   7.049   1.958 -2.2266  1.4408 -0.0425
  126MOL     H932759   6.198   7.015   2.038  0.3552  0.5313 -0.5448
  126MOL    H1032760   6.129   7.055   1.898 -1.1796 -0.7577 -0.3006
  126MOL    H1132761   6.293   6.795   1.950  1.3420  0.9219 -0.3469
  126MOL    H1232762   6.203   6.814   1.798  0.2532 -0.0313 -0.4914
  126MOL    H1332763   6.336   6.925   1.849  0.6208  1.0727  2.5767
  126MOL    H1432764   5.725   6.939   2.093  0.6633  1.5065  1.0497
  126MOL    C1532765   5.967   7.068   2.164  0.1700 -0.0170 -0.3967
  126MOL    C1632766   5.856   7.121   2.257 -0.0958 -1.3519  0.7095
  126MOL    O1732767   5.818   7.250   2.206 -0.7631  0.1338  0.0118
  126MOL    C1832768   5.680   7.254   2.175  0.2586  0.2291  0.0929
  126MOL    C1932769   5.643   7.393   2.123 -0.5434  0.2167  0.1474
  126MOL    H2032770   6.027   7.153   2.132 -0.4299  1.6825  2.6921
  126MOL    H2132771   6.022   7.004   2.233  2.5478  1.4434 -0.8756
  126MOL    H2232772   5.771   7.053   2.251 -0.5730 -0.7436  0.6494
  126MOL    H2332773   5.623   7.222   2.262 -0.2067  1.6757  0.3357
  126MOL    H2432774   5.654   7.183   2.097  0.0804 -0.7254  1.0228
  126MOL    H2532775   5.539   7.402   2.092 -0.1919  0.9565 -0.8578
  126MOL    H2632776   5.692   7.425   2.031 -2.2762  1.7671 -0.2495
  126MOL    H2732777   5.673   7.474   2.190  0.0625  1.5790 -1.7240
  126MOL    C2832778   5.895   7.142   2.405 -0.6204 -0.6344 -0.4644
  126MOL    C2932779   5.884   7.008   2.476  0.6460 -0.2246  0.2276
  126MOL    O3032780   5.745   6.974   2.468  0.5836 -0.3093 -0.7099
  126MOL    C3132781   5.714   6.840   2.519 -0.3635  0.2392 -0.0111
  126MOL    C3232782   5.561   6.819   2.504 -0.1348 -0.5787 -0.2332
  126MOL    H3332783   5.840   7.213   2.466  0.8995 -1.2775  1.6826
  126MOL    H3432784   5.994   7.186   2.398  0.0046 -2.2467 -2.1333
  126MOL    H3532785   5.931   6.930   2.417 -0.8281  0.3634 -1.7921
  126MOL    H3632786   5.750   6.819   2.620 -0.3354  0.0422 -0.0603
  126MOL    H3732787   5.763   6.775   2.446  0.3529  1.6073 -0.7658
  126MOL    H3832788   5.533   6.719   2.536  0.4854 -0.6147  0.1978
  126MOL    H3932789   5.510   6.894   2.564  0.5721  0.3377 -0.7601
  126MOL    H4032790   5.534   6.839   2.400 -1.2206 -1.5020 -0.1420
  126MOL    C4132791   5.935   7.007   2.622 -1.0617  0.3669  0.0985
  126MOL    C4232792   6.079   7.065   2.647  0.1042  0.6934 -0.1234
  126MOL    O4332793   6.158   6.966   2.586  0.3755 -0.2498  0.5829
  126MOL    C4432794   6.287   7.003   2.543 -1.1579 -0.2703  0.2838
  126MOL    C4532795   6.360   6.890   2.464  0.2724  0.1922  0.3117
  126MOL    H4632796   5.944   6.904   2.655  0.1996  0.5183  0.2491
  126MOL    H4732797   5.854   7.049   2.682 -1.5251 -0.4568  0.0592
  126MOL    H4832798   6.093   7.157   2.590 -0.3832  0.5290 -0.5091
  126MOL    H4932799   6.343   7.040   2.629  0.4929 -0.3955 -0.7113
  126MOL    H5032800   6.277   7.087   2.474 -1.5927 -1.5746 -1.2752
  126MOL    H5132801   6.450   6.923   2.412  1.5230 -2.0631  0.9674
  126MOL    H5232802   6.390   6.806   2.527  0.4660 -0.6635 -0.9161
  126MOL    H5332803   6.291   6.844   2.394  0.5330  0.4185 -0.0923
  126MOL    C5432804   6.114   7.095   2.795  0.0917  0.2573 -0.0182
  126MOL    C5532805   6.041   7.219   2.853  0.6752 -0.0884 -0.5939
  126MOL    O5632806   6.082   7.334   2.773 -0.1167  0.0397 -0.1674
  126MOL    C5732807   5.980   7.414   2.713 -0.3972  0.6758 -0.1813
  126MOL    C5832808   6.043   7.500   2.602 -0.3909 -0.0765  0.9430
  126MOL    H5932809   6.219   7.123   2.797  0.4999 -1.2637  1.0442
  126MOL    H6032810   6.105   7.009   2.861  0.7346  0.6993  0.6480
  126MOL    H6132811   5.934   7.200   2.845  0.0240  2.3297  1.6677
  126MOL    H6232812   5.945   7.487   2.786 -1.8697 -0.4729  0.2731
  126MOL    H6332813   5.900   7.356   2.667 -0.1022  1.2422 -1.4351
  126MOL    H6432814   5.970   7.557   2.545  0.8378  2.4882  1.8326
  126MOL    H6532815   6.119   7.570   2.639 -1.8334  1.9654  0.1413
  126MOL    H6632816   6.100   7.443   2.529 -0.5706  0.6143  0.2527
  126MOL    C6732817   6.070   7.245   2.998 -0.2081  0.1326  0.1510
  126MOL    C6832818   5.994   7.364   3.062 -0.3130  0.6074 -0.0101
  126MOL    O6932819   6.028   7.386   3.197  0.0470  0.0291  0.5810
  126MOL    C7032820   6.149   7.455   3.227 -0.7964 -0.7312 -0.9683
  126MOL    C7132821   6.152   7.454   3.378  0.8573 -0.3958  0.4204
  126MOL    H7232822   6.176   7.266   3.011 -0.1066 -0.9259  1.1233
  126MOL    H7332823   6.041   7.156   3.055 -1.5911 -0.6248 -1.6701
  126MOL    H7432824   6.033   7.447   3.002 -2.7525  0.9592 -1.1956
  126MOL    H7532825   6.149   7.559   3.194 -0.5143 -0.3052  0.3560
  126MOL    H7632826   6.235   7.399   3.189 -1.1152 -0.7958 -1.5978
  126MOL    H7732827   6.254   7.478   3.409 -0.0793  1.0403  2.4731
  126MOL    H7832828   6.082   7.531   3.411 -0.3904 -2.2870  2.2692
  126MOL    H7932829   6.114   7.358   3.412 -1.3218 -0.4395 -1.9872
  126MOL    C8032830   5.845   7.357   3.052 -0.3838  0.0041 -0.5036
  126MOL    C8132831   5.770   7.484   3.090 -0.0178 -0.5450  0.4196
  126MOL    O8232832   5.776   7.507   3.232  0.1753 -0.3453 -0.3099
  126MOL    C8332833   5.816   7.641   3.260 -0.2122 -0.1038 -0.0414
  126MOL    C8432834   5.710   7.747   3.267  0.4002  0.0652 -0.0399
  126MOL    H8532835   5.811   7.284   3.125 -1.4288  0.7201 -0.2683
  126MOL    H8632836   5.819   7.322   2.951  0.6188  0.0108 -0.7766
  126MOL    H8732837   5.817   7.557   3.024  0.5523 -0.1454  1.2645
  126MOL    H8832838   5.893   7.675   3.190  0.2568 -1.2008 -0.0803
  126MOL    H8932839   5.866   7.632   3.357 -0.0223 -0.5053 -0.1726
  126MOL    H9032840   5.633   7.705   3.332 -1.9060 -1.3115 -3.5313
  126MOL    H9132841   5.750   7.834   3.318  2.7434  0.0185 -1.7500
  126MOL    H9232842   5.677   7.763   3.164 -0.2096 -1.7806 -0.1497
  126MOL    C9332843   5.613   7.479   3.059  0.1912 -0.1294 -0.3544
  126MOL    C9432844   5.564   7.467   2.915 -0.0427  0.5738  0.5749
  126MOL    O9532845   5.610   7.343   2.851 -0.1471  0.5115 -1.2388
  126MOL    C9632846   5.542   7.224   2.900  0.0726  0.3812 -0.4231
  126MOL    C9732847   5.571   7.091   2.826 -0.0616 -0.3522 -0.5591
  126MOL    H9832848   5.560   7.563   3.103 -0.1800 -0.5061 -0.0794
  126MOL    H9932849   5.570   7.397   3.117  1.7285 -2.1144 -1.9398
  126MOL   H10032850   5.456   7.466   2.910 -0.1990 -0.8774  3.2389
  126MOL   H10132851   5.434   7.243   2.897 -0.2709 -1.1722  1.4160
  126MOL   H10232852   5.547   7.203   3.007  0.1761  0.2426 -0.4554
  126MOL   H10332853   5.676   7.061   2.832 -0.0822 -0.5705 -1.2607
  126MOL   H10432854   5.516   7.009   2.872 -0.6785  0.0056 -0.6633
  126MOL   H10532855   5.550   7.095   2.719  1.4826 -1.7649 -0.9436
  126MOL   C10632856   5.601   7.579   2.815  0.0823  0.1399  0.7985
  126MOL   C10732857   5.574   7.717   2.875  0.3676 -0.0363  0.0689
  126MOL   O10832858   5.440   7.729   2.893  0.1154  0.2399  1.0981
  126MOL   C10932859   5.399   7.810   3.010 -0.4230  0.6041  1.0663
  126MOL   C11032860   5.247   7.840   3.011 -0.1701  0.5252 -0.1953
  126MOL   H11132861   5.560   7.567   2.715  1.3152  0.0664  0.2853
  126MOL   H11232862   5.709   7.564   2.809  0.5920  3.6441 -0.0828
  126MOL   H11332863   5.634   7.718   2.965 -1.3898  2.5272  1.2844
  126MOL   H11432864   5.454   0.060   3.013 -0.2318  0.5417 -0.1897
  126MOL   H11532865   5.429   7.754   3.098  0.3604 -0.0781  0.3768
  126MOL   H11632866   5.226   0.063   3.095  0.3556  0.8090 -0.2892
  126MOL   H11732867   5.217   0.051   2.922  2.4536  1.6693 -0.4157
  126MOL   H11832868   5.184   7.751   3.005  1.2921 -0.6707  1.7445
  126MOL   C11932869   5.598   7.831   2.778 -0.2829  0.0401 -0.1713
  126MOL   C12032870   5.742   0.013   2.725 -0.0525 -0.1857 -0.3710
  126MOL   O12132871   5.817   0.022   2.845 -0.6442 -0.1501  0.0834
  126MOL   C12232872   5.962   0.041   2.829  0.1413 -0.2544 -0.2367
  126MOL   C12332873   6.026   7.802   2.944  0.6039 -0.3286  0.3077
  126MOL   H12432874   5.570   0.081   2.826  1.3727 -0.5689  2.0819
  126MOL   H12532875   5.538   7.817   2.688 -1.1640  0.4801  0.3343
  126MOL   H12632876   5.776   7.773   2.664 -0.9070  0.5450 -1.8557
  126MOL   H12732877   5.978   0.147   2.848 -0.5913 -0.3944  1.2342
  126MOL   H12832878   6.003   0.010   2.733  1.9783  1.3900 -0.0223
  126MOL   H12932879   6.009   0.011   3.038  1.0969  1.4662 -0.5827
  126MOL   H13032880   5.987   7.703   2.966  1.7184 -1.1000 -1.0913
  126MOL   H13132881   6.133   7.783   2.930  0.5719 -0.2524 -0.0534
  126MOL   C13232882   5.750   0.144   2.651 -0.0780 -0.4085 -0.3762
  126MOL   C13332883   5.666   0.164   2.526  0.6671  0.2871  0.0314
  126MOL   O13432884   5.672   0.050   2.435 -0.0182 -0.4314 -0.5212
  126MOL   C13532885   5.564   0.049   2.341  0.2781  0.2238 -0.5422
  126MOL   C13632886   5.578   7.751   2.286  0.5195 -0.5091 -0.6151
  126MOL   H13732887   5.850   0.154   2.608 -0.2404 -0.3974 -0.7587
  126MOL   H13832888   5.736   0.229   2.718 -0.3949  0.0807 -1.0594
  126MOL   H13932889   5.563   0.167   2.562 -0.1947 -2.5093 -2.0275
  126MOL   H14032890   5.579   0.120   2.259  1.5516 -1.9757 -2.2860
  126MOL   H14132891   5.469   0.068   2.391 -0.0053  0.2440 -1.0852
  126MOL   H14232892   5.503   7.734   2.209 -0.9441 -0.4679  0.7679
  126MOL   H14332893   5.674   7.725   2.242  0.8751 -1.4694  0.6849
  126MOL   H14432894   5.558   7.679   2.366 -0.1956 -1.1089 -1.3311
  126MOL   C14532895   5.701   0.291   2.450 -0.1196  0.6201  0.3560
  126MOL   C14632896   5.730   0.419   2.531  0.4375 -0.3189 -0.0290
  126MOL   O14732897   5.618   0.439   2.620  0.2108 -0.5121  0.1740
  126MOL   C14832898   5.657   0.508   2.740  0.3258 -0.2891 -0.7822
  126MOL   C14932899   5.552   0.462   2.838 -0.4465 -0.0961  0.7021
  126MOL   H15032900   5.621   0.310   2.379 -0.5867 -0.0675  0.6917
  126MOL   H15132901   5.786   0.263   2.387  0.3432  0.9805  0.8260
  126MOL   H15232902   5.810   0.400   2.603 -0.2921 -0.6348  0.7071
  126MOL   H15332903   5.656   0.617   2.729  0.6508 -0.3129 -1.0646
  126MOL   H15432904   5.750   0.476   2.788  0.0169  0.7820  0.5625
  126MOL   H15532905   5.573   0.509   2.934 -1.1898  1.5492  0.0968
  126MOL   H15632906   5.451   0.495   2.811  0.8828  1.6887 -2.2242
  126MOL   H15732907   5.543   0.354   2.833 -1.1606 -0.1162  2.0092
  126MOL   C15832908   5.770   0.547   2.449 -0.0305  0.4869  0.2423
  126MOL   C15932909   5.915   0.538   2.402 -0.3394 -0.2231 -0.1390
  126MOL   O16032910   5.970   0.663   2.433 -0.2280 -0.1977 -0.0192
  126MOL   C16132911   6.032   0.674   2.560 -0.1300  0.1201  0.1822
  126MOL   C16232912   6.043   0.824   2.586 -0.5206 -0.1813 -0.0086
  126MOL   H16332913   5.764   0.636   2.512  2.1552  1.3635 -0.7505
  126MOL   H16432914   5.697   0.564   2.369  0.7268  1.1573 -0.3122
  126MOL   H16532915   5.975   0.460   2.448  0.4943  0.8719  0.6654
  126MOL   H16632916   6.130   0.627   2.549  0.3625  1.1592  0.0752
  126MOL   H16732917   5.973   0.624   2.637  0.5679 -2.0076 -0.6161
  126MOL   H16832918   6.075   0.827   2.690 -0.5602 -0.9725  0.0355
  126MOL   H16932919   6.118   0.855   2.514 -0.6443 -0.6194 -0.3270
  126MOL   H17032920   5.948   0.878   2.581 -0.0619  0.4660 -2.0697
  126MOL   C17132921   5.929   0.525   2.250  0.4468 -0.2476  0.0070
  126MOL   C17232922   6.077   0.542   2.201  0.4178 -0.0721  0.3512
  126MOL   O17332923   6.082   0.624   2.080 -0.5250  0.5718  0.0291
  126MOL   C17432924   6.095   0.760   2.122  0.0742 -0.6910  0.4105
  126MOL   C17532925   6.125   0.850   2.000  0.4129 -0.1238  0.0517
  126MOL   H17632926   5.866   0.600   2.201 -1.3803 -1.8749 -0.1679
  126MOL   H17732927   5.886   0.429   2.222  0.0717 -0.7799  2.3315
  126MOL   H17832928   6.142   0.575   2.281 -2.3512 -0.1195  2.7263
  126MOL   H17932929   6.165   0.785   2.201  0.4830  2.1410 -0.8123
  126MOL   H18032930   5.992   0.787   2.148 -0.1464 -0.2459 -0.9010
  126MOL   H18132931   6.073   0.829   1.906  0.3365 -0.8151  0.2465
  126MOL   H18232932   6.087   0.949   2.027 -0.0606  0.2923 -2.0348
  126MOL   H18332933   6.229   0.848   1.968 -0.0729  1.9788 -1.8054
  126MOL   C18432934   6.135   0.405   2.160 -0.2280 -0.3299 -0.4122
  126MOL   C18532935   6.279   0.414   2.113 -0.4773 -0.2351 -0.1181
  126MOL   O18632936   6.307   0.306   2.027 -0.0223 -0.7033 -0.2109
  126MOL   C18732937   6.272   0.320   1.892 -0.1439  0.3900  0.4279
  126MOL   C18832938   6.290   0.185   1.831  0.6992 -0.3178 -0.5087
  126MOL   H18932939   6.077   0.367   2.076 -1.2709  0.3737 -0.0218
  126MOL   H19032940   6.128   0.322   2.231  2.3349 -0.0286  0.2447
  126MOL   H19132941   6.279   0.505   2.052  0.3108  0.2012  0.5303
  126MOL   H19232942   6.333   0.394   1.841  0.4404  0.8781  1.7937
  126MOL   H19332943   6.169   0.355   1.881 -0.0947  0.7721  1.0920
  126MOL   H19432944   6.388   0.148   1.862  1.5710  2.9941  0.8822
  126MOL   H19532945   6.223   0.115   1.881  0.0446  0.8015  0.2193
  126MOL   H19632946   6.273   0.177   1.723 -0.3243  1.2925 -0.4851
  126MOL   C19732947   6.380   0.435   2.226 -0.0566 -0.5507 -1.3234
  126MOL   C19832948   6.480   0.557   2.209 -0.1389 -0.5426 -0.1363
  126MOL   O19932949   6.602   0.498   2.170 -0.3029 -0.2398  0.5333
  126MOL   C20032950   6.604   0.461   2.024  0.5693  0.1435  0.1115
  126MOL   C20132951   6.748   0.442   1.979  0.6150  0.1588  0.3313
  126MOL   H20232952   6.448   0.355   2.256 -3.6023 -2.1731  2.8131
  126MOL   H20332953   6.326   0.448   2.320 -0.2431  1.3702 -1.6811
  126MOL   H20432954   6.432   0.629   2.143  1.5912 -0.4001 -1.2817
  126MOL   H20532955   6.563   0.550   1.977  2.1769 -0.0109 -1.6723
  126MOL   H20632956   6.537   0.377   2.009  0.3700 -0.0856  2.1420
  126MOL   H20732957   6.751   0.427   1.871  1.9991  0.0246  0.3806
  126MOL   H20832958   6.809   0.527   2.007 -0.8610  1.7639 -1.1461
  126MOL   H20932959   6.780   0.354   2.035  2.1771  0.3032 -0.3187
  126MOL   C21032960   6.502   0.636   2.343 -0.1518  0.3382 -0.3049
  126MOL   C21132961   6.544   0.788   2.337  0.1164 -0.3125 -0.2760
  126MOL   O21232962   6.588   0.830   2.466  0.3334  0.4001 -0.2094
  126MOL   C21332963   6.737   0.825   2.471 -0.0221  0.0086  1.3515
  126MOL   C21432964   6.779   0.874   2.607  0.1683  0.6899  0.2127
  126MOL   H21532965   6.584   0.586   2.393 -0.0475 -0.6751 -1.4648
  126MOL   H21632966   6.417   0.621   2.408  1.6368  0.5537  2.1554
  126MOL   H21732967   6.613   0.793   2.252  0.3150 -3.3895 -0.3438
  126MOL   H21832968   6.783   0.876   2.386  1.9305  1.9600  3.5073
  126MOL   H21932969   6.777   0.724   2.470  1.6103  0.6224 -0.0049
  126MOL   H22032970   6.734   0.970   2.632 -1.5980  0.2584 -1.2092
  126MOL   H22132971   6.752   0.797   2.679  0.1217  0.6213  0.1221
  126MOL   H22232972   6.887   0.882   2.620 -0.1892  4.2575  1.6124
  126MOL   C22332973   6.428   0.883   2.297  0.0529  0.8785 -0.0585
  126MOL   C22432974   6.455   1.031   2.266  0.3745 -0.6080 -0.7523
  126MOL   O22532975   6.327   1.091   2.252 -0.6128  0.5069  0.6018
  126MOL   C22632976   6.281   1.155   2.365  0.6817  0.1710  0.4579
  126MOL   C22732977   6.143   1.202   2.346 -0.1091 -0.5714  0.1224
  126MOL   H22832978   6.349   0.868   2.370 -0.5371  0.9334 -0.6749
  126MOL   H22932979   6.378   0.846   2.207  0.3794  0.9765 -0.2801
  126MOL   H23032980   6.499   1.082   2.351 -1.4388 -2.4893  1.3969
  126MOL   H23132981   6.344   1.242   2.383  2.7703 -1.6601  2.2253
  126MOL   H23232982   6.291   1.092   2.453  0.0034 -0.8551 -0.1915
  126MOL   H23332983   6.144   1.231   2.241 -0.5519 -1.9074 -0.2723
  126MOL   H23432984   6.074   1.119   2.360  0.8733 -1.3663  0.3160
  126MOL   H23532985   6.116   1.277   2.421  0.1312 -1.5854  1.2453
  126MOL   C23632986   6.544   1.052   2.138  0.4117 -0.2910  0.2558
  126MOL   C23732987   6.583   1.192   2.103 -0.0639 -0.3222  0.1600
  126MOL   O23832988   6.660   1.177   1.989  0.4514  0.1128  0.6716
  126MOL   C23932989   6.640   1.280   1.892 -0.7192  1.0413 -0.5974
  126MOL   C24032990   6.764   1.281   1.800 -0.3422  0.4602  0.0280
  126MOL   H24132991   6.485   1.002   2.062  0.8551  0.6544 -0.7335
  126MOL   H24232992   6.634   0.991   2.145  0.1135 -0.9093 -1.3576
  126MOL   H24332993   6.494   1.254   2.100 -1.0439 -1.5926  1.7480
  126MOL   H24432994   6.636   1.374   1.948 -1.8240  1.8323 -1.9445
  126MOL   H24532995   6.542   1.279   1.844 -1.2574  0.5425  0.5067
  126MOL   H24632996   6.766   1.179   1.761 -0.4529  0.7497 -0.7366
  126MOL   H24732997   6.752   1.349   1.716  1.6977 -1.1782 -1.6516
  126MOL   H24832998   6.855   1.303   1.857 -0.4761 -0.3882  0.5774
  126MOL   C24932999   6.666   1.261   2.215 -0.4769  0.9185 -0.7478
  126MOL   C25033000   6.798   1.202   2.253 -0.2904 -0.1786 -0.0859
  126MOL   O25133001   6.887   1.286   2.326  0.6369 -0.5353  0.1702
  126MOL   C25233002   7.013   1.238   2.364  0.1209 -0.2798 -0.4092
  126MOL   C25333003   7.005   1.133   2.478 -0.0658  0.1901  0.7558
  126MOL   H25433004   6.592   1.276   2.293 -0.0424 -1.4381  0.1703
  126MOL   H25533005   6.691   1.359   2.174 -0.3007  1.6829  1.1593
  126MOL   H25633006   6.783   1.113   2.314  1.1903 -1.8414 -2.0803
  126MOL   H25733007   7.073   1.324   2.393  0.3852 -0.6363  0.1205
  126MOL   H25833008   7.064   1.193   2.279 -0.8270  2.0497 -2.2485
  126MOL   H25933009   6.937   1.171   2.555 -1.1435 -0.3277  0.0780
  126MOL   H26033010   6.959   1.043   2.436  0.5421  1.2699 -2.3359
  126MOL   H26133011   7.106   1.113   2.514  0.1803 -0.8295 -0.4883
  126MOL   H26233012   6.842   1.176   2.157 -0.5992  2.5015 -0.9991
  127MOL     C133013   5.903   0.735   7.364  0.7076  0.1190 -0.3916
  127MOL     C233014   5.797   0.839   7.415  0.5532 -0.1769  0.6752
  127MOL     O333015   5.782   0.938   7.316 -0.0228  0.0828 -0.0807
  127MOL     C433016   5.670   0.924   7.229  0.7042  0.1235 -0.2817
  127MOL     C533017   5.639   1.040   7.143 -0.3989 -1.1729  0.0699
  127MOL     H633018   5.869   0.683   7.275 -0.0986 -1.1133  0.6172
  127MOL     H733019   6.003   0.778   7.351  1.4986 -1.2941  0.8491
  127MOL     H833020   5.697   0.798   7.432 -0.7316  2.5017 -0.1290
  127MOL     H933021   5.574   0.924   7.281  0.8070  3.4020  0.0170
  127MOL    H1033022   5.681   0.826   7.181  1.8066  1.0436 -1.9651
  127MOL    H1133023   5.547   1.006   7.096 -0.4823  0.8736 -1.3359
  127MOL    H1233024   5.623   1.129   7.203  1.1691 -0.8865  0.0841
  127MOL    H1333025   5.708   1.067   7.062 -1.1885  0.1385 -0.1715
  127MOL    H1433026   5.932   0.661   7.439  2.3284 -0.8317 -1.9348
  127MOL    C1533027   5.842   0.910   7.541 -0.2119  0.1487 -0.2665
  127MOL    C1633028   5.844   0.819   7.667  0.5667  1.1489  0.0932
  127MOL    O1733029   5.712   0.776   7.703  0.1790  0.1330  0.1180
  127MOL    C1833030   5.684   0.636   7.697 -0.5391  0.6642  0.0649
  127MOL    C1933031   5.541   0.614   7.747 -0.3067  0.3579 -0.3288
  127MOL    H2033032   5.793   1.006   7.560  0.2533  0.3673 -0.1489
  127MOL    H2133033   5.945   0.942   7.521 -0.2603  0.8460  0.5840
  127MOL    H2233034   5.905   0.731   7.647 -1.3711 -0.1281 -0.3311
  127MOL    H2333035   5.757   0.573   7.748 -0.5836 -0.8170 -1.6147
  127MOL    H2433036   5.695   0.610   7.591  1.0325 -2.8921  1.0159
  127MOL    H2533037   5.470   0.671   7.687  0.1905 -0.4394 -1.6992
  127MOL    H2633038   5.531   0.628   0.011  2.0452 -0.1751 -0.0216
  127MOL    H2733039   5.502   0.513   7.730  1.6273 -0.4153 -0.3512
  127MOL    C2833040   5.900   0.877   7.795  0.5499 -0.3856  0.1636
  127MOL    C2933041   6.044   0.919   7.791 -0.1018  0.2024  0.5404
  127MOL    O3033042   6.120   0.802   7.752  0.2331  0.0949 -0.1462
  127MOL    C3133043   6.245   0.824   7.688  0.7066  0.6920 -0.2519
  127MOL    C3233044   6.227   0.789   7.541  0.4066  0.1594  0.4480
  127MOL    H3333045   5.884   0.807   0.033 -1.8613  0.2031  0.2118
  127MOL    H3433046   5.832   0.956   7.825  2.7611  1.9910 -0.9244
  127MOL    H3533047   6.069   1.001   7.724  1.6546 -1.1036 -0.4290
  127MOL    H3633048   6.325   0.762   7.728  0.4462 -1.0771 -2.3613
  127MOL    H3733049   6.287   0.924   7.678  0.1485  0.8678 -0.8942
  127MOL    H3833050   6.314   0.794   7.474  0.7932  0.7853  0.9965
  127MOL    H3933051   6.163   0.701   7.527 -0.4385  0.5603  1.7809
  127MOL    H4033052   6.159   0.862   7.498  0.8766  0.9131  0.9637
  127MOL    C4133053   6.101   0.960   0.091 -0.3402 -0.4406  0.1044
  127MOL    C4233054   6.069   1.105   0.130  0.2739 -0.7887 -0.4590
  127MOL    O4333055   6.102   1.186   0.016  0.1407 -0.7107 -0.5647
  127MOL    C4433056   6.016   1.299   0.009 -0.3191  0.7168 -0.3006
  127MOL    C4533057   6.068   1.402   7.750  0.6035  0.2420 -0.1433
  127MOL    H4633058   6.209   0.945   0.095  0.1746  3.0610  1.1692
  127MOL    H4733059   6.060   0.898   0.170 -0.1169  1.3635  1.6796
  127MOL    H4833060   5.964   1.113   0.156  0.8845  0.6342  1.6784
  127MOL    H4933061   6.012   1.351   0.104 -0.5506 -0.9036  0.5880
  127MOL    H5033062   5.911   1.277   7.832 -0.3136 -0.5978  0.9730
  127MOL    H5133063   6.173   1.416   7.776 -0.2517  1.1192  3.0357
  127MOL    H5233064   6.068   1.357   7.650  2.1737 -0.3671  0.1051
  127MOL    H5333065   6.015   1.496   7.759 -0.7561 -0.6039  0.7984
  127MOL    C5433066   6.157   1.151   0.253  1.1578 -0.4656  0.3113
  127MOL    C5533067   6.129   1.092   0.387 -0.2169  0.3150 -0.2460
  127MOL    O5633068   6.153   0.952   0.403  0.3001  0.4786 -0.1137
  127MOL    C5733069   6.274   0.918   0.462 -0.7586 -0.8912 -0.0004
  127MOL    C5833070   6.277   0.768   0.490 -0.2186 -0.7528  0.5069
  127MOL    H5933071   6.158   1.260   0.254  1.9087 -0.4308 -1.7090
  127MOL    H6033072   6.257   1.127   0.215  0.3272 -1.4644 -1.2906
  127MOL    H6133073   6.199   1.147   0.450  2.2218 -1.2887 -1.4798
  127MOL    H6233074   6.302   0.961   0.558  0.1069 -0.8052 -0.2866
  127MOL    H6333075   6.351   0.929   0.385 -1.3270  0.4529 -0.3949
  127MOL    H6433076   6.366   0.740   0.547  0.3665 -1.6221 -0.8114
  127MOL    H6533077   6.187   0.736   0.542 -0.4202 -0.8321  0.1136
  127MOL    H6633078   6.280   0.723   0.391  0.8507  0.8799 -0.2326
  127MOL    C6733079   5.991   1.128   0.435  0.1883  0.3985 -0.3460
  127MOL    C6833080   5.942   1.275   0.443  0.0347 -0.1268 -0.1525
  127MOL    O6933081   6.002   1.307   0.567 -0.3261  0.2218  0.7155
  127MOL    C7033082   6.023   1.438   0.590  0.0065 -0.4150  0.1522
  127MOL    C7133083   6.110   1.459   0.716  0.1892 -0.4242  0.1703
  127MOL    H7233084   5.977   1.071   0.527 -0.6114  0.7871 -0.2244
  127MOL    H7333085   5.923   1.067   0.375 -0.4000  0.3967  0.3203
  127MOL    H7433086   5.982   1.325   0.355 -1.1886 -0.9787 -1.2177
  127MOL    H7533087   5.921   1.472   0.607  0.7365  2.3190 -0.7182
  127MOL    H7633088   6.050   1.490   0.498 -0.9372  1.0213  0.6618
  127MOL    H7733089   6.184   1.384   0.742  0.1581  0.1091  1.8474
  127MOL    H7833090   6.173   1.547   0.705  1.6002 -1.4535 -0.2417
  127MOL    H7933091   6.042   1.456   0.801 -1.6426 -0.7664 -1.2515
  127MOL    C8033092   5.785   1.297   0.458  0.1686 -0.5503  1.2113
  127MOL    C8133093   5.711   1.369   0.343  0.0835  0.0589 -0.1362
  127MOL    O8233094   5.733   1.512   0.363 -0.0555 -0.0506  0.7987
  127MOL    C8333095   5.813   1.586   0.274 -0.7932 -1.0029  0.1701
  127MOL    C8433096   5.775   1.736   0.272 -0.5709  0.4169  0.9074
  127MOL    H8533097   5.755   1.336   0.555 -1.3917  0.9872  0.1288
  127MOL    H8633098   5.745   1.195   0.462  1.3101 -0.9944  1.5040
  127MOL    H8733099   5.756   1.339   0.248  2.1704 -0.4938  1.0147
  127MOL    H8833100   5.798   1.544   0.174  1.3360 -0.7944 -0.2650
  127MOL    H8933101   5.916   1.572   0.306 -0.6613  0.3465  0.3402
  127MOL    H9033102   5.845   1.792   0.209 -0.5550  0.0386  0.5877
  127MOL    H9133103   5.674   1.759   0.241 -0.2813  0.3231 -0.1045
  127MOL    H9233104   5.802   1.776   0.370 -0.3606 -1.5849  1.6923
  127MOL    C9333105   5.563   1.332   0.334  0.4260  0.1537  0.0783
  127MOL    C9433106   5.479   1.417   0.234  0.4664 -0.4454 -0.5642
  127MOL    O9533107   5.338   1.397   0.268 -0.0149 -0.4624  0.3382
  127MOL    C9633108   5.281   1.480   0.363 -0.4284 -0.0561  0.1584
  127MOL    C9733109   5.133   1.424   0.395 -0.0509 -0.2212  0.4319
  127MOL    H9833110   5.530   1.365   0.432 -0.2645 -1.6565  0.4780
  127MOL    H9933111   5.550   1.225   0.316 -1.9649  0.5784 -0.9031
  127MOL   H10033112   5.502   1.523   0.234  1.1990 -0.5933 -1.5035
  127MOL   H10133113   5.279   1.576   0.311  0.8402  1.0184  2.0088
  127MOL   H10233114   5.337   1.488   0.457  1.9936  1.0644 -1.3299
  127MOL   H10333115   5.099   1.363   0.311  1.4306  0.1246 -0.4458
  127MOL   H10433116   5.133   1.348   0.473 -3.5495  0.2528  0.9757
  127MOL   H10533117   5.065   1.507   0.416 -0.5353 -0.6367  0.5149
  127MOL   C10633118   5.505   1.370   0.091 -0.1029 -0.6251  0.7989
  127MOL   C10733119   5.442   1.453   7.819  0.0249  0.5933 -0.2375
  127MOL   O10833120   5.499   1.405   7.699  0.0280 -0.0727 -0.3720
  127MOL   C10933121   5.482   1.269   7.661  0.4501  0.0213  0.1064
  127MOL   C11033122   5.545   1.251   7.523  0.2157 -0.2281  0.5890
  127MOL   H11133123   5.460   1.270   0.087  1.1714 -1.1673 -0.4254
  127MOL   H11233124   5.610   1.345   0.075 -0.6017 -1.2517 -1.7763
  127MOL   H11333125   5.335   1.437   7.817  0.3551 -2.0831  0.8736
  127MOL   H11433126   5.376   1.245   7.665  0.8665 -1.9608 -0.0712
  127MOL   H11533127   5.530   1.207   7.737 -1.8071 -2.8028 -0.6730
  127MOL   H11633128   5.551   1.146   7.494 -1.0300  0.0034 -0.5069
  127MOL   H11733129   5.494   1.306   7.444 -1.2100  1.0111  2.3251
  127MOL   H11833130   5.648   1.287   7.529 -1.0751  3.2681  3.6286
  127MOL   C11933131   5.470   1.604   7.820 -0.2553 -0.4741 -0.9341
  127MOL   C12033132   5.440   1.685   7.694 -0.5032 -0.2668  0.4093
  127MOL   O12133133   5.510   1.808   7.707 -0.6005 -0.7543  0.0880
  127MOL   C12233134   5.647   1.810   7.678  0.2199 -0.2843  0.7056
  127MOL   C12333135   5.690   1.960   7.663  0.9031  0.6678  0.0524
  127MOL   H12433136   5.574   1.621   0.007 -0.4145 -1.5430  0.2406
  127MOL   H12533137   5.419   1.651   0.061 -0.0626 -3.1114  0.6813
  127MOL   H12633138   5.469   1.632   7.603 -1.9131  2.8460 -1.9459
  127MOL   H12733139   5.677   1.764   7.583 -0.7358  2.9702 -1.2349
  127MOL   H12833140   5.706   1.762   7.757 -1.1741 -1.6100  0.9725
  127MOL   H12933141   5.789   1.964   7.618  0.4041  0.5191 -1.0756
  127MOL   H13033142   5.627   2.021   7.598  0.5356 -0.5530 -0.7583
  127MOL   H13133143   5.694   2.014   7.758  1.3487 -0.2622  0.5776
  127MOL   C13233144   5.286   1.709   7.677  0.5159 -0.2412 -0.8604
  127MOL   C13333145   5.259   1.807   7.557  0.0902 -0.2140 -0.2236
  127MOL   O13433146   5.120   1.830   7.552 -0.0670 -0.1104 -0.1878
  127MOL   C13533147   5.078   1.955   7.616  0.8682  0.3898 -0.5235
  127MOL   C13633148   4.924   1.962   7.617 -0.9363 -0.7441  0.2277
  127MOL   H13733149   5.229   1.737   7.766  0.8147  0.3125 -0.8422
  127MOL   H13833150   5.238   1.614   7.657 -0.2932  0.1801 -0.9574
  127MOL   H13933151   5.319   1.898   7.567 -1.7081  0.9493  0.2032
  127MOL   H14033152   5.112   2.043   7.562 -0.0648 -0.5605 -2.7349
  127MOL   H14133153   5.126   1.963   7.714  0.9376  0.9557 -0.6016
  127MOL   H14233154   4.903   2.063   7.653 -0.1572 -0.5289  0.0830
  127MOL   H14333155   4.876   1.954   7.519 -0.0440 -0.9844 -0.1907
  127MOL   H14433156   4.886   1.890   7.689  0.5128 -1.5287  0.2276
  127MOL   C14533157   5.289   1.761   7.416 -0.0198 -0.2515 -0.1271
  127MOL   C14633158   5.435   1.771   7.365 -0.1194 -0.5823  0.1271
  127MOL   O14733159   5.456   1.872   7.266 -0.5093  0.2920  0.5672
  127MOL   C14833160   5.495   2.007   7.304  1.4747  0.3124  0.5564
  127MOL   C14933161   5.461   2.102   7.181 -0.0938 -0.2406 -0.0774
  127MOL   H15033162   5.229   1.820   7.347  0.7028 -0.0928 -0.6295
  127MOL   H15133163   5.260   1.656   7.417 -0.2731 -0.2020 -1.3122
  127MOL   H15233164   5.499   1.791   7.451 -2.4098  0.9582  1.5446
  127MOL   H15333165   5.603   2.007   7.314  1.6156 -2.3447 -0.7930
  127MOL   H15433166   5.441   2.037   7.395  0.5732 -0.4750  0.2839
  127MOL   H15533167   5.521   2.073   7.095 -1.7017  1.3616 -1.7716
  127MOL   H15633168   5.353   2.110   7.169 -0.5263 -2.9512  1.5214
  127MOL   H15733169   5.494   2.200   7.218  0.0092 -0.5095  0.5416
  127MOL   C15833170   5.492   1.645   7.293 -0.0509  0.1136 -0.0978
  127MOL   C15933171   5.644   1.655   7.275 -0.0724 -0.1112 -0.0570
  127MOL   O16033172   5.691   1.660   7.141 -0.3327 -0.0631  0.1179
  127MOL   C16133173   5.716   1.788   7.086  0.1660  0.1124 -0.4757
  127MOL   C16233174   5.798   1.786   6.952  0.5129  0.0889 -0.0212
  127MOL   H16333175   5.430   1.623   7.206  2.7815 -0.2198 -2.0926
  127MOL   H16433176   5.469   1.573   7.372 -0.9985 -0.5590 -0.9699
  127MOL   H16533177   5.678   1.743   7.330 -0.9572  0.9288 -1.1713
  127MOL   H16633178   5.771   1.849   7.157  0.2405 -0.3693 -0.1141
  127MOL   H16733179   5.617   1.831   7.077  0.1166  0.6952  2.2207
  127MOL   H16833180   5.902   1.766   6.975 -0.0655 -3.6709 -0.2551
  127MOL   H16933181   5.766   1.705   6.885 -0.0081  0.4668 -0.2352
  127MOL   H17033182   5.787   1.886   6.911  0.2260 -0.1526 -0.5428
  127MOL   C17133183   5.704   1.527   7.336  0.0826 -0.5778 -0.0872
  127MOL   C17233184   5.858   1.527   7.315  0.3608 -0.6603  0.4272
  127MOL   O17333185   5.911   1.406   7.377  0.3264  0.0042  0.2341
  127MOL   C17433186   5.885   1.282   7.304  0.4290 -0.2762 -0.2211
  127MOL   C17533187   6.000   1.182   7.334 -0.3228  0.3177  0.0167
  127MOL   H17633188   5.660   1.438   7.291 -2.4033  1.0439 -0.9245
  127MOL   H17733189   5.666   1.527   7.439  0.0956  0.5510 -0.0777
  127MOL   H17833190   5.880   1.526   7.208  0.0234 -0.8491  0.3576
  127MOL   H17933191   5.880   1.305   7.198 -3.0838  0.6058  0.0674
  127MOL   H18033192   5.785   1.240   7.317  0.9131 -1.5028 -0.3913
  127MOL   H18133193   5.978   1.086   7.288  1.3719  0.3675 -0.9388
  127MOL   H18233194   6.093   1.216   7.288 -0.5374 -0.4176 -0.9599
  127MOL   H18333195   6.013   1.175   7.442  1.0101  1.2671 -0.0640
  127MOL   C18433196   5.942   1.641   7.378  0.6668 -0.3724  0.3740
  127MOL   C18533197   6.099   1.642   7.360 -0.4278  0.1645 -0.1637
  127MOL   O18633198   6.156   1.747   7.442  0.2297  0.1013  0.1591
  127MOL   C18733199   6.229   1.704   7.551  0.3020 -1.1260 -0.2374
  127MOL   C18833200   6.252   1.827   7.647 -0.1260  0.5009  0.0123
  127MOL   H18933201   5.930   1.620   7.485 -1.4866 -0.6967  0.0874
  127MOL   H19033202   5.895   1.739   7.368  1.6559  0.0321 -0.3395
  127MOL   H19133203   6.144   1.547   7.389  2.6129  1.2640 -1.1429
  127MOL   H19233204   6.320   1.660   7.510  1.7645  1.3641  0.2032
  127MOL   H19333205   6.169   1.640   7.615  0.2145  0.0597  0.9008
  127MOL   H19433206   6.161   1.871   7.688  0.1977 -1.3094  2.7915
  127MOL   H19533207   6.311   1.803   7.735  3.2786  2.7392 -1.5578
  127MOL   H19633208   6.310   1.897   7.586  0.3558  0.9616  0.9891
  127MOL   C19733209   6.131   1.670   7.209  0.4175  0.1399 -1.0732
  127MOL   C19833210   6.278   1.652   7.173  1.3033 -0.7790  0.1319
  127MOL   O19933211   6.295   1.671   7.035 -0.0951 -0.6138 -0.0030
  127MOL   C20033212   6.345   1.806   6.996  0.1610  0.2952 -0.0202
  127MOL   C20133213   6.372   1.813   6.847  0.0699 -0.7182 -0.7235
  127MOL   H20233214   6.100   1.770   7.180  2.0460  0.6679 -1.0508
  127MOL   H20333215   6.072   1.612   7.138  1.9163  1.0138 -3.0803
  127MOL   H20433216   6.334   1.731   7.222  2.7506 -2.9798  2.1484
  127MOL   H20533217   6.435   1.831   7.052  0.7605  0.1543 -0.8980
  127MOL   H20633218   6.264   1.876   7.015 -0.7082 -0.3726 -1.1605
  127MOL   H20733219   6.449   1.744   6.812  2.2819  1.3990 -0.1384
  127MOL   H20833220   6.279   1.785   6.798  0.4331 -0.2467 -1.6896
  127MOL   H20933221   6.412   1.908   6.811  0.5711 -0.6466  0.0114
  127MOL   C21033222   6.324   1.512   7.210  0.2914  0.3496  0.5599
  127MOL   C21133223   6.468   1.471   7.170 -0.1113  0.1311  0.2706
  127MOL   O21233224   6.497   1.339   7.220 -0.8183  0.0020  0.0331
  127MOL   C21333225   6.473   1.239   7.123 -0.3291  0.0100 -0.3991
  127MOL   C21433226   6.479   1.105   7.200 -0.4843 -0.2056  0.0654
  127MOL   H21533227   6.257   1.439   7.163  0.6912 -1.0727  2.1598
  127MOL   H21633228   6.325   1.502   7.318  0.0410  1.7994  0.6954
  127MOL   H21733229   6.489   1.473   7.063  0.3811 -3.0962  0.2611
  127MOL   H21833230   6.554   1.242   7.050  0.3444  0.9939  0.3726
  127MOL   H21933231   6.381   1.262   7.069 -1.0887  1.9284  1.6255
  127MOL   H22033232   6.487   1.019   7.133 -0.2100 -0.4520  0.4087
  127MOL   H22133233   6.566   1.095   7.266  0.6621 -3.3943 -1.8125
  127MOL   H22233234   6.397   1.079   7.267 -0.5003  1.5901  0.7670
  127MOL   C22333235   6.595   1.560   7.221 -0.1141 -0.2256 -0.8072
  127MOL   C22433236   6.730   1.557   7.138  0.2405 -0.6441 -0.5030
  127MOL   O22533237   6.839   1.607   7.213  0.4641  0.2650 -0.4206
  127MOL   C22633238   6.906   1.503   7.296 -0.2094  0.7551  0.1962
  127MOL   C22733239   7.000   1.570   7.391  0.2868 -0.2276  0.0380
  127MOL   H22833240   6.611   1.535   7.326  0.4311 -0.9571 -1.0570
  127MOL   H22933241   6.556   1.661   7.207 -1.8438 -0.8705 -0.6400
  127MOL   H23033242   6.754   1.459   7.097  1.2742 -0.6131  0.0182
  127MOL   H23133243   6.954   1.427   7.234 -1.5065  1.5991 -1.8816
  127MOL   H23233244   6.839   1.443   7.357  0.9518 -0.4764  0.2896
  127MOL   H23333245   7.030   1.496   7.465 -0.9924 -2.8127 -1.9558
  127MOL   H23433246   7.080   1.613   7.330 -0.8683  1.8465 -0.0255
  127MOL   H23533247   6.962   1.657   7.444  0.4536 -0.5348  0.6662
  127MOL   C23633248   6.705   1.655   7.013 -0.6287  0.3931 -0.0415
  127MOL   C23733249   6.828   1.659   6.903 -0.6172 -0.8277  0.6060
  127MOL   O23833250   6.794   1.762   6.813 -0.3879 -0.1791 -0.1375
  127MOL   C23933251   6.876   1.778   6.701 -0.4510  0.1445 -0.0675
  127MOL   C24033252   6.815   1.896   6.620 -0.3194  0.4373 -0.0459
  127MOL   H24133253   6.676   1.754   7.050  2.7582  1.2189  0.5575
  127MOL   H24233254   6.624   1.619   6.950  0.4742 -2.7279  0.2554
  127MOL   H24333255   6.915   1.694   6.959  0.7440 -3.4972  0.2153
  127MOL   H24433256   6.876   1.692   6.635  0.8219  0.5726 -0.6365
  127MOL   H24533257   6.980   1.791   6.729 -0.1653 -3.1474  0.5572
  127MOL   H24633258   6.872   1.913   6.529  0.9428  2.0387  1.0127
  127MOL   H24733259   6.708   1.882   6.600 -0.3057 -2.3397  1.5885
  127MOL   H24833260   6.825   1.994   6.668  1.8994  0.3378 -0.2857
  127MOL   C24933261   6.865   1.518   6.843 -0.9243 -0.0361 -0.8862
  127MOL   C25033262   6.759   1.455   6.760  0.4108  0.2131 -0.3967
  127MOL   O25133263   6.807   1.341   6.684 -0.3134 -0.2089  0.0971
  127MOL   C25233264   6.713   1.297   6.586  0.0367  0.4592  0.0137
  127MOL   C25333265   6.779   1.217   6.474 -0.3144 -0.5831  0.6755
  127MOL   H25433266   6.889   1.459   6.931  2.2264  1.4626 -0.6857
  127MOL   H25533267   6.963   1.542   6.802 -0.2031 -0.1776  0.7211
  127MOL   H25633268   6.672   1.425   6.819  2.0747 -1.0581  1.4338
  127MOL   H25733269   6.669   1.385   6.540  0.9042  0.6330 -0.5075
  127MOL   H25833270   6.629   1.246   6.632 -0.2653 -0.3816 -1.4462
  127MOL   H25933271   6.840   1.285   6.414 -1.3314  1.2577  1.6760
  127MOL   H26033272   6.841   1.134   6.508 -0.8604 -1.3007 -0.0585
  127MOL   H26133273   6.709   1.181   6.398 -1.2023 -2.7392  2.4435
  127MOL   H26233274   6.722   1.531   6.691 -0.5964  0.3340  0.2688
  128MOL     C133275   0.145   5.710   0.371 -0.3954 -0.3679 -0.0152
  128MOL     C233276   0.029   5.785   0.435  0.1974 -0.3114  0.5368
  128MOL     O333277   7.836   5.872   0.326 -0.0526 -0.2303  0.7775
  128MOL     C433278   7.702   5.920   0.337 -0.0634  0.6849  0.1212
  128MOL     C533279   7.669   6.004   0.219 -0.2368 -0.0137  0.1522
  128MOL     H633280   0.220   5.772   0.322 -2.6027  1.9899 -0.4963
  128MOL     H733281   0.184   5.631   0.435 -0.7411  0.4525  1.2142
  128MOL     H833282   7.800   5.712   0.469  0.2628 -0.4880  0.2922
  128MOL     H933283   7.699   5.978   0.429  1.5333  0.9724  0.0112
  128MOL    H1033284   7.624   5.846   0.356  0.0136  0.3300 -0.9327
  128MOL    H1133285   7.745   6.078   0.197  0.3670 -0.1220  1.8204
  128MOL    H1233286   7.651   5.948   0.127 -0.2857  0.7511 -0.3055
  128MOL    H1333287   7.575   6.057   0.234  0.0718  0.3096  0.9576
  128MOL    H1433288   0.102   5.654   0.288  0.1371  0.6991 -1.0190
  128MOL    C1533289   0.083   5.874   0.546  0.1698  1.0752  0.2566
  128MOL    C1633290   0.041   5.838   0.689  0.6515 -0.4648 -0.4051
  128MOL    O1733291   0.103   5.717   0.726  0.3041 -0.5591  0.6597
  128MOL    C1833292   0.180   5.726   0.850  0.5588  0.0158 -0.6196
  128MOL    C1933293   0.218   5.582   0.888  0.4483  0.3391 -0.3322
  128MOL    H2033294   0.045   5.975   0.532  1.1596  1.4969  0.5750
  128MOL    H2133295   0.190   5.892   0.549  0.2109  0.7382  1.1014
  128MOL    H2233296   0.078   5.919   0.751  2.1411 -0.8350 -0.7851
  128MOL    H2333297   0.133   5.776   0.934  1.4975 -0.8809  0.4500
  128MOL    H2433298   0.267   5.791   0.838  0.7447 -0.1061  0.0819
  128MOL    H2533299   0.288   5.587   0.972  0.0231  2.4877 -0.0837
  128MOL    H2633300   0.258   5.537   0.797  1.3571 -0.5845  0.4992
  128MOL    H2733301   0.128   5.528   0.917 -0.5171  1.7941 -0.5818
  128MOL    C2833302   7.735   5.823   0.706 -0.4399 -0.3644 -0.6741
  128MOL    C2933303   7.682   5.849   0.848 -0.0842  1.0023 -0.4215
  128MOL    O3033304   7.545   5.814   0.871 -0.4299 -0.1010  0.5453
  128MOL    C3133305   7.516   5.673   0.865  0.5156  0.4405 -0.4078
  128MOL    C3233306   7.368   5.647   0.907  0.5246 -0.3978  0.8424
  128MOL    H3333307   7.710   5.722   0.675  0.2246 -0.4179 -1.0548
  128MOL    H3433308   7.668   5.872   0.635 -0.1642  1.3047  0.1953
  128MOL    H3533309   7.738   5.790   0.921  1.5657  1.9976 -0.8568
  128MOL    H3633310   7.582   5.624   0.935  1.7039  0.4644 -1.4995
  128MOL    H3733311   7.544   5.626   0.771 -0.0554  0.4270 -0.5728
  128MOL    H3833312   7.354   5.713   0.993 -3.2372  0.7521 -0.5465
  128MOL    H3933313   7.291   5.674   0.834  1.7768  1.7843  0.2790
  128MOL    H4033314   7.357   5.546   0.945 -0.2229  0.6051  3.3858
  128MOL    C4133315   7.696   5.994   0.893 -0.5608  0.1197  0.4353
  128MOL    C4233316   7.640   6.021   1.038 -0.0870  0.0881  0.4165
  128MOL    O4333317   7.681   6.153   1.084 -0.6134 -0.0314  0.1343
  128MOL    C4433318   7.623   6.262   1.014 -1.0947  0.0773 -0.3758
  128MOL    C4533319   7.493   6.306   1.080  0.0760  0.0271  0.0461
  128MOL    H4633320   7.640   6.060   0.826  2.4008  1.9542 -0.3489
  128MOL    H4733321   7.801   6.025   0.894  0.4463 -3.1252  1.3683
  128MOL    H4833322   7.531   6.017   1.027 -0.0514  0.5147 -0.1210
  128MOL    H4933323   7.602   6.237   0.910 -0.1468 -1.2405 -0.2581
  128MOL    H5033324   7.698   6.341   1.010 -1.8408  0.8617  0.6126
  128MOL    H5133325   7.521   6.353   1.175  0.1638 -1.1548  0.6162
  128MOL    H5233326   7.446   6.374   1.009 -3.0892 -0.8170  1.2833
  128MOL    H5333327   7.420   6.227   1.097  0.4569 -0.5197 -0.8361
  128MOL    C5433328   7.677   5.924   1.161 -0.2961  0.5576  0.9355
  128MOL    C5533329   7.598   5.973   1.288  0.0697  0.2461  0.5096
  128MOL    O5633330   7.667   5.918   1.399  0.3897 -0.8045 -0.5559
  128MOL    C5733331   7.776   5.999   1.449 -0.4064 -0.1743  0.0848
  128MOL    C5833332   0.005   5.940   1.562  0.2748  0.3712  0.9241
  128MOL    H5933333   7.782   5.940   1.186  0.3441 -1.5835 -0.2246
  128MOL    H6033334   7.660   5.819   1.137  0.0300  0.3041  1.7880
  128MOL    H6133335   7.591   6.080   1.302  0.0290  0.5640 -1.7588
  128MOL    H6233336   7.724   6.088   1.487  1.1327  0.6730  0.2261
  128MOL    H6333337   0.002   6.027   1.370  1.3186  0.4238  1.7737
  128MOL    H6433338   0.082   6.001   1.609 -1.9811  3.0476  1.3426
  128MOL    H6533339   7.780   5.905   1.640 -0.4782 -1.0146 -0.3338
  128MOL    H6633340   0.045   5.846   1.524 -1.8422 -0.9149  1.7482
  128MOL    C6733341   7.453   5.920   1.281 -0.2351 -0.3705 -0.2763
  128MOL    C6833342   7.367   5.942   1.407 -0.1012  0.4756  0.7253
  128MOL    O6933343   7.242   5.887   1.373  0.4527  0.2165 -0.0416
  128MOL    C7033344   7.195   5.775   1.447 -0.0525 -0.0337 -0.1890
  128MOL    C7133345   7.135   5.672   1.350  0.2097 -0.3484 -0.4417
  128MOL    H7233346   7.458   5.812   1.272 -0.4070 -0.5885  2.0950
  128MOL    H7333347   7.403   5.946   1.188  0.4963  2.1671 -0.0061
  128MOL    H7433348   7.418   5.905   1.497  1.6870  2.8710  0.7880
  128MOL    H7533349   7.123   5.798   1.525  0.8003  1.7650  0.0982
  128MOL    H7633350   7.279   5.724   1.495 -1.6101  0.2852  2.9685
  128MOL    H7733351   7.071   5.736   1.289 -0.7748 -1.6893 -0.8330
  128MOL    H7833352   7.201   5.633   1.272  2.4173 -0.7855  1.5645
  128MOL    H7933353   7.081   5.585   1.387 -0.2394 -0.0288 -0.3497
  128MOL    C8033354   7.356   6.090   1.440  0.1879 -0.0265 -0.0964
  128MOL    C8133355   7.252   6.134   1.543 -0.1929 -0.1342 -0.0288
  128MOL    O8233356   7.217   6.276   1.535 -0.3412 -0.0686 -0.1293
  128MOL    C8333357   7.137   6.316   1.433  0.1577  0.2100  0.8174
  128MOL    C8433358   7.125   6.472   1.436  0.0892  0.2879 -0.4626
  128MOL    H8533359   7.343   6.155   1.353  1.9106 -1.0605 -1.1399
  128MOL    H8633360   7.447   6.132   1.482 -0.5565 -0.2258  1.7841
  128MOL    H8733361   7.162   6.075   1.526  0.7158 -0.9923 -1.8635
  128MOL    H8833362   7.038   6.277   1.457 -0.1786  0.2158 -0.4940
  128MOL    H8933363   7.174   6.275   1.339  1.0824  1.9806  0.3919
  128MOL    H9033364   7.217   6.516   1.398  0.8351 -1.9647 -1.3232
  128MOL    H9133365   7.039   6.505   1.378 -0.3646 -0.1694 -0.0616
  128MOL    H9233366   7.110   6.511   1.537 -1.0705  0.5873 -0.7396
  128MOL    C9333367   7.303   6.121   1.687 -0.2039 -0.2589  0.1823
  128MOL    C9433368   7.186   6.127   1.790  0.1207  0.4822  0.7978
  128MOL    O9533369   7.259   6.148   1.907 -0.0269 -1.0604  0.3529
  128MOL    C9633370   7.194   6.206   2.018 -0.4390 -0.8187  0.2313
  128MOL    C9733371   7.300   6.215   2.126  0.6328 -1.5378  0.4835
  128MOL    H9833372   7.367   6.206   1.709  0.1313 -0.1707 -1.0531
  128MOL    H9933373   7.369   6.035   1.697 -1.5257 -1.6860 -2.7393
  128MOL   H10033374   7.119   6.209   1.766 -1.2243 -1.3364 -1.9125
  128MOL   H10133375   7.106   6.150   2.048 -0.9491 -0.5789 -0.7822
  128MOL   H10233376   7.147   6.304   2.004  0.2597 -0.2861  1.4737
  128MOL   H10333377   7.267   6.277   2.210 -1.2443 -0.9208 -0.6683
  128MOL   H10433378   7.347   6.121   2.154  1.9393 -0.7594  0.9696
  128MOL   H10533379   7.376   6.277   2.078 -0.1478 -2.9928 -2.7310
  128MOL   C10633380   7.113   5.995   1.796  0.1873 -0.4117 -0.6480
  128MOL   C10733381   6.963   5.994   1.761  0.2542 -0.3841 -0.0364
  128MOL   O10833382   6.894   6.090   1.842  0.3515 -0.0775 -0.2867
  128MOL   C10933383   6.840   6.199   1.759  0.3936  0.1123  0.1322
  128MOL   C11033384   6.785   6.306   1.846 -0.5924 -0.2327  0.2413
  128MOL   H11133385   7.125   5.949   1.895  2.4677  0.5941 -0.4285
  128MOL   H11233386   7.152   5.920   1.727  0.4853 -1.1842  0.3461
  128MOL   H11333387   6.951   6.022   1.657 -0.9538  3.6424  1.1003
  128MOL   H11433388   6.751   6.157   1.710 -0.1648  0.7920  0.5567
  128MOL   H11533389   6.901   6.250   1.685  0.5601 -0.3738 -0.0677
  128MOL   H11633390   6.867   6.352   1.902  0.0279 -1.2514  0.1777
  128MOL   H11733391   6.739   6.388   1.791 -0.5016 -1.4971 -1.7892
  128MOL   H11833392   6.710   6.264   1.913  1.4701 -2.1467  1.4413
  128MOL   C11933393   6.894   5.859   1.792 -0.0142 -0.0795 -0.1795
  128MOL   C12033394   6.771   5.835   1.713  0.4709  0.3248 -1.0390
  128MOL   O12133395   6.696   5.727   1.764 -0.1836  0.2095  0.5823
  128MOL   C12233396   6.606   5.751   1.869  0.4439 -0.0606  0.0125
  128MOL   C12333397   6.552   5.609   1.911 -0.0286 -0.5999 -0.2510
  128MOL   H12433398   6.873   5.859   1.898 -1.1518  1.1391 -0.3937
  128MOL   H12533399   6.964   5.776   1.783  0.2200  0.1801 -0.8051
  128MOL   H12633400   6.705   5.921   1.721  0.4253  0.1814  0.2923
  128MOL   H12733401   6.529   5.826   1.850  0.1331 -0.7160 -1.4030
  128MOL   H12833402   6.663   5.789   1.953 -1.3979 -0.7458  1.6092
  128MOL   H12933403   6.475   5.617   1.988 -0.6421  0.1763 -0.9330
  128MOL   H13033404   6.514   5.563   1.821 -2.1406 -1.1383  0.8914
  128MOL   H13133405   6.634   5.546   1.947 -0.0612 -0.7456 -0.4323
  128MOL   C13233406   6.790   5.793   1.565  0.0240  0.0952 -0.4387
  128MOL   C13333407   6.664   5.772   1.477 -0.1253  0.0493  0.3627
  128MOL   O13433408   6.708   5.776   1.339  0.1029  0.5628  0.2862
  128MOL   C13533409   6.750   5.654   1.280 -0.1764 -0.1452 -0.0267
  128MOL   C13633410   6.699   5.660   1.136  0.3846 -0.4455  0.4675
  128MOL   H13733411   6.849   5.702   1.568 -2.3131 -1.4217  1.8613
  128MOL   H13833412   6.859   5.862   1.516  0.5703 -0.0758  0.0825
  128MOL   H13933413   6.620   5.675   1.499  1.4604 -0.9168 -0.6625
  128MOL   H14033414   6.707   5.568   1.331 -2.6571  1.2552  0.3436
  128MOL   H14133415   6.856   5.640   1.299 -0.1832 -3.8120 -2.2390
  128MOL   H14233416   6.722   5.572   1.077  0.2603 -0.4033  0.3568
  128MOL   H14333417   6.590   5.657   1.144  0.3331  1.3655  0.8718
  128MOL   H14433418   6.726   5.756   1.091 -0.5161 -0.6921 -0.6158
  128MOL   C14533419   6.560   5.879   1.500  0.5306 -0.2988 -0.0511
  128MOL   C14633420   6.432   5.863   1.400 -0.6445  0.5240 -0.7681
  128MOL   O14733421   6.392   5.992   1.360 -0.2678 -0.2002 -0.5632
  128MOL   C14833422   6.460   6.041   1.248  0.5327  0.9352 -0.1085
  128MOL   C14933423   6.360   6.076   1.142 -0.1966  0.0061 -0.3934
  128MOL   H15033424   6.613   5.972   1.477  1.0017 -0.2979  1.0208
  128MOL   H15133425   6.523   5.888   1.603 -0.1944  1.5915 -0.4526
  128MOL   H15233426   6.458   5.803   1.313 -0.8114  0.3459 -0.6954
  128MOL   H15333427   6.525   5.978   1.187 -0.4286  1.7493 -2.0199
  128MOL   H15433428   6.512   6.129   1.284 -0.5654  0.9371  1.5356
  128MOL   H15533429   6.323   5.989   1.088 -0.6751 -0.1133  0.1215
  128MOL   H15633430   6.276   6.130   1.186 -0.7704  0.2030 -1.6978
  128MOL   H15733431   6.406   6.144   1.070 -1.5426  1.2587 -0.0943
  128MOL   C15833432   6.305   5.792   1.470 -0.7572  0.7911 -0.9229
  128MOL   C15933433   6.323   5.645   1.524  0.1664  0.5187  0.2138
  128MOL   O16033434   6.363   5.569   1.411 -0.2802 -0.1621  0.7761
  128MOL   C16133435   6.429   5.451   1.435 -0.0901 -0.3727 -0.0303
  128MOL   C16233436   6.459   5.394   1.295 -0.5512  1.0990 -0.2560
  128MOL   H16333437   6.226   5.807   1.397 -1.5759 -1.4972 -0.5339
  128MOL   H16433438   6.273   5.850   1.557 -0.6984  0.5907 -0.7689
  128MOL   H16533439   6.400   5.642   1.601 -0.1517  1.0408  0.5563
  128MOL   H16633440   6.381   5.374   1.496  0.5677 -1.7325 -1.2154
  128MOL   H16733441   6.521   5.467   1.491 -1.5536 -1.6747  2.9089
  128MOL   H16833442   6.534   5.459   1.250 -1.3084  1.7978 -0.5349
  128MOL   H16933443   6.512   5.302   1.317 -1.4780  0.9128  1.3261
  128MOL   H17033444   6.370   5.394   1.231 -0.2777  0.6581 -0.6337
  128MOL   C17133445   6.191   5.586   1.573 -0.0790 -0.0448 -0.5944
  128MOL   C17233446   6.189   5.546   1.720 -0.1517  0.6470 -1.0269
  128MOL   O17333447   6.212   5.664   1.797  1.2685  0.3891  0.1305
  128MOL   C17433448   6.144   5.660   1.925 -0.3744 -0.8874  0.0577
  128MOL   C17533449   6.208   5.770   2.009 -0.3494 -0.4333  0.3100
  128MOL   H17633450   6.164   5.500   1.512  0.2012 -1.1335  0.7982
  128MOL   H17733451   6.127   5.670   1.545  0.7632  1.2735  1.3263
  128MOL   H17833452   6.083   5.528   1.738 -0.0617  1.6775  0.6296
  128MOL   H17933453   6.156   5.567   1.982 -1.1192 -1.0783 -0.0957
  128MOL   H18033454   6.042   5.690   1.902  0.2083  0.7152 -0.4725
  128MOL   H18133455   6.163   5.786   2.107 -1.0926  0.0400 -0.1138
  128MOL   H18233456   6.315   5.751   2.017 -0.4451 -0.5722  1.2834
  128MOL   H18333457   6.202   5.867   1.960 -0.3678 -0.9729 -0.7676
  128MOL   C18433458   6.269   5.422   1.763  0.3244 -0.8053 -0.1148
  128MOL   C18533459   6.200   5.287   1.740  0.3840  1.1648 -0.6821
  128MOL   O18633460   6.074   5.293   1.811 -0.2435  0.1563  0.0018
  128MOL   C18733461   5.969   5.202   1.751 -0.2036  0.3409  0.1370
  128MOL   C18833462   5.823   5.214   1.805 -0.5459 -0.2808 -0.0142
  128MOL   H18933463   6.283   5.430   1.871 -0.4438 -1.7371  0.0582
  128MOL   H19033464   6.370   5.416   1.724  0.9922 -0.8717  1.5582
  128MOL   H19133465   6.193   5.257   1.636 -2.2391 -0.7424  0.0106
  128MOL   H19233466   6.013   5.102   1.750 -2.4923 -0.7005  0.6759
  128MOL   H19333467   5.962   5.218   1.644 -0.4859 -0.4517  0.0324
  128MOL   H19433468   5.819   5.201   1.914 -2.0566  0.9903  0.1001
  128MOL   H19533469   5.783   5.316   1.800 -2.5232 -0.8003  3.2750
  128MOL   H19633470   5.759   5.131   1.777  0.4770 -0.6549 -1.2770
  128MOL   C19733471   6.280   5.169   1.814 -0.0173  0.7013 -0.0584
  128MOL   C19833472   6.422   5.124   1.762 -0.4379 -0.1456  0.1210
  128MOL   O19933473   6.409   4.988   1.709 -0.0449 -0.2153 -0.5355
  128MOL   C20033474   6.335   4.976   1.584 -0.2491  0.3666 -0.2699
  128MOL   C20133475   6.402   5.056   1.467  0.3877 -0.2020 -0.6319
  128MOL   H20233476   6.207   5.088   1.823 -0.0244  0.6403 -0.6093
  128MOL   H20333477   6.295   5.201   1.917  1.2058 -0.5666  0.1760
  128MOL   H20433478   6.453   5.196   1.686  1.2185 -1.1571 -0.1821
  128MOL   H20533479   6.230   5.003   1.596 -0.5056  0.2503 -2.0970
  128MOL   H20633480   6.352   4.876   1.544  2.4183 -0.2690  2.2356
  128MOL   H20733481   6.505   5.029   1.446  0.1281 -1.4489 -0.3501
  128MOL   H20833482   6.346   5.030   1.377  1.2320  0.3344 -1.3255
  128MOL   H20933483   6.414   5.164   1.480 -1.0767 -0.1941  0.7745
  128MOL   C21033484   6.532   5.167   1.854 -0.3807 -0.1981  0.2685
  128MOL   C21133485   6.674   5.169   1.797 -0.3437 -0.2697 -0.1602
  128MOL   O21233486   6.774   5.131   1.894  0.2396 -0.0157  0.2344
  128MOL   C21333487   6.828   4.999   1.877 -0.8686  0.0910 -0.2982
  128MOL   C21433488   6.935   4.980   1.983 -0.3477 -0.2763 -0.3976
  128MOL   H21533489   6.544   5.089   1.930  0.4950 -1.1941 -0.8694
  128MOL   H21633490   6.521   5.257   1.913 -0.6668  0.8257 -1.3155
  128MOL   H21733491   6.671   5.098   1.715  1.3003 -1.4720  0.7980
  128MOL   H21833492   6.860   4.968   1.778  1.3722 -2.4693  1.1449
  128MOL   H21933493   6.754   4.924   1.905  0.0864 -0.2284  1.5086
  128MOL   H22033494   7.035   4.995   1.944  0.9696 -0.7046  2.7079
  128MOL   H22133495   6.923   5.025   2.082  0.6118 -2.3034  0.6817
  128MOL   H22233496   6.946   4.872   1.999  2.0214 -0.3515 -2.2600
  128MOL   C22333497   6.718   5.309   1.740 -0.3188  0.9449  0.0507
  128MOL   C22433498   6.843   5.301   1.646  0.0067  0.6462  0.5339
  128MOL   O22533499   6.917   5.426   1.644 -0.2969  0.3538  0.2770
  128MOL   C22633500   6.997   5.443   1.762  0.3118  0.4499 -0.3669
  128MOL   C22733501   7.120   5.528   1.720 -1.0616 -0.6415  0.0489
  128MOL   H22833502   6.735   5.376   1.825 -0.8299  1.0523  0.0719
  128MOL   H22933503   6.642   5.360   1.680 -1.3744  1.3115  1.6405
  128MOL   H23033504   6.914   5.224   1.678 -0.7793 -1.0284 -1.6317
  128MOL   H23133505   7.021   5.345   1.803 -3.2243 -0.2189  0.2974
  128MOL   H23233506   6.942   5.496   1.840 -1.1086 -0.9910 -0.3657
  128MOL   H23333507   7.084   5.624   1.681  0.9017 -0.7498 -2.1534
  128MOL   H23433508   7.183   5.547   1.807 -1.7131 -1.9574  0.8093
  128MOL   H23533509   7.171   5.478   1.637  0.3877  0.3718  0.3077
  128MOL   C23633510   6.811   5.269   1.501 -0.9202 -0.1152 -0.2483
  128MOL   C23733511   6.936   5.244   1.413  0.3195  0.4138  0.0157
  128MOL   O23833512   6.894   5.195   1.288 -0.0264  0.2501  0.2614
  128MOL   C23933513   6.864   5.301   1.199  0.0421  0.1375  0.0518
  128MOL   C24033514   6.799   5.267   1.070  0.2545 -0.1091 -0.1571
  128MOL   H24133515   6.738   5.338   1.459 -1.7608 -0.4841  0.6107
  128MOL   H24233516   6.761   5.173   1.512  0.6304 -1.0732 -1.4175
  128MOL   H24333517   7.002   5.330   1.402  1.2137 -0.0532  1.4539
  128MOL   H24433518   6.960   5.348   1.181  0.5960 -1.1777 -0.4602
  128MOL   H24533519   6.800   5.379   1.241  0.4482  2.0814 -2.8438
  128MOL   H24633520   6.877   5.217   1.011  0.2078 -2.3370  1.6051
  128MOL   H24733521   6.713   5.200   1.073  0.4231 -0.3707 -0.9717
  128MOL   H24833522   6.766   5.354   1.014 -2.6259  1.2136  3.4268
  128MOL   C24933523   7.029   5.137   1.476 -0.3430 -0.0446  0.3333
  128MOL   C25033524   7.139   5.095   1.383 -0.0201  0.4065 -0.0114
  128MOL   O25133525   7.259   5.032   1.436  0.7673 -0.5927  0.3180
  128MOL   C25233526   7.245   4.901   1.483  0.0260  0.6523  0.2985
  128MOL   C25333527   7.309   4.824   1.364  0.0036 -0.3266 -0.6532
  128MOL   H25433528   6.981   5.043   1.502  2.2625 -1.4721  0.1144
  128MOL   H25533529   7.080   5.176   1.564 -0.9492 -0.4897  0.8844
  128MOL   H25633530   7.098   5.026   1.309  2.5252  1.8988 -2.9123
  128MOL   H25733531   7.147   4.867   1.515  0.5257  0.7143  1.9626
  128MOL   H25833532   7.317   4.891   1.564 -0.9984 -1.7807  0.9736
  128MOL   H25933533   7.309   4.720   1.396  1.5349  0.4275  1.9058
  128MOL   H26033534   7.254   4.833   1.270  1.1407  3.4117 -1.0712
  128MOL   H26133535   7.412   4.856   1.349  0.3461 -0.3960  1.4475
  128MOL   H26233536   7.183   5.173   1.321 -0.2707  0.3193 -0.3047
  129MOL     C133537   3.123   5.617   2.860 -0.0416 -0.2221 -0.3829
  129MOL     C233538   3.048   5.602   2.728 -0.1800 -0.5025 -0.0146
  129MOL     O333539   2.928   5.540   2.777 -0.2366  0.7779 -0.4711
  129MOL     C433540   2.814   5.627   2.772 -0.0510 -0.1220  1.0263
  129MOL     C533541   2.690   5.572   2.838 -0.6717  0.9593  0.0706
  129MOL     H633542   3.187   5.533   2.886  0.6544 -0.2153 -2.0632
  129MOL     H733543   3.194   5.699   2.863 -0.5327  0.2632 -1.8584
  129MOL     H833544   3.020   5.699   2.686 -0.1651 -0.4835  0.0185
  129MOL     H933545   2.796   5.671   2.674  0.2922 -1.3437  0.4075
  129MOL    H1033546   2.844   5.714   2.830  0.5161 -0.5857  1.4330
  129MOL    H1133547   2.729   5.529   2.931 -0.2925 -1.7101 -1.2611
  129MOL    H1233548   2.611   5.643   2.862 -1.3609  0.4238 -0.5709
  129MOL    H1333549   2.645   5.494   2.776  0.4482  0.5294 -0.2191
  129MOL    H1433550   3.058   5.650   2.942  0.1191 -1.1917  0.1343
  129MOL    C1533551   3.107   5.493   2.636  0.6789 -0.0320 -0.4805
  129MOL    C1633552   3.233   5.534   2.559  0.0646 -0.3050  0.0711
  129MOL    O1733553   3.251   5.457   2.439 -0.1580 -0.2493  0.4484
  129MOL    C1833554   3.200   5.492   2.318  0.1700  0.0025  0.2892
  129MOL    C1933555   3.226   5.394   2.208  0.1306  0.8706  0.0165
  129MOL    H2033556   3.031   5.481   2.559 -1.2941  0.6183  1.3159
  129MOL    H2133557   3.121   5.395   2.681  1.5732 -0.2385 -1.2049
  129MOL    H2233558   3.244   5.642   2.548 -1.2604 -0.2372 -0.7652
  129MOL    H2333559   3.257   5.584   2.306  0.0722  0.2043  1.3552
  129MOL    H2433560   3.095   5.521   2.318 -0.5206 -2.4024  0.8337
  129MOL    H2533561   3.179   5.300   2.235 -2.1632  2.0238  0.1539
  129MOL    H2633562   3.332   5.374   2.195  0.0265  1.0365 -1.1907
  129MOL    H2733563   3.176   5.425   2.116 -0.7503  0.3948  0.3272
  129MOL    C2833564   3.363   5.505   2.632  0.1945 -0.0927 -0.3038
  129MOL    C2933565   3.492   5.548   2.555  0.5355  0.0847 -0.4359
  129MOL    O3033566   3.582   5.440   2.538 -0.0506 -0.0511 -0.6307
  129MOL    C3133567   3.549   5.360   2.424  0.3022 -0.3251 -0.3082
  129MOL    C3233568   3.652   5.243   2.422 -0.3301  0.2268 -0.2813
  129MOL    H3333569   3.371   5.402   2.667  1.6003  0.7127  1.9217
  129MOL    H3433570   3.381   5.558   2.726 -1.6842 -0.7965  0.4731
  129MOL    H3533571   3.464   5.589   2.458 -1.0257 -0.4566 -0.2264
  129MOL    H3633572   3.569   5.417   2.333 -0.4793  2.3857  1.1503
  129MOL    H3733573   3.444   5.335   2.412 -1.1796  4.7278  0.7879
  129MOL    H3833574   3.660   5.199   2.323 -1.2567 -0.8416  0.1205
  129MOL    H3933575   3.752   5.284   2.441 -0.2303 -0.6513  1.1433
  129MOL    H4033576   3.631   5.172   2.502  0.7027 -0.6284 -0.7521
  129MOL    C4133577   3.580   5.651   2.632  0.1128 -0.1176  0.5640
  129MOL    C4233578   3.674   5.726   2.544  0.2858  0.1707  0.0326
  129MOL    O4333579   3.779   5.790   2.621  0.0786  0.5789  0.2956
  129MOL    C4433580   3.874   5.698   2.669  0.1747  0.0360  0.3807
  129MOL    C4533581   4.010   5.773   2.699  0.2370  0.0461 -0.5884
  129MOL    H4633582   3.642   5.590   2.698 -1.3159 -1.7576  0.4230
  129MOL    H4733583   3.526   5.711   2.705  0.1659 -0.8210  1.1947
  129MOL    H4833584   3.718   5.666   2.465 -1.6185  0.6724 -1.4592
  129MOL    H4933585   3.892   5.613   2.603  0.9128  0.8189 -0.4457
  129MOL    H5033586   3.850   5.658   2.767 -2.4085  2.4187  0.7821
  129MOL    H5133587   4.082   5.715   2.757  0.1208 -2.1618 -2.5680
  129MOL    H5233588   4.060   5.797   2.605 -0.4032  1.2007 -0.6448
  129MOL    H5333589   4.000   5.868   2.752  2.6075 -1.0827  2.0121
  129MOL    C5433590   3.596   5.843   2.482  0.6897  0.6009 -0.1807
  129MOL    C5533591   3.668   5.895   2.347  0.2785 -0.2737  0.4735
  129MOL    O5633592   3.636   6.032   2.336 -0.4718 -0.3421 -0.0693
  129MOL    C5733593   3.721   6.115   2.411 -0.4549  0.4811  0.1179
  129MOL    C5833594   3.651   6.244   2.429 -0.3459  0.3166 -0.3285
  129MOL    H5933595   3.591   5.929   2.548 -1.7684  0.9745 -0.7907
  129MOL    H6033596   3.497   5.807   2.452  0.2559  0.5591  1.2925
  129MOL    H6133597   3.775   5.877   2.357  0.4345 -1.3417 -2.6652
  129MOL    H6233598   3.812   6.146   2.360 -1.3875  1.7169 -0.8247
  129MOL    H6333599   3.740   6.076   2.511 -0.8673 -2.3448 -0.8506
  129MOL    H6433600   3.710   6.321   2.478  0.9106 -0.1044 -1.1730
  129MOL    H6533601   3.626   6.289   2.334 -0.4633  0.7417 -0.0985
  129MOL    H6633602   3.551   6.228   2.472 -0.0737  0.8819  0.5237
  129MOL    C6733603   3.636   5.817   2.217  0.6001  0.0296  0.1809
  129MOL    C6833604   3.730   5.852   2.099  0.0972  0.1038  0.0524
  129MOL    O6933605   3.658   5.823   1.977  0.0968  0.6035  0.3047
  129MOL    C7033606   3.609   5.947   1.915 -0.0991 -0.6880  0.7511
  129MOL    C7133607   3.525   5.927   1.787  0.0070  0.0195 -0.8189
  129MOL    H7233608   3.537   5.845   2.179  0.0769  0.6626  1.9582
  129MOL    H7333609   3.630   5.710   2.238  1.3274  0.5711  3.3610
  129MOL    H7433610   3.758   5.957   2.101 -1.0786  0.4242  0.3190
  129MOL    H7533611   3.695   6.008   1.886 -1.1741  0.8795  0.8433
  129MOL    H7633612   3.557   6.003   1.993 -0.4170  0.2982 -0.1621
  129MOL    H7733613   3.525   6.020   1.729  1.1772 -0.1938 -1.1672
  129MOL    H7833614   3.567   5.846   1.727 -1.3178 -0.8127 -0.6474
  129MOL    H7933615   3.421   5.900   1.805 -0.0363  1.1735  0.6991
  129MOL    C8033616   3.855   5.771   2.092  0.0811 -0.3139  0.1887
  129MOL    C8133617   3.943   5.776   1.964  0.1699  0.2103 -0.4926
  129MOL    O8233618   4.038   5.674   1.983 -0.4689 -0.7141 -0.0095
  129MOL    C8333619   4.041   5.595   1.862  0.4887 -0.1619 -0.6045
  129MOL    C8433620   4.136   5.475   1.879  0.6824 -0.2331  0.5981
  129MOL    H8533621   3.812   5.671   2.101 -0.9125  0.2148  1.4458
  129MOL    H8633622   3.911   5.793   2.183 -1.5374 -0.3357  1.2019
  129MOL    H8733623   3.891   5.754   1.870 -4.0381 -0.0878  1.7810
  129MOL    H8833624   4.072   5.655   1.776  0.4554  1.0315  0.2105
  129MOL    H8933625   3.939   5.557   1.848  0.7624 -0.8845 -0.6554
  129MOL    H9033626   4.239   5.503   1.898  0.7581  0.5694 -0.9102
  129MOL    H9133627   4.108   5.429   1.973  3.2578 -0.1140  1.4501
  129MOL    H9233628   4.128   5.401   1.800 -1.4251  0.8309 -0.2404
  129MOL    C9333629   4.003   5.917   1.945 -0.4482  0.1312  0.7616
  129MOL    C9433630   4.074   5.986   2.059  0.4454 -0.1902  0.9994
  129MOL    O9533631   4.083   6.128   2.026 -0.2625 -0.3768 -0.4756
  129MOL    C9633632   3.987   6.214   2.084  0.7993 -0.5439 -0.1547
  129MOL    C9733633   3.945   6.320   1.974 -0.1247 -0.1180 -0.6626
  129MOL    H9833634   3.915   5.980   1.931  0.4804  1.5967  1.4141
  129MOL    H9933635   4.063   5.914   1.854 -0.2725 -1.3279  0.9112
  129MOL   H10033636   4.016   5.969   2.150 -0.8258  1.9247  0.6086
  129MOL   H10133637   4.024   6.274   2.167 -1.7695 -0.6804  1.1052
  129MOL   H10233638   3.903   6.162   2.128  0.7184  0.9932  1.5808
  129MOL   H10333639   3.888   6.274   1.893 -3.3222 -3.8998  3.4855
  129MOL   H10433640   3.882   6.398   2.017 -0.7032  0.0731 -1.8248
  129MOL   H10533641   4.033   6.363   1.927  0.7266  0.1791  1.1724
  129MOL   C10633642   4.217   5.942   2.072  0.5906 -0.4375 -0.2248
  129MOL   C10733643   4.286   5.995   2.203 -0.0162 -0.2009  0.3701
  129MOL   O10833644   4.429   5.996   2.179 -0.2730  0.8052  0.0002
  129MOL   C10933645   4.474   6.113   2.111  1.2508  0.4474 -0.3659
  129MOL   C11033646   4.613   6.147   2.161  0.1675  0.1728 -0.4826
  129MOL   H11133647   4.277   5.979   1.989  0.5517 -1.4003 -0.6844
  129MOL   H11233648   4.223   5.834   2.061 -1.1215 -0.6949  1.0899
  129MOL   H11333649   4.254   6.098   2.215 -1.1917 -0.3414 -1.3945
  129MOL   H11433650   4.423   6.206   2.134  1.1095  0.4414 -0.6558
  129MOL   H11533651   4.466   6.089   2.005  1.1561  0.4466 -0.3586
  129MOL   H11633652   4.678   6.060   2.154 -1.3420 -0.9886 -0.2094
  129MOL   H11733653   4.655   6.232   2.106 -0.5086  0.9384  0.1750
  129MOL   H11833654   4.618   6.182   2.264 -0.9761 -1.5829  0.1833
  129MOL   C11933655   4.258   5.910   2.325  0.0672  0.6917  0.2493
  129MOL   C12033656   4.277   5.975   2.465  0.4141 -0.6695  0.0514
  129MOL   O12133657   4.185   6.080   2.454  0.3841  0.2686 -0.2347
  129MOL   C12233658   4.116   6.112   2.576  0.4531 -0.3484  0.1598
  129MOL   C12333659   4.020   6.233   2.559 -0.1445 -0.4055  0.4767
  129MOL   H12433660   4.327   5.826   2.313 -1.4805 -0.4283 -1.0196
  129MOL   H12533661   4.155   5.878   2.312  0.3154 -0.4370  0.9689
  129MOL   H12633662   4.254   5.901   2.541  0.8409 -0.2680  0.5715
  129MOL   H12733663   4.173   6.115   2.669 -0.5051  3.3765  0.7140
  129MOL   H12833664   4.042   6.033   2.572  3.4094 -3.1984  0.1405
  129MOL   H12933665   3.976   6.253   2.461 -0.4974  1.3455  0.9723
  129MOL   H13033666   3.946   6.235   2.638 -2.3607  1.0365 -1.5581
  129MOL   H13133667   4.079   6.324   2.571  0.0509 -0.4196 -0.3505
  129MOL   C13233668   4.411   6.044   2.495 -0.0163  0.1195 -0.6085
  129MOL   C13333669   4.521   5.949   2.553  0.8646  0.0101  0.0773
  129MOL   O13433670   4.614   6.038   2.612 -0.2524 -0.4084 -0.3632
  129MOL   C13533671   4.601   6.041   2.750 -0.7228 -0.2146  0.1363
  129MOL   C13633672   4.621   6.184   2.798  0.1545 -0.3156  0.4882
  129MOL   H13733673   4.391   6.119   2.572 -1.1459 -1.4026  0.6147
  129MOL   H13833674   4.440   6.108   2.412 -1.7975  1.0004 -0.5827
  129MOL   H13933675   4.485   5.878   2.627  1.7641  1.7162  2.1893
  129MOL   H14033676   4.669   5.972   2.800  0.0611 -0.1711 -0.8758
  129MOL   H14133677   4.499   6.015   2.779  0.2107 -0.7653  3.1252
  129MOL   H14233678   4.555   6.256   2.750  0.6930 -0.3716 -0.3478
  129MOL   H14333679   4.597   6.188   2.904 -1.6828 -0.9509  0.1223
  129MOL   H14433680   4.722   6.220   2.780  0.5410 -1.5647  0.0898
  129MOL   C14533681   4.587   5.875   2.430 -0.3528  0.7711  0.3665
  129MOL   C14633682   4.715   5.788   2.471  0.3605 -0.5958 -0.2806
  129MOL   O14733683   4.779   5.730   2.355  0.2995  0.1436  0.0636
  129MOL   C14833684   4.835   5.813   2.261  0.1633 -0.5249 -0.4890
  129MOL   C14933685   4.981   5.853   2.277  0.2341 -0.5734 -0.1764
  129MOL   H15033686   4.596   5.949   2.350 -3.5446 -1.8127 -2.5424
  129MOL   H15133687   4.518   5.796   2.402 -0.8470  1.1831  0.4063
  129MOL   H15233688   4.780   5.862   2.516 -1.4740  0.7696  0.1732
  129MOL   H15333689   4.780   5.906   2.253  0.1904 -0.3676  1.0025
  129MOL   H15433690   4.824   5.772   2.160  0.7376  0.8715 -1.1288
  129MOL   H15533691   4.992   5.886   2.380 -0.0153  0.2893 -0.4245
  129MOL   H15633692   5.062   5.782   2.262  1.7194  1.1850 -0.6601
  129MOL   H15733693   5.003   5.933   2.207 -1.7470  1.1177  1.0921
  129MOL   C15833694   4.690   5.674   2.574 -0.2418 -0.5312  0.8958
  129MOL   C15933695   4.818   5.590   2.613  0.4379 -0.0542 -0.0780
  129MOL   O16033696   4.772   5.495   2.712  0.2882  0.1763  0.1333
  129MOL   C16133697   4.710   5.369   2.668  0.3429 -0.0374 -0.0555
  129MOL   C16233698   4.681   5.296   2.793  0.0774  0.2430 -0.5290
  129MOL   H16333699   4.612   5.612   2.530 -0.1296  1.6308 -2.6083
  129MOL   H16433700   4.644   5.703   2.668 -0.5783  0.1702  0.5244
  129MOL   H16533701   4.860   5.526   2.536 -0.1898 -0.3366 -0.1829
  129MOL   H16633702   4.787   5.315   2.613  1.5633  0.2171  1.3717
  129MOL   H16733703   4.621   5.385   2.607 -0.5802  1.0685  1.5027
  129MOL   H16833704   4.641   5.196   2.777  1.9226 -0.7642  0.9634
  129MOL   H16933705   4.773   5.289   2.851 -1.3527  2.2370  2.0988
  129MOL   H17033706   4.612   5.348   2.859  0.0684  0.3998 -0.6639
  129MOL   C17133707   4.932   5.676   2.684  0.0979 -0.1726  0.4204
  129MOL   C17233708   5.066   5.599   2.740  0.1756 -0.2011 -0.0752
  129MOL   O17333709   5.103   5.646   2.869 -0.0140 -0.5556  0.0128
  129MOL   C17433710   5.017   5.613   2.987 -0.1215 -0.2239  0.0505
  129MOL   C17533711   5.050   5.474   3.032  0.9245 -0.0651 -0.4665
  129MOL   H17633712   4.877   5.725   2.764 -0.1619 -0.2284  0.2754
  129MOL   H17733713   4.956   5.763   2.622 -0.5026  0.0993  0.5651
  129MOL   H17833714   5.036   5.495   2.751  0.0869 -0.0158  1.5429
  129MOL   H17933715   4.911   5.625   2.967  0.2663 -1.8931 -3.4665
  129MOL   H18033716   5.039   5.690   3.061 -3.1472 -0.0210  0.7748
  129MOL   H18133717   4.987   5.460   3.120 -0.8561  0.9264 -1.5405
  129MOL   H18233718   5.027   5.394   2.962 -0.7819 -0.4325  0.4750
  129MOL   H18333719   5.154   5.464   3.060  0.7347  1.1463  0.7164
  129MOL   C18433720   5.181   5.605   2.640  0.1507 -0.3171  0.2754
  129MOL   C18533721   5.312   5.538   2.671 -0.8850 -0.2396  0.4675
  129MOL   O18633722   5.407   5.554   2.569  0.7560  0.1870 -0.5549
  129MOL   C18733723   5.463   5.684   2.552 -0.0489  0.2284 -0.1503
  129MOL   C18833724   5.585   5.670   2.454  0.4747  0.3441 -0.3888
  129MOL   H18933725   5.201   5.711   2.623  3.2106 -0.8820  0.0734
  129MOL   H19033726   5.134   5.568   2.549 -2.6746 -0.9283  1.9471
  129MOL   H19133727   5.358   5.583   2.759  1.9569 -0.5817 -0.7738
  129MOL   H19233728   5.502   5.728   2.643 -3.6980 -0.0898  1.6235
  129MOL   H19333729   5.396   5.759   2.512  1.7230  2.7688  1.5176
  129MOL   H19433730   5.668   5.639   2.518  1.1851 -0.6619 -1.7748
  129MOL   H19533731   5.567   5.595   2.377 -0.1927  0.0180  0.0731
  129MOL   H19633732   5.619   5.765   2.413  1.5663  0.2367  0.2456
  129MOL   C19733733   5.294   5.385   2.686 -0.7801  0.1592 -0.6088
  129MOL   C19833734   5.409   5.298   2.733  0.0726 -0.4943  0.3963
  129MOL   O19933735   5.373   5.163   2.694 -0.0073  0.1854  0.8566
  129MOL   C20033736   5.424   5.119   2.565  0.1100  0.6367  1.0439
  129MOL   C20133737   5.322   5.014   2.513  0.4696  0.2128  0.1810
  129MOL   H20233738   5.252   5.344   2.595 -0.6472  1.7728 -1.4154
  129MOL   H20333739   5.221   5.363   2.764 -0.3329 -0.0776 -0.2534
  129MOL   H20433740   5.504   5.328   2.689  1.2540 -3.7993  0.5402
  129MOL   H20533741   5.514   5.062   2.590 -1.6719 -3.6098 -1.5165
  129MOL   H20633742   5.442   5.206   2.502  1.0008  0.1075  0.5582
  129MOL   H20733743   5.313   4.929   2.580  2.6570  0.2106  0.5176
  129MOL   H20833744   5.221   5.054   2.510  0.0937 -0.7915 -0.8892
  129MOL   H20933745   5.362   4.966   2.424  0.8816  2.7605 -1.0483
  129MOL   C21033746   5.448   5.297   2.883  0.0970  0.0262 -0.2987
  129MOL   C21133747   5.576   5.222   2.918 -0.6371  0.0087  0.3417
  129MOL   O21233748   5.582   5.248   3.058  0.2775 -0.2852 -0.4564
  129MOL   C21333749   5.562   5.129   3.131  0.0903  0.2043 -0.4007
  129MOL   C21433750   5.603   5.161   3.277  0.2382 -0.2774 -0.3146
  129MOL   H21533751   5.372   5.260   2.953  1.8688 -1.1165  1.0646
  129MOL   H21633752   5.464   5.402   2.906  0.1757  0.2702 -1.4685
  129MOL   H21733753   5.587   5.115   2.902 -1.8911 -0.2692  1.2827
  129MOL   H21833754   5.633   5.053   3.100 -1.1232 -0.6045 -1.2383
  129MOL   H21933755   5.463   5.083   3.127  1.1353 -2.0748 -0.5855
  129MOL   H22033756   5.524   5.218   3.326 -0.1657  0.3793 -1.7061
  129MOL   H22133757   5.625   5.071   3.334  0.4484  0.7011  1.1664
  129MOL   H22233758   5.700   5.209   3.285  0.2327 -0.6549  2.5114
  129MOL   C22333759   5.697   5.289   2.853 -0.0952  0.8963 -0.0843
  129MOL   C22433760   5.840   5.274   2.914  0.8701 -0.0643  0.5171
  129MOL   O22533761   5.926   5.356   2.838 -0.0085 -0.4743  0.1563
  129MOL   C22633762   5.918   5.495   2.867 -0.3765 -0.2973 -0.7491
  129MOL   C22733763   6.027   5.565   2.792 -0.3012 -0.3390  0.1700
  129MOL   H22833764   5.679   5.397   2.855 -0.4862  0.8427 -0.6118
  129MOL   H22933765   5.702   5.266   2.746  0.8123 -1.1856  0.3827
  129MOL   H23033766   5.834   5.315   3.015 -0.0752 -1.0668  0.8775
  129MOL   H23133767   5.934   5.514   2.973  0.7405 -1.2471 -0.7373
  129MOL   H23233768   5.827   5.541   2.828 -0.1077 -0.0780 -1.1176
  129MOL   H23333769   6.024   5.672   2.810 -2.5465 -0.1969 -0.8344
  129MOL   H23433770   6.132   5.539   2.805 -0.1576  0.4553  0.6198
  129MOL   H23533771   6.003   5.565   2.685 -2.0438  1.2924  0.5397
  129MOL   C23633772   5.886   5.127   2.928  0.6169  0.1611  0.3974
  129MOL   C23733773   6.026   5.097   2.994 -0.2244  0.4716 -0.5340
  129MOL   O23833774   6.061   4.958   2.975 -0.4848  0.3071  0.4453
  129MOL   C23933775   6.154   4.946   2.867 -0.4635 -0.3252 -0.2790
  129MOL   C24033776   6.141   4.807   2.810  0.5537 -0.4196  0.1401
  129MOL   H24133777   5.890   5.082   2.829  1.0185 -2.6840  1.6488
  129MOL   H24233778   5.816   5.074   2.993 -1.2689 -1.8740 -3.1305
  129MOL   H24333779   6.096   5.173   2.959 -2.0400  2.2150 -0.4459
  129MOL   H24433780   6.252   4.959   2.913 -0.7767 -1.2320  0.6711
  129MOL   H24533781   6.136   5.027   2.796  0.8184  0.2066 -0.0241
  129MOL   H24633782   6.204   4.792   2.722 -2.8181 -0.8499 -2.2889
  129MOL   H24733783   6.161   4.733   2.888 -1.5513 -1.1263  0.0290
  129MOL   H24833784   6.038   4.796   2.776  1.1619  0.5124 -2.1028
  129MOL   C24933785   6.018   5.130   3.143  0.2379 -0.1179 -0.4962
  129MOL   C25033786   6.164   5.125   3.210  0.0833  0.8145  0.1274
  129MOL   O25133787   6.161   5.163   3.349  0.2369  0.2683  0.4550
  129MOL   C25233788   6.283   5.136   3.422  0.3771 -0.3859 -0.6993
  129MOL   C25333789   6.312   5.263   3.509 -0.2081 -0.9531 -0.1530
  129MOL   H25433790   5.943   5.065   3.186  1.1117 -0.8483 -0.0658
  129MOL   H25533791   5.976   5.230   3.153 -2.9270 -1.3328 -1.0692
  129MOL   H25633792   6.204   5.024   3.207  1.0733  1.2121 -0.0540
  129MOL   H25733793   6.369   5.105   3.364  1.8081  0.5143  0.8775
  129MOL   H25833794   6.264   5.058   3.496  0.0487  0.7327  0.4326
  129MOL   H25933795   6.324   5.348   3.442  1.2008 -0.3095  0.8871
  129MOL   H26033796   6.236   5.284   3.584  0.3602  2.7746 -0.5212
  129MOL   H26133797   6.409   5.244   3.554  0.2573 -0.2255 -0.8214
  129MOL   H26233798   6.233   5.192   3.158  1.2382 -0.9735 -0.7014
  130MOL     C133799   7.126   1.759   1.052  0.3862  0.1095 -0.3320
  130MOL     C233800   7.194   1.628   1.107  0.3421 -0.3622 -0.1021
  130MOL     O333801   7.110   1.521   1.077  0.0729  0.0520  0.4410
  130MOL     C433802   6.979   1.513   1.128 -0.0877  0.7216  0.3394
  130MOL     C533803   6.922   1.381   1.061  0.1100  0.3242  0.3319
  130MOL     H633804   7.043   1.784   1.118  1.0057 -0.6766  0.7635
  130MOL     H733805   7.199   1.839   1.059 -0.4602  0.7768  1.1500
  130MOL     H833806   7.282   1.613   1.045  2.2565  0.9839  2.1845
  130MOL     H933807   6.914   1.595   1.098 -0.0751  0.4572 -0.4210
  130MOL    H1033808   6.980   1.509   1.237  1.6805 -0.9849  0.2907
  130MOL    H1133809   6.815   1.367   1.042  0.1366  2.4519 -1.6997
  130MOL    H1233810   6.979   1.369   0.969 -3.3708  0.4639 -1.9705
  130MOL    H1333811   6.955   1.304   1.130 -1.3123 -1.3375 -0.7732
  130MOL    H1433812   7.088   1.751   0.950 -0.6663 -0.3355  0.0839
  130MOL    C1533813   7.229   1.632   1.254  0.0338  0.9479 -0.2305
  130MOL    C1633814   7.312   1.760   1.288  0.0047  0.0267  0.8275
  130MOL    O1733815   7.420   1.776   1.194 -0.6644 -0.3689  0.2626
  130MOL    C1833816   7.479   1.907   1.191 -0.1832  0.1585 -0.8036
  130MOL    C1933817   7.580   1.925   1.074 -0.1267  0.8677 -0.0463
  130MOL    H2033818   7.278   1.539   1.282  1.2391  0.9974 -2.0903
  130MOL    H2133819   7.139   1.646   1.313  0.4276 -1.7071  1.0804
  130MOL    H2233820   7.244   1.844   1.279 -1.1852 -1.0577 -0.4482
  130MOL    H2333821   7.534   1.908   1.285 -1.1283 -1.5955 -0.2012
  130MOL    H2433822   7.405   1.987   1.187 -0.9002 -0.3523  1.4268
  130MOL    H2533823   7.675   1.879   1.102 -1.2511 -0.2713  1.9696
  130MOL    H2633824   7.594   2.031   1.054  1.0217  1.2077  2.3592
  130MOL    H2733825   7.545   1.876   0.983  0.2752  0.9833 -0.2649
  130MOL    C2833826   7.366   1.751   1.437 -0.0823 -0.0972  0.6452
  130MOL    C2933827   7.273   1.805   1.551  0.6623 -0.3049  0.0698
  130MOL    O3033828   7.366   1.825   1.658 -0.0659  0.1408  0.3115
  130MOL    C3133829   7.368   1.956   1.707  0.3352  0.0731 -0.2256
  130MOL    C3233830   7.444   1.954   1.836 -0.4513  0.2862  0.3474
  130MOL    H3333831   7.462   1.801   1.451 -0.8285  1.8023 -0.8195
  130MOL    H3433832   7.389   1.649   1.470  0.8808  0.1147  0.6495
  130MOL    H3533833   7.233   1.904   1.529 -0.5417 -1.1271 -1.5285
  130MOL    H3633834   7.268   1.997   1.723  0.9393  1.0573  1.1512
  130MOL    H3733835   7.416   2.027   1.641  1.1390 -0.4814 -0.2466
  130MOL    H3833836   7.404   1.895   1.918 -0.2964  1.9830  1.6769
  130MOL    H3933837   7.546   1.917   1.828 -0.2419  1.1369 -1.0539
  130MOL    H4033838   7.465   2.054   1.875  0.2977 -0.4035  1.7527
  130MOL    C4133839   7.155   1.712   1.586 -0.4915 -0.0200  0.0613
  130MOL    C4233840   7.026   1.784   1.536 -0.7237  0.0519  0.3918
  130MOL    O4333841   7.007   1.876   1.639  1.0633  0.3617 -0.3769
  130MOL    C4433842   6.988   2.007   1.592  0.0482 -0.4476 -0.9520
  130MOL    C4533843   6.942   2.098   1.706 -0.3657 -0.0398 -0.2715
  130MOL    H4633844   7.148   1.689   1.692 -0.4088 -3.5918 -0.6296
  130MOL    H4733845   7.165   1.618   1.530  3.6113 -0.8918  2.0476
  130MOL    H4833846   7.046   1.833   1.441  0.8228  1.6019  1.4916
  130MOL    H4933847   6.923   2.019   1.506 -0.1495 -0.0921 -0.7507
  130MOL    H5033848   7.086   2.049   1.567 -1.1349  1.1805 -3.0117
  130MOL    H5133849   6.838   2.081   1.735  0.4040 -0.7532  2.1322
  130MOL    H5233850   6.998   2.065   1.793  0.1549 -0.0251 -0.6028
  130MOL    H5333851   6.962   2.202   1.684  0.4569  0.4279  2.5435
  130MOL    C5433852   6.911   1.679   1.525 -0.3803  0.1155  0.6662
  130MOL    C5533853   6.774   1.733   1.508 -0.1903 -0.4755 -0.2935
  130MOL    O5633854   6.684   1.625   1.543 -0.3966 -0.3138  0.0492
  130MOL    C5733855   6.579   1.649   1.641  0.6446 -0.2687  0.4519
  130MOL    C5833856   6.496   1.520   1.648 -0.8945  0.3641  0.0315
  130MOL    H5933857   6.906   1.623   1.619 -0.7080  0.6404  0.9618
  130MOL    H6033858   6.937   1.608   1.447 -0.3907 -1.0655  1.7272
  130MOL    H6133859   6.754   1.820   1.571  1.1439 -0.6261  0.3506
  130MOL    H6233860   6.517   1.735   1.618  2.2017  0.8215  0.2931
  130MOL    H6333861   6.630   1.673   1.735  1.7752  0.1985 -0.2803
  130MOL    H6433862   6.428   1.508   1.564  0.5236  0.7130 -1.1737
  130MOL    H6533863   6.560   1.432   1.656 -1.6491 -0.0052  2.7920
  130MOL    H6633864   6.446   1.526   1.745 -0.5582  1.9248  0.1156
  130MOL    C6733865   6.757   1.783   1.362  0.4883  0.3428  0.6323
  130MOL    C6833866   6.623   1.854   1.342  0.6892  0.5222 -0.1433
  130MOL    O6933867   6.605   1.860   1.200 -0.2932 -0.6216 -0.3996
  130MOL    C7033868   6.545   1.750   1.140  0.1150 -0.3382 -0.3937
  130MOL    C7133869   6.551   1.758   0.986 -1.0831 -0.1660  0.5552
  130MOL    H7233870   6.758   1.700   1.292  0.4761  2.4415 -1.9174
  130MOL    H7333871   6.840   1.847   1.333  1.1875 -0.5250  0.7072
  130MOL    H7433872   6.551   1.787   1.388  1.4670 -1.2535 -1.3979
  130MOL    H7533873   6.439   1.745   1.166  0.4174  0.7382  1.0608
  130MOL    H7633874   6.589   1.657   1.176  0.7993  0.0963 -0.0990
  130MOL    H7733875   6.524   1.670   0.927  0.2497 -0.6554  0.6680
  130MOL    H7833876   6.485   1.839   0.955 -1.0377  0.4248  1.9662
  130MOL    H7933877   6.652   1.779   0.953 -1.2823 -0.3323 -0.1779
  130MOL    C8033878   6.622   1.991   1.410  0.6068  0.0457  0.2671
  130MOL    C8133879   6.488   2.065   1.402 -0.0542 -0.9607 -0.6062
  130MOL    O8233880   6.441   2.089   1.276  0.0985 -0.1486 -0.5165
  130MOL    C8333881   6.316   2.039   1.246  0.4941 -0.2631  0.3321
  130MOL    C8433882   6.288   2.070   1.097  0.0539  0.3420  0.1688
  130MOL    H8533883   6.704   2.047   1.364 -1.0550  2.8701  0.6257
  130MOL    H8633884   6.658   1.986   1.513 -1.8758  1.9043  1.2598
  130MOL    H8733885   6.417   1.994   1.445 -0.7962 -0.2725 -0.6855
  130MOL    H8833886   6.251   2.093   1.314 -0.0307  0.0363 -0.4042
  130MOL    H8933887   6.293   1.934   1.264 -1.9095  0.2193  0.2053
  130MOL    H9033888   6.375   2.026   1.048 -1.8136 -1.6396 -1.4656
  130MOL    H9133889   6.185   2.047   1.071 -0.9013  0.9293  3.2420
  130MOL    H9233890   6.288   2.177   1.079  1.1936  0.3028 -0.0956
  130MOL    C9333891   6.467   2.192   1.492 -0.2069  0.0545  0.0808
  130MOL    C9433892   6.433   2.173   1.644  0.3969 -0.0428 -0.6899
  130MOL    O9533893   6.525   2.071   1.682 -0.2786 -0.4979  0.0769
  130MOL    C9633894   6.577   2.089   1.801 -0.0335  0.7839  0.4683
  130MOL    C9733895   6.638   1.947   1.836  0.0100  0.1130  0.1334
  130MOL    H9833896   6.378   2.246   1.459 -0.9635 -2.2460 -1.7709
  130MOL    H9933897   6.549   2.263   1.480 -0.1980 -0.2000 -1.4790
  130MOL   H10033898   6.449   2.268   1.696  1.7487  0.2855 -1.6612
  130MOL   H10133899   6.512   2.115   1.884  2.0462 -0.7691  2.6509
  130MOL   H10233900   6.657   2.162   1.806  1.6860 -1.1586  2.6444
  130MOL   H10333901   6.710   1.903   1.767 -1.2108 -1.8029  0.0485
  130MOL   H10433902   6.672   1.942   1.940 -4.7801  0.3053  1.8096
  130MOL   H10533903   6.564   1.870   1.818  0.8832 -0.3383 -1.6748
  130MOL   C10633904   6.295   2.121   1.673  0.2461  0.5454  0.4515
  130MOL   C10733905   6.180   2.221   1.662  0.1504 -0.2250  1.0673
  130MOL   O10833906   6.219   2.319   1.752  0.1334  0.3786 -0.3951
  130MOL   C10933907   6.200   2.452   1.707 -0.9293  0.2033 -0.5696
  130MOL   C11033908   6.227   2.541   1.831 -0.0061 -0.6058  0.0356
  130MOL   H11133909   6.287   2.098   1.780  0.9723  0.7025  0.5415
  130MOL   H11233910   6.276   2.031   1.613 -1.8187  0.7713  0.7385
  130MOL   H11333911   6.174   2.263   1.561  0.6093  0.4426  1.3132
  130MOL   H11433912   6.098   2.473   1.672 -1.4757 -1.7738 -0.1925
  130MOL   H11533913   6.262   2.488   1.625  1.7826 -2.0571  0.4419
  130MOL   H11633914   6.282   2.633   1.809  1.5031 -1.1341  1.5746
  130MOL   H11733915   6.127   2.554   1.872 -0.3413 -1.0099 -0.6459
  130MOL   H11833916   6.278   2.480   1.905  1.0650 -0.7590 -0.8162
  130MOL   C11933917   6.039   2.160   1.697 -0.4793  0.0399  0.5331
  130MOL   C12033918   5.978   2.066   1.602 -0.8872 -0.4015  0.2426
  130MOL   O12133919   5.954   2.121   1.475  0.0971 -0.5311  0.5973
  130MOL   C12233920   5.941   2.033   1.373  0.2253  0.1719  0.5052
  130MOL   C12333921   5.917   2.119   1.251 -0.5241 -0.0466 -0.1916
  130MOL   H12433922   5.963   2.236   1.713  0.2675  1.2736 -1.6249
  130MOL   H12533923   6.054   2.113   1.795 -0.6792  0.3045  0.6913
  130MOL   H12633924   6.060   1.997   1.585 -1.9145 -1.3427 -1.0678
  130MOL   H12733925   5.863   1.957   1.375  0.4224 -0.0190  0.9651
  130MOL   H12833926   6.039   1.988   1.357 -0.0988 -1.1551  2.0908
  130MOL   H12933927   5.812   2.115   1.224 -0.7057  0.5043  0.4335
  130MOL   H13033928   5.929   2.227   1.265  2.2336 -0.0203 -2.2466
  130MOL   H13133929   5.980   2.091   1.166  0.6341 -2.2308  1.3590
  130MOL   C13233930   5.851   1.999   1.660  0.5964 -0.2063  0.2342
  130MOL   C13333931   5.743   2.094   1.714 -0.6069 -0.2235 -0.1361
  130MOL   O13433932   5.772   2.120   1.857 -0.2921  0.0454 -0.1260
  130MOL   C13533933   5.701   2.227   1.917 -0.1537 -0.2524  0.1632
  130MOL   C13633934   5.776   2.303   2.026 -0.6639  0.5543 -0.1127
  130MOL   H13733935   5.872   1.935   1.746  2.7123  0.5213  0.2781
  130MOL   H13833936   5.805   1.937   1.582 -0.8123  1.6979 -0.5009
  130MOL   H13933937   5.752   2.185   1.655 -2.1257  0.2550  0.3503
  130MOL   H14033938   5.604   2.186   1.946 -0.6042  1.3125  0.9471
  130MOL   H14133939   5.682   2.308   1.847 -0.1760  1.3762  2.0248
  130MOL   H14233940   5.787   2.226   2.102 -2.1412 -1.4429 -1.8597
  130MOL   H14333941   5.876   2.330   1.990 -0.4629 -1.9096 -1.5268
  130MOL   H14433942   5.724   2.388   2.071  0.5573  0.1881  2.0831
  130MOL   C14533943   5.594   2.039   1.701 -1.0022  0.4431  0.8233
  130MOL   C14633944   5.495   2.128   1.627  0.1779 -0.1233  0.5605
  130MOL   O14733945   5.465   2.237   1.712 -0.4315  0.3762 -0.3967
  130MOL   C14833946   5.478   2.361   1.648  0.2567  0.0330  0.1561
  130MOL   C14933947   5.450   2.471   1.758 -0.1231  0.3320  0.9231
  130MOL   H15033948   5.563   2.021   1.804 -0.8961 -0.9156  0.6265
  130MOL   H15133949   5.597   1.949   1.640 -1.4363  2.1233 -1.7503
  130MOL   H15233950   5.542   2.159   1.534  0.9977  0.5078  1.1833
  130MOL   H15333951   5.396   2.371   1.576 -1.0535 -1.5423  1.3682
  130MOL   H15433952   5.574   2.372   1.599 -0.0154  1.4651 -0.0894
  130MOL   H15533953   5.347   2.466   1.792 -0.8747 -0.7167 -1.3826
  130MOL   H15633954   5.520   2.450   1.839 -2.3645 -0.0217  2.8061
  130MOL   H15733955   5.464   2.573   1.722 -1.2279  0.0256 -0.4151
  130MOL   C15833956   5.372   2.047   1.578 -0.7550  0.2542  0.2724
  130MOL   C15933957   5.411   1.975   1.451 -0.1786 -0.1832  0.1232
  130MOL   O16033958   5.428   2.081   1.348 -0.1615 -0.3835  0.6302
  130MOL   C16133959   5.487   2.026   1.228 -0.0144 -0.2775 -0.2538
  130MOL   C16233960   5.515   2.147   1.145  0.0648 -0.1405 -0.0267
  130MOL   H16333961   5.290   2.115   1.556 -0.6833 -0.2227 -1.5328
  130MOL   H16433962   5.332   1.982   1.656 -0.5256  0.2814  0.4131
  130MOL   H16533963   5.504   1.919   1.460  0.7503  0.8057 -2.6179
  130MOL   H16633964   5.415   1.959   1.181 -1.8859  1.6987 -0.2792
  130MOL   H16733965   5.581   1.977   1.253  1.1824  1.2702 -1.6825
  130MOL   H16833966   5.587   2.115   1.070 -2.0938 -0.1512 -2.1981
  130MOL   H16933967   5.435   2.183   1.080  2.1843  0.9630 -2.0886
  130MOL   H17033968   5.561   2.224   1.206 -0.6710 -0.6028  1.1417
  130MOL   C17133969   5.304   1.875   1.408  0.2733  1.3803  0.7155
  130MOL   C17233970   5.268   1.755   1.502 -0.4652 -0.0360 -0.4445
  130MOL   O17333971   5.390   1.715   1.572  0.3219  0.3761 -0.1253
  130MOL   C17433972   5.379   1.678   1.711  0.1511  0.8429 -0.2460
  130MOL   C17533973   5.505   1.611   1.766 -0.4140 -0.2929  0.5497
  130MOL   H17633974   5.343   1.828   1.318 -1.0403 -0.2070  0.9551
  130MOL   H17733975   5.209   1.925   1.385  0.4343  0.7449 -1.4656
  130MOL   H17833976   5.197   1.786   1.579 -1.1805 -1.0785 -0.6853
  130MOL   H17933977   5.301   1.604   1.723  1.5479 -0.6541 -0.2094
  130MOL   H18033978   5.367   1.772   1.764 -0.2576  1.2699 -1.0760
  130MOL   H18133979   5.528   1.513   1.725 -2.2136 -0.0399 -1.1087
  130MOL   H18233980   5.591   1.676   1.752 -0.1205 -0.4644  1.4979
  130MOL   H18333981   5.498   1.590   1.873 -1.0419 -0.1109  0.5416
  130MOL   C18433982   5.204   1.636   1.431 -0.5644 -0.2236 -0.4078
  130MOL   C18533983   5.070   1.653   1.369  0.5260 -0.1577  0.3150
  130MOL   O18633984   4.981   1.681   1.474 -0.0799  0.3429  0.4723
  130MOL   C18733985   4.879   1.779   1.445 -0.3391 -0.1432  0.2006
  130MOL   C18833986   4.765   1.757   1.543  0.1591  0.6454 -0.0792
  130MOL   H18933987   5.211   1.547   1.493 -1.3922  0.2833  0.4356
  130MOL   H19033988   5.275   1.611   1.352 -0.3306  2.8617 -1.2467
  130MOL   H19133989   5.063   1.742   1.306  2.6597 -1.0480 -1.2610
  130MOL   H19233990   4.845   1.791   1.342 -0.8890  2.3776  0.6443
  130MOL   H19333991   4.916   1.880   1.461  1.7483 -0.5348 -1.8821
  130MOL   H19433992   4.708   1.669   1.515  0.1792 -0.3492  2.7676
  130MOL   H19533993   4.807   1.751   1.644  0.0666 -1.0956 -0.1344
  130MOL   H19633994   4.690   1.835   1.545 -1.7748 -1.2055  0.7106
  130MOL   C19733995   5.022   1.523   1.298  0.3531  0.2135 -0.4414
  130MOL   C19833996   5.104   1.487   1.170  0.0118 -0.3507 -0.4734
  130MOL   O19933997   5.098   1.597   1.076  0.2638 -0.5483  0.8572
  130MOL   C20033998   5.224   1.656   1.051 -0.8823  0.0255 -0.1693
  130MOL   C20133999   5.203   1.773   0.950 -0.1741 -0.0861  0.1531
  130MOL   H20234000   4.919   1.531   1.263 -0.0743  0.3749  0.7981
  130MOL   H20334001   5.008   1.446   1.374 -1.0563  1.2993  0.4230
  130MOL   H20434002   5.203   1.454   1.202  0.9638  1.2784 -1.6779
  130MOL   H20534003   5.301   1.588   1.015 -0.5610  0.3402 -0.0808
  130MOL   H20634004   5.264   1.692   1.146  1.7608 -1.8178 -0.5458
  130MOL   H20734005   5.205   1.742   0.845 -0.8251 -2.7261  0.8891
  130MOL   H20834006   5.116   1.837   0.967 -0.4228 -0.2111 -0.5995
  130MOL   H20934007   5.281   1.849   0.959  0.9782 -1.2167 -0.2685
  130MOL   C21034008   5.035   1.365   1.107 -0.6986 -0.4631  0.7746
  130MOL   C21134009   5.118   1.274   1.011  0.4679  0.4409  0.2439
  130MOL   O21234010   5.181   1.351   0.908  0.2478 -0.3597  0.0039
  130MOL   C21334011   5.299   1.302   0.850 -0.0870 -0.4140 -0.6623
  130MOL   C21434012   5.363   1.403   0.761  0.9610  0.4175 -0.5681
  130MOL   H21534013   4.946   1.406   1.059 -0.1364  0.4850  0.5197
  130MOL   H21634014   4.998   1.302   1.188 -1.0818 -0.8073  0.3286
  130MOL   H21734015   5.188   1.215   1.071  0.5001  0.3263  0.0931
  130MOL   H21834016   5.286   1.210   0.793 -1.5463 -0.9197  0.4671
  130MOL   H21934017   5.368   1.285   0.933  0.1882  0.5481 -0.6856
  130MOL   H22034018   5.286   1.437   0.692 -0.0512  0.0686  0.3703
  130MOL   H22134019   5.401   1.479   0.830 -1.2502  1.5986 -0.6188
  130MOL   H22234020   5.448   1.356   0.711  1.3090  0.4783 -0.0427
  130MOL   C22334021   5.031   1.179   0.932  0.3679  0.1030  0.1105
  130MOL   C22434022   4.970   1.073   1.018 -0.0723  0.8741  0.0294
  130MOL   O22534023   5.083   1.011   1.074 -0.0472  0.3052 -0.3676
  130MOL   C22634024   5.059   0.952   1.200 -0.0961 -0.0927 -0.0927
  130MOL   C22734025   5.138   1.034   1.299  1.0466  1.0145  0.4332
  130MOL   H22834026   5.089   1.130   0.854 -2.1142 -0.8939 -1.1827
  130MOL   H22934027   4.945   1.234   0.894 -1.2918 -2.0567  0.6192
  130MOL   H23034028   4.899   1.111   1.092 -1.1459 -0.0475 -0.5106
  130MOL   H23134029   5.109   0.854   1.199  1.2405  0.5729  0.1129
  130MOL   H23234030   4.953   0.945   1.222 -0.1518 -2.4097 -0.8712
  130MOL   H23334031   5.133   0.990   1.399  1.1920  1.0685  0.4646
  130MOL   H23434032   5.240   1.032   1.260  0.4386 -0.4121 -1.1461
  130MOL   H23534033   5.112   1.140   1.311  1.1664  0.9673  1.1297
  130MOL   C23634034   4.899   0.958   0.943 -0.1525  0.4277  0.2211
  130MOL   C23734035   4.755   1.000   0.899  0.6286  0.6299  0.0604
  130MOL   O23834036   4.665   0.906   0.969 -0.8931  0.5745  0.6720
  130MOL   C23934037   4.632   0.913   1.103  0.4118  0.1859 -0.4242
  130MOL   C24034038   4.543   0.793   1.142  0.2804 -0.1702  0.0579
  130MOL   H24134039   4.907   0.861   0.992 -0.1030  1.0810  1.5345
  130MOL   H24234040   4.968   0.944   0.860 -1.2238  1.4125 -0.8544
  130MOL   H24334041   4.727   1.098   0.938  0.2999  1.1548 -1.4605
  130MOL   H24434042   4.589   1.007   1.137 -0.4847 -0.6021  0.6791
  130MOL   H24534043   4.727   0.908   1.156 -0.7354  3.9213  2.1602
  130MOL   H24634044   4.579   0.700   1.100  0.1475 -0.2789  0.1858
  130MOL   H24734045   4.531   0.768   1.248  0.7699 -0.5179  0.0318
  130MOL   H24834046   4.442   0.810   1.105  1.4357  3.3271 -1.7626
  130MOL   C24934047   4.713   0.995   0.756 -0.5504 -0.2379  0.6363
  130MOL   C25034048   4.787   1.092   0.663  0.1946  0.2689  0.8597
  130MOL   O25134049   4.731   1.094   0.539  0.1850  0.2244  0.6944
  130MOL   C25234050   4.803   1.185   0.459  0.6287  0.1371 -0.0274
  130MOL   C25334051   4.764   1.159   0.311  0.2806  0.4179 -0.1002
  130MOL   H25434052   4.607   1.019   0.748 -1.5012 -4.1383  0.2788
  130MOL   H25534053   4.707   0.901   0.701  1.2550 -0.3926  0.6666
  130MOL   H25634054   4.780   1.191   0.708  0.9132  0.0972  1.3520
  130MOL   H25734055   4.912   1.180   0.466  0.5610 -0.2988  0.7954
  130MOL   H25834056   4.764   1.283   0.487  0.4274 -0.1079  0.5525
  130MOL   H25934057   4.787   1.062   0.266  1.5585  1.2655 -1.3201
  130MOL   H26034058   4.658   1.179   0.295  0.8121  2.4299 -1.2629
  130MOL   H26134059   4.813   1.229   0.243 -1.5765  0.8281 -1.0537
  130MOL   H26234060   4.892   1.062   0.661 -0.5014 -2.1869 -0.6128
  131MOL     C134061   5.892   2.337   0.445 -0.1601  0.1199 -0.4223
  131MOL     C234062   5.990   2.307   0.328 -0.3549 -0.2532 -0.0188
  131MOL     O334063   5.922   2.265   0.209  0.2535  0.9082  0.1953
  131MOL     C434064   5.879   2.363   0.119 -0.0808 -0.3607 -0.1551
  131MOL     C534065   5.804   2.324   7.842 -0.6928 -0.2924  0.0895
  131MOL     H634066   5.834   2.423   0.409 -1.4703  0.0760  1.5032
  131MOL     H734067   5.819   2.262   0.474  0.3513 -0.8860 -1.6731
  131MOL     H834068   6.034   2.405   0.309  1.7132 -1.1474 -0.0063
  131MOL     H934069   5.976   2.395   0.082  0.2820 -1.3441 -0.0611
  131MOL    H1034070   5.836   2.451   0.166 -1.1483 -0.8119 -0.2634
  131MOL    H1134071   5.818   2.404   7.770  2.3818 -1.0269 -0.2093
  131MOL    H1234072   5.843   2.230   7.802  0.2897  0.2033 -0.1199
  131MOL    H1334073   5.698   2.304   0.016  0.0178 -3.2972  1.2939
  131MOL    H1434074   5.952   2.364   0.531  1.9940 -0.2195 -1.7735
  131MOL    C1534075   6.110   2.220   0.358  0.0537 -0.3163  0.6073
  131MOL    C1634076   6.204   2.197   0.234  0.0692 -0.2091  0.0678
  131MOL    O1734077   6.272   2.070   0.256 -0.1719 -0.6363 -0.9446
  131MOL    C1834078   6.239   1.964   0.167  0.8250  0.5186 -0.4066
  131MOL    C1934079   6.356   1.867   0.184 -0.8666  0.4179 -0.3093
  131MOL    H2034080   6.065   2.133   0.406 -0.7022  0.3522  1.1321
  131MOL    H2134081   6.166   2.267   0.439 -0.5635  0.7851  0.4169
  131MOL    H2234082   6.136   2.191   0.149 -0.8634  0.1331  0.7810
  131MOL    H2334083   6.225   1.988   0.062 -1.1874 -1.3641 -0.6082
  131MOL    H2434084   6.138   1.927   0.188  0.7169  0.1849 -1.4884
  131MOL    H2534085   6.342   1.798   0.268 -1.2949 -1.7872 -2.1539
  131MOL    H2634086   6.451   1.920   0.191  0.3724 -1.7050 -0.6276
  131MOL    H2734087   6.368   1.792   0.107  0.7509  0.1882  0.1487
  131MOL    C2834088   6.299   2.307   0.212 -0.6373  0.0740 -0.0626
  131MOL    C2934089   6.371   2.301   0.073 -0.1497 -0.2477  0.3278
  131MOL    O3034090   6.476   2.394   0.067  0.5922 -0.5092  0.9342
  131MOL    C3134091   6.594   2.364   0.142 -0.1028  0.3160 -0.1200
  131MOL    C3234092   6.649   2.230   0.096  0.2126 -0.0360  0.1961
  131MOL    H3334093   6.367   2.313   0.297 -1.4502  2.9685  0.4439
  131MOL    H3434094   6.256   2.407   0.220 -0.4326  0.2460 -1.1506
  131MOL    H3534095   6.404   2.199   0.055  1.0715 -0.0145  1.2480
  131MOL    H3634096   6.585   2.380   0.250 -0.6546  1.2759 -0.3097
  131MOL    H3734097   6.668   2.436   0.109  0.8915 -0.8271 -0.4315
  131MOL    H3834098   6.643   2.218   7.831  1.8509 -2.9508  0.3650
  131MOL    H3934099   6.755   2.224   0.118  0.3608  0.5071 -0.3570
  131MOL    H4034100   6.594   2.151   0.148 -0.4452  0.9954  1.0875
  131MOL    C4134101   6.272   2.343   7.799 -0.3845  0.2218 -0.4607
  131MOL    C4234102   6.349   2.369   7.664  0.9200  0.6140  0.3525
  131MOL    O4334103   6.253   2.418   7.571  0.4512 -0.2036  0.1403
  131MOL    C4434104   6.233   2.562   7.570  0.8096  0.5100 -0.1568
  131MOL    C4534105   6.163   2.585   7.437 -0.0486 -0.7077 -0.0095
  131MOL    H4634106   6.216   2.428   7.837 -0.9224 -0.7891  1.0881
  131MOL    H4734107   6.196   2.268   7.781 -0.5047  0.6855 -1.9077
  131MOL    H4834108   6.442   2.425   7.669  0.8619  0.6796  0.6826
  131MOL    H4934109   6.326   2.618   7.575  1.3480 -0.2859 -1.0966
  131MOL    H5034110   6.178   2.594   7.659 -1.5619 -1.5317 -0.8532
  131MOL    H5134111   6.190   2.683   7.397 -1.0572  0.1320  1.3384
  131MOL    H5234112   6.184   2.509   7.362 -0.2199 -1.4513  0.7009
  131MOL    H5334113   6.054   2.580   7.447 -0.0546 -3.6015 -1.2204
  131MOL    C5434114   6.396   2.241   7.593  0.3715 -0.6512  0.7765
  131MOL    C5534115   6.491   2.265   7.471  0.4926  1.0747 -0.2889
  131MOL    O5634116   6.519   2.141   7.413 -0.6088 -0.3695  0.6561
  131MOL    C5734117   6.429   2.103   7.308 -0.1404 -0.2630  0.1435
  131MOL    C5834118   6.502   2.128   7.175 -0.0061  0.6582 -0.2980
  131MOL    H5934119   6.307   2.179   7.579  1.2776 -1.3247 -2.4897
  131MOL    H6034120   6.452   2.184   7.667 -1.2797 -1.7820  1.1792
  131MOL    H6134121   6.441   2.328   7.397  0.3882  2.1814  0.7144
  131MOL    H6234122   6.327   2.139   7.324 -1.1391 -2.2065 -1.6879
  131MOL    H6334123   6.423   1.995   7.314 -0.8168 -0.2269  0.1539
  131MOL    H6434124   6.519   2.234   7.155 -0.4202  0.8842  0.5310
  131MOL    H6534125   6.604   2.089   7.171 -0.3209 -0.0764 -1.1941
  131MOL    H6634126   6.467   2.096   7.077  0.1072 -0.5212  0.0344
  131MOL    C6734127   6.624   2.332   7.507 -0.0763  0.0186  0.0097
  131MOL    C6834128   6.723   2.346   7.386  0.2233  0.5323  0.7098
  131MOL    O6934129   6.842   2.385   7.462 -0.2089  0.0781  0.3331
  131MOL    C7034130   6.954   2.298   7.435  0.1347 -0.0822  0.2524
  131MOL    C7134131   7.085   2.365   7.483 -0.1680  0.0957 -0.1486
  131MOL    H7234132   6.672   2.267   7.581  0.6019  1.6895  1.0795
  131MOL    H7334133   6.606   2.432   7.547  2.0130  0.6451 -0.5185
  131MOL    H7434134   6.733   2.245   7.348 -0.5322  0.2464  1.2451
  131MOL    H7534135   6.958   2.297   7.326  0.2335 -0.2976  0.2597
  131MOL    H7634136   6.935   2.195   7.466  2.1109 -0.9792 -1.4461
  131MOL    H7734137   7.088   2.349   7.590 -3.1991 -0.2760 -0.0523
  131MOL    H7834138   7.173   2.326   7.432  0.9901  0.8054  1.2996
  131MOL    H7934139   7.086   2.471   7.458 -1.9393 -0.3353 -2.2840
  131MOL    C8034140   6.679   2.454   7.280  0.1359 -0.7104  0.0656
  131MOL    C8134141   6.761   2.473   7.155 -0.3414  0.2456  0.5994
  131MOL    O8234142   6.724   2.591   7.091  0.4651  0.2139  0.1905
  131MOL    C8334143   6.791   2.706   7.137 -0.1339  0.3094  0.8222
  131MOL    C8434144   6.695   2.819   7.107 -0.3961  0.6434  0.3971
  131MOL    H8534145   6.676   2.550   7.332 -0.9193 -0.8927  0.3499
  131MOL    H8634146   6.575   2.425   7.263  0.0560 -0.1850 -0.3480
  131MOL    H8734147   6.865   2.475   7.188 -1.1308 -0.0550  3.2625
  131MOL    H8834148   6.891   2.718   7.097 -0.2905 -0.7274  0.1162
  131MOL    H8934149   6.807   2.703   7.245 -1.4605 -1.1093  1.0020
  131MOL    H9034150   6.730   2.914   7.147  0.9760 -1.1011  3.5736
  131MOL    H9134151   6.664   2.819   7.002 -1.2012  1.0356  0.6271
  131MOL    H9234152   6.601   2.811   7.162 -1.3325  0.8649 -1.1528
  131MOL    C9334153   6.752   2.359   7.049 -0.3784  0.0113 -0.5877
  131MOL    C9434154   6.860   2.370   6.943  0.4008  0.3274  0.1135
  131MOL    O9534155   6.822   2.305   6.822 -0.5238 -0.0489 -0.2880
  131MOL    C9634156   6.870   2.377   6.714  0.0744 -0.0518 -0.0910
  131MOL    C9734157   6.856   2.291   6.591 -0.0572  0.3774  0.0538
  131MOL    H9834158   6.655   2.379   7.004 -0.7056 -0.8550 -0.2873
  131MOL    H9934159   6.752   2.257   7.088 -0.3463  0.4565  0.5808
  131MOL   H10034160   6.865   2.477   6.924 -1.6463  1.1765  3.7525
  131MOL   H10134161   6.978   2.386   6.724  0.1040 -1.0262  0.5792
  131MOL   H10234162   6.832   2.478   6.704  1.8536  0.5524 -1.0225
  131MOL   H10334163   6.754   2.253   6.594 -0.3188  1.0949  0.5874
  131MOL   H10434164   6.886   2.352   6.506  1.5523 -0.5667 -0.0581
  131MOL   H10534165   6.904   2.194   6.601 -1.2694 -0.1067  1.4017
  131MOL   C10634166   7.004   2.327   6.991  0.4464  0.1767  0.9512
  131MOL   C10734167   7.031   2.173   6.997 -0.4806 -0.2744  0.7411
  131MOL   O10834168   6.967   2.116   7.112  0.1869 -0.2344  0.2195
  131MOL   C10934169   6.921   1.979   7.110  0.3243 -0.0206 -0.0972
  131MOL   C11034170   6.867   1.964   7.252  0.3632  0.4987  0.0454
  131MOL   H11134171   7.031   2.374   7.086 -0.0970  1.4016  0.4992
  131MOL   H11234172   7.077   2.378   6.928  0.5067  2.2594  2.6433
  131MOL   H11334173   6.981   2.133   6.909  0.3432  1.3560 -0.4994
  131MOL   H11434174   6.997   1.904   7.085 -0.7578 -1.1907  0.1067
  131MOL   H11534175   6.836   1.978   7.042 -1.4810 -1.8505  2.0950
  131MOL   H11634176   6.939   1.976   7.334 -1.8721  1.4942  1.9169
  131MOL   H11734177   6.782   2.031   7.262 -1.6710 -2.2951  2.1270
  131MOL   H11834178   6.822   1.865   7.256  0.2154  0.5853  0.4904
  131MOL   C11934179   7.187   2.153   6.992  0.1486  0.8460  0.6030
  131MOL   C12034180   7.242   2.024   6.910 -0.1169  0.0713  0.0116
  131MOL   O12134181   7.363   1.980   6.964  0.1695  0.4616 -1.0938
  131MOL   C12234182   7.366   1.908   7.082 -0.3650  0.5540  0.6809
  131MOL   C12334183   7.485   1.813   7.097 -0.0970 -0.1554 -0.5777
  131MOL   H12434184   7.213   2.135   7.097 -1.8692  0.0163  0.9825
  131MOL   H12534185   7.253   2.239   6.987  2.2682 -0.7937 -0.8148
  131MOL   H12634186   7.167   1.945   6.913 -1.5544  1.3073 -1.9524
  131MOL   H12734187   7.278   1.846   7.100 -0.9043  0.3316 -2.4365
  131MOL   H12834188   7.365   1.976   7.167  0.8445  1.6140 -0.1372
  131MOL   H12934189   7.585   1.856   7.105  0.4335 -1.4824 -0.0183
  131MOL   H13034190   7.465   1.744   7.179  1.3870 -1.1252 -1.0290
  131MOL   H13134191   7.479   1.751   7.008 -1.2593 -1.6605  0.5151
  131MOL   C13234192   7.281   2.078   6.765  0.3273  0.2177  0.2893
  131MOL   C13334193   7.334   1.966   6.674 -0.6027  0.1437 -0.0671
  131MOL   O13434194   7.426   2.039   6.587 -0.2885  0.7126 -0.7548
  131MOL   C13534195   7.558   2.024   6.641  0.5094  0.2116 -0.1947
  131MOL   C13634196   7.645   2.126   6.576  0.4609 -0.0473 -0.0258
  131MOL   H13734197   7.350   2.158   6.792  0.3561  1.0115 -2.1061
  131MOL   H13834198   7.198   2.128   6.716  2.1415  1.6993 -1.3391
  131MOL   H13934199   7.378   1.883   6.729 -2.5923 -0.6768  0.3110
  131MOL   H14034200   7.595   1.927   6.606 -1.1954 -0.5685  0.1475
  131MOL   H14134201   7.568   2.026   6.749  3.1361  0.8874 -0.4084
  131MOL   H14234202   7.623   2.135   6.470 -1.8975 -0.3189  0.4003
  131MOL   H14334203   7.636   2.228   6.615 -0.3261 -0.4827  0.9555
  131MOL   H14434204   7.752   2.105   6.582  0.8149  2.0120  2.0719
  131MOL   C14534205   7.223   1.910   6.594  0.6765 -0.1880 -0.5034
  131MOL   C14634206   7.270   1.785   6.521  0.0178  0.3759 -0.0024
  131MOL   O14734207   7.192   1.776   6.406  0.2464  0.1301 -1.0900
  131MOL   C14834208   7.231   1.841   6.284 -0.0311 -0.7955 -0.1543
  131MOL   C14934209   7.114   1.818   6.187 -0.4591  0.6221  0.1963
  131MOL   H15034210   7.187   1.988   6.526  1.5519  0.4741 -0.2070
  131MOL   H15134211   7.149   1.864   6.659 -0.3282 -1.1701 -2.2710
  131MOL   H15234212   7.373   1.798   6.487  0.1163 -2.2928 -0.8288
  131MOL   H15334213   7.321   1.798   6.240 -0.5035 -2.0635  0.0962
  131MOL   H15434214   7.244   1.947   6.302  1.4532 -1.0497  0.3562
  131MOL   H15534215   7.144   1.873   6.098  1.4910 -0.4110  0.1639
  131MOL   H15634216   7.121   1.711   6.163  0.3227  0.6343  0.3459
  131MOL   H15734217   7.020   1.858   6.224 -0.0142  3.5349 -1.6916
  131MOL   C15834218   7.256   1.650   6.608 -0.0748  0.6769 -0.3320
  131MOL   C15934219   7.300   1.524   6.524  0.2701 -0.9412  1.0860
  131MOL   O16034220   7.279   1.411   6.603  0.7592 -0.1521 -0.0902
  131MOL   C16134221   7.158   1.338   6.584  0.4152 -0.1934  0.2113
  131MOL   C16234222   7.163   1.208   6.666 -0.0399 -0.1942 -0.6707
  131MOL   H16334223   7.150   1.637   6.633 -0.1005  0.8887 -0.3284
  131MOL   H16434224   7.311   1.659   6.701 -0.0574  1.8048 -0.4474
  131MOL   H16534225   7.239   1.519   6.434  1.4569  0.0540  0.2208
  131MOL   H16634226   7.140   1.318   6.478  0.9183 -3.2630  0.6679
  131MOL   H16734227   7.075   1.398   6.622 -0.0373 -0.8312  0.2414
  131MOL   H16834228   7.173   1.225   6.773 -1.2348 -3.7264  0.0804
  131MOL   H16934229   7.072   1.153   6.641 -1.1708  2.5186 -2.7335
  131MOL   H17034230   7.246   1.148   6.631  0.0396 -0.4437 -0.0713
  131MOL   C17134231   7.445   1.529   6.475  0.5682  0.0653 -0.0074
  131MOL   C17234232   7.482   1.423   6.367 -0.0499 -0.1262 -0.8547
  131MOL   O17334233   7.618   1.440   6.332 -0.3962  0.3210 -0.0154
  131MOL   C17434234   7.715   1.378   6.422 -0.4241  0.5155  0.0597
  131MOL   C17534235   0.016   1.410   6.386  0.0500  0.0143 -0.2725
  131MOL   H17634236   7.502   1.508   6.566 -0.0641 -1.7476 -0.0076
  131MOL   H17734237   7.475   1.628   6.440 -1.3931  0.6687 -0.0528
  131MOL   H17834238   7.470   1.322   6.406 -2.3148  0.0684 -1.0265
  131MOL   H17934239   7.706   1.270   6.417  0.2066  0.4690 -0.1128
  131MOL   H18034240   7.688   1.422   6.518 -0.7625  0.3674  0.0333
  131MOL   H18134241   0.050   1.333   6.316  1.5623  0.6170 -0.2072
  131MOL   H18234242   0.016   1.510   6.342  0.3982 -0.4042 -1.2426
  131MOL   H18334243   0.076   1.409   6.477  1.5985 -0.9396 -1.2667
  131MOL   C18434244   7.403   1.425   6.232 -0.1308 -0.4493  0.6079
  131MOL   C18534245   7.468   1.349   6.113  0.1817  0.5437  0.3216
  131MOL   O18634246   7.397   1.396   5.998  0.4446  0.3132  0.6709
  131MOL   C18734247   7.451   1.375   5.870 -1.0826 -0.7283  1.0114
  131MOL   C18834248   7.361   1.438   5.762  0.9336 -0.2232 -0.2361
  131MOL   H18934249   7.377   1.529   6.213  1.2525  0.1510  1.8674
  131MOL   H19034250   7.308   1.376   6.254 -1.0054  1.1175  0.3477
  131MOL   H19134251   7.571   1.379   6.097  0.5827 -2.0167 -2.3866
  131MOL   H19234252   7.458   1.267   5.858 -1.5055 -0.6952  0.4420
  131MOL   H19334253   7.547   1.427   5.878 -2.2789  1.4628  1.3375
  131MOL   H19434254   7.262   1.392   5.760  1.5056 -1.4500 -0.7625
  131MOL   H19534255   7.347   1.545   5.780 -2.7859 -0.7825  0.7887
  131MOL   H19634256   7.407   1.429   5.664  4.6190  1.2212  1.2659
  131MOL   C19734257   7.445   1.191   6.138 -0.3102 -0.0887 -0.2073
  131MOL   C19834258   7.545   1.100   6.066  0.7294  0.5293  0.3688
  131MOL   O19934259   7.525   0.962   6.109 -0.7526  0.4291  0.1328
  131MOL   C20034260   7.436   0.893   6.019 -0.1091  0.0084 -1.2196
  131MOL   C20134261   7.433   0.751   6.063 -0.2628 -0.6149  0.0066
  131MOL   H20234262   7.344   1.162   6.109 -0.7102 -1.4763  2.4465
  131MOL   H20334263   7.457   1.183   6.246 -1.9014 -1.2571 -0.0965
  131MOL   H20434264   7.537   1.108   5.957  0.6104 -0.1126  0.3303
  131MOL   H20534265   7.463   0.902   5.914  2.7986 -2.1221 -0.7295
  131MOL   H20634266   7.332   0.923   6.031  0.1432  0.0268  1.1636
  131MOL   H20734267   7.526   0.696   6.052  0.5175  0.8167 -0.6511
  131MOL   H20834268   7.385   0.738   6.160 -2.2203 -1.2679 -1.0204
  131MOL   H20934269   7.376   0.692   5.991  0.3375  0.6152 -1.4882
  131MOL   C21034270   7.696   1.123   6.097 -0.3297 -0.0509 -0.0268
  131MOL   C21134271   7.795   1.016   6.042  0.6964  0.2494 -0.1131
  131MOL   O21234272   0.086   1.021   6.084  0.1296 -0.0031  0.4145
  131MOL   C21334273   0.116   1.006   6.218 -0.7436  0.2095 -0.2216
  131MOL   C21434274   0.259   0.952   6.239 -0.1934  0.2183 -0.3701
  131MOL   H21534275   7.708   1.119   6.206 -0.4473 -0.1730 -0.0179
  131MOL   H21634276   7.725   1.226   6.078 -0.0585  0.0422  0.8668
  131MOL   H21734277   7.761   0.919   6.080 -1.2918  1.1755  0.5792
  131MOL   H21834278   0.040   0.940   6.260 -1.3640 -0.0444 -1.7068
  131MOL   H21934279   0.111   1.106   6.259  1.7061 -0.6118  2.2409
  131MOL   H22034280   0.274   0.876   6.163 -1.2982  0.0670 -0.4413
  131MOL   H22134281   0.327   1.035   6.222 -1.7805  1.3464 -1.3829
  131MOL   H22234282   0.268   0.906   6.338 -1.0140  0.4011 -0.2049
  131MOL   C22334283   7.792   1.005   5.891 -0.7155 -0.1074  0.9169
  131MOL   C22434284   0.004   0.872   5.837 -0.3984  0.4339  0.1487
  131MOL   O22534285   0.016   0.881   5.693 -0.4630  0.1285  0.2651
  131MOL   C22634286   0.118   0.971   5.651 -0.5518  0.1583  0.0415
  131MOL   C22734287   0.136   0.954   5.497  0.4984 -0.1604  0.4035
  131MOL   H22834288   0.017   1.085   5.864  0.1422 -1.8539 -2.3982
  131MOL   H22934289   7.700   1.038   5.842 -0.9750 -0.1918  1.3460
  131MOL   H23034290   0.102   0.843   5.874  0.7622  0.0091 -3.0373
  131MOL   H23134291   0.213   0.953   5.702 -1.6042  0.5770  2.1626
  131MOL   H23234292   0.087   1.072   5.677  2.8088  0.9777  1.1138
  131MOL   H23334293   0.037   0.975   5.458  1.7142  1.3728 -1.9421
  131MOL   H23434294   0.207   1.023   5.451  0.4576  0.4575  1.2511
  131MOL   H23534295   0.156   0.851   5.467 -0.0128  0.4161 -1.9729
  131MOL   C23634296   7.747   0.751   5.854 -0.3300 -0.6158  0.2267
  131MOL   C23734297   7.795   0.629   5.775  1.0304  0.3258 -0.2464
  131MOL   O23834298   7.684   0.538   5.774  0.2987 -0.0522  0.0574
  131MOL   C23934299   7.617   0.491   5.653  0.3433 -0.6972  0.6319
  131MOL   C24034300   7.557   0.608   5.569  0.3034  0.3266 -0.5355
  131MOL   H24134301   7.651   0.790   5.821 -0.4751 -1.4462 -0.3474
  131MOL   H24234302   7.738   0.720   5.958  1.6285 -1.9621  0.0198
  131MOL   H24334303   7.811   0.646   5.669 -0.3957 -1.2493 -0.7371
  131MOL   H24434304   7.550   0.414   5.692  1.8772 -0.2215  4.5038
  131MOL   H24534305   7.694   0.442   5.594 -0.9241  0.6252 -2.2198
  131MOL   H24634306   7.505   0.564   5.484  0.3134 -1.2328  0.2564
  131MOL   H24734307   7.485   0.666   5.626  1.2560  1.6024 -0.6049
  131MOL   H24834308   7.627   0.687   5.542 -0.5316  1.8754  1.6788
  131MOL   C24934309   0.078   0.573   5.847 -0.2576 -0.1422  0.8363
  131MOL   C25034310   0.146   0.449   5.775 -0.0005 -0.5969  0.8535
  131MOL   O25134311   0.210   0.372   5.880  0.0427  0.6944  0.5069
  131MOL   C25234312   0.187   0.228   5.872  0.5634 -0.3290  0.0953
  131MOL   C25334313   0.225   0.163   6.005 -0.2222 -0.0517  0.0011
  131MOL   H25434314   0.044   0.546   5.947  0.8332  0.1365  1.2935
  131MOL   H25534315   0.151   0.651   5.867 -2.8066  2.8611 -1.1558
  131MOL   H25634316   0.062   0.397   5.727 -1.6613  3.4634 -0.9127
  131MOL   H25734317   0.250   0.189   5.793  0.5602 -0.9709  0.4031
  131MOL   H25834318   0.083   0.206   5.850  0.9115 -0.6430 -1.2453
  131MOL   H25934319   0.170   0.215   6.084 -0.4404 -0.6716  0.2615
  131MOL   H26034320   0.195   0.058   6.007 -2.7395  0.6044 -1.6908
  131MOL   H26134321   0.329   0.176   6.034 -0.5497 -0.1240  1.2817
  131MOL   H26234322   0.215   0.481   5.697 -2.6126 -0.2775 -1.4206
  132MOL     C134323   1.816   2.290   2.665  0.1525  0.8434  0.2679
  132MOL     C234324   1.673   2.319   2.723  1.1735  1.1983  0.1505
  132MOL     O334325   1.629   2.447   2.673  0.1060  0.4165 -0.4474
  132MOL     C434326   1.539   2.433   2.563 -0.4457  0.6778 -0.5140
  132MOL     C534327   1.482   2.568   2.529 -0.6635 -0.0198  0.4425
  132MOL     H634328   1.861   2.201   2.711 -0.6081  1.3406  2.0009
  132MOL     H734329   1.815   2.291   2.556  0.4466 -2.0111  0.1885
  132MOL     H834330   1.597   2.248   2.692  0.5195  1.3082  1.4626
  132MOL     H934331   1.462   2.362   2.592  0.4557  0.3934  1.2736
  132MOL    H1034332   1.579   2.392   2.470 -1.4977  0.0431 -0.6920
  132MOL    H1134333   1.564   2.635   2.504  1.0443 -1.3327  2.2893
  132MOL    H1234334   1.416   2.562   2.442  0.7561 -2.3129 -0.5305
  132MOL    H1334335   1.426   2.615   2.610 -0.7833  1.0380 -0.2456
  132MOL    H1434336   1.893   2.360   2.697  0.8903  0.1852 -0.0378
  132MOL    C1534337   1.665   2.322   2.873 -0.0233  0.0355 -0.4781
  132MOL    C1634338   1.700   2.187   2.943  0.3764  0.2093 -0.3507
  132MOL    O1734339   1.604   2.084   2.909 -0.2170  0.0719  0.1197
  132MOL    C1834340   1.668   1.965   2.873  0.2474 -0.0360 -0.1921
  132MOL    C1934341   1.565   1.870   2.809 -0.1781 -0.7883  0.3756
  132MOL    H2034342   1.562   2.344   2.901 -0.3193 -0.6508 -1.0108
  132MOL    H2134343   1.728   2.410   2.893  1.1939 -0.8823 -0.2124
  132MOL    H2234344   1.804   2.167   2.918  0.6527  0.4758  0.5857
  132MOL    H2334345   1.725   1.913   2.950  0.5033 -0.9997 -1.0307
  132MOL    H2434346   1.741   1.988   2.795  2.7256 -0.6206  1.8999
  132MOL    H2534347   1.494   1.853   2.890 -0.5315  0.6768  0.3916
  132MOL    H2634348   1.621   1.783   2.774 -0.4691 -1.0525  0.5648
  132MOL    H2734349   1.511   1.915   2.726  2.3709  0.3709 -0.6826
  132MOL    C2834350   1.700   2.207   3.094 -0.3962 -0.3755  0.4994
  132MOL    C2934351   1.794   2.324   3.131 -0.3263  0.7480  0.6260
  132MOL    O3034352   1.932   2.300   3.076 -0.3105  0.0846 -0.0530
  132MOL    C3134353   2.018   2.408   3.048 -0.5446 -0.3953 -0.2482
  132MOL    C3234354   2.143   2.373   2.969 -0.3659 -0.6614 -0.6278
  132MOL    H3334355   1.739   2.119   3.145 -0.7483 -2.1501 -2.1951
  132MOL    H3434356   1.605   2.225   3.144 -0.0095  0.1298  1.0700
  132MOL    H3534357   1.758   2.419   3.091 -0.5262  0.9205  1.2151
  132MOL    H3634358   2.061   2.452   3.138  0.8250  1.5109 -1.7836
  132MOL    H3734359   1.967   2.494   3.006  0.0325  0.6933  1.2351
  132MOL    H3834360   2.212   2.321   3.036  0.5535  2.2833  0.8148
  132MOL    H3934361   2.120   2.310   2.884 -2.1841 -1.2923  0.3136
  132MOL    H4034362   2.190   2.459   2.921 -0.4206 -1.9740 -3.0949
  132MOL    C4134363   1.810   2.333   3.279  0.2562 -0.3823 -0.1617
  132MOL    C4234364   1.704   2.417   3.351 -0.1848 -0.0568 -0.0204
  132MOL    O4334365   1.756   2.546   3.369 -0.4266 -0.2302  0.6144
  132MOL    C4434366   1.724   2.628   3.257  0.2963  0.1011  0.2484
  132MOL    C4534367   1.715   2.777   3.297  0.3108 -0.0566 -0.2485
  132MOL    H4634368   1.911   2.359   3.311 -0.4425  0.2675  1.5458
  132MOL    H4734369   1.806   2.234   3.324 -0.2299  0.7864  2.4531
  132MOL    H4834370   1.620   2.415   3.282  0.5648  1.2619 -1.0012
  132MOL    H4934371   1.639   2.598   3.195 -0.0707 -0.2981  0.9351
  132MOL    H5034372   1.808   2.620   3.188  0.3227 -1.5232  0.4546
  132MOL    H5134373   1.731   2.843   3.211  0.3276 -0.7286 -0.7639
  132MOL    H5234374   1.625   2.801   3.354 -0.6326 -0.3048 -1.5985
  132MOL    H5334375   1.799   2.796   3.364  1.6961 -0.4471 -1.8411
  132MOL    C5434376   1.658   2.375   3.493  0.1972  0.6159  0.1565
  132MOL    C5534377   1.502   2.386   3.509 -0.5320 -0.3483  0.4634
  132MOL    O5634378   1.488   2.421   3.648 -0.5437 -0.8787 -0.0276
  132MOL    C5734379   1.393   2.521   3.685 -0.1723 -0.8040 -0.6711
  132MOL    C5834380   1.369   2.546   3.833 -0.3584  0.3852  0.0104
  132MOL    H5934381   1.707   2.431   3.573  1.4795  0.3569 -0.4435
  132MOL    H6034382   1.682   2.270   3.507 -2.4188  0.1479  1.5618
  132MOL    H6134383   1.454   2.472   3.462  0.3432  0.0864  0.3498
  132MOL    H6234384   1.305   2.482   3.634  0.2171  0.3108 -2.2300
  132MOL    H6334385   1.430   2.614   3.640 -0.4885  0.3158  1.3319
  132MOL    H6434386   1.336   2.464   3.896  1.0664 -0.1775  0.0380
  132MOL    H6534387   1.453   2.599   3.877  2.1746 -1.6197 -2.2556
  132MOL    H6634388   1.296   2.625   3.852 -0.1377  0.9288 -1.2934
  132MOL    C6734389   1.413   2.259   3.477 -0.1858 -0.6788 -0.7752
  132MOL    C6834390   1.359   2.254   3.336 -0.0093 -0.2692  0.1819
  132MOL    O6934391   1.318   2.384   3.300 -0.1242 -0.0595 -0.3240
  132MOL    C7034392   1.354   2.424   3.166 -0.4176  0.7423  0.5611
  132MOL    C7134393   1.304   2.559   3.115  0.4416 -0.4486 -0.0955
  132MOL    H7234394   1.322   2.256   3.536  0.3258  0.6138  0.0985
  132MOL    H7334395   1.466   2.167   3.502  3.6500  1.4682 -0.7113
  132MOL    H7434396   1.444   2.229   3.273 -1.6818 -0.1007 -2.2399
  132MOL    H7534397   1.315   2.343   3.103  1.8875 -0.2629  0.3623
  132MOL    H7634398   1.462   2.416   3.166 -0.4639  0.0682  0.3610
  132MOL    H7734399   1.197   2.564   3.094  0.7827  0.6225 -1.6410
  132MOL    H7834400   1.331   2.632   3.191 -0.6983  0.8065 -0.8631
  132MOL    H7934401   1.361   2.587   3.027 -0.2587 -0.1467 -0.4548
  132MOL    C8034402   1.240   2.153   3.308  0.0445 -0.4281  0.2928
  132MOL    C8134403   1.273   1.999   3.310  0.3699 -0.1269 -0.3207
  132MOL    O8234404   1.305   1.955   3.440 -0.0688 -0.0124  0.2670
  132MOL    C8334405   1.194   1.948   3.530  0.6227 -0.4753 -0.4493
  132MOL    C8434406   1.247   1.885   3.661  0.1271 -0.7857  0.2650
  132MOL    H8534407   1.201   2.164   3.207  2.4928  0.0615 -0.6292
  132MOL    H8634408   1.155   2.169   3.374 -0.9427 -1.7235 -0.6368
  132MOL    H8734409   1.189   1.949   3.263 -0.5086  0.6815  0.3777
  132MOL    H8834410   1.123   1.872   3.498  2.2772 -3.0110  1.6976
  132MOL    H8934411   1.147   2.041   3.559  0.7345  0.2703 -2.5706
  132MOL    H9034412   1.192   1.908   3.752 -0.5821  0.9366 -0.5657
  132MOL    H9134413   1.281   1.782   3.657  1.2219 -0.5582  3.0886
  132MOL    H9234414   1.346   1.924   3.684 -0.8268  1.0035  1.3907
  132MOL    C9334415   1.398   1.964   3.232  0.3661  0.2945 -0.0681
  132MOL    C9434416   1.425   1.813   3.214  0.4864 -0.0845  0.5527
  132MOL    O9534417   1.306   1.757   3.156 -0.6013 -0.1198 -1.1859
  132MOL    C9634418   1.330   1.632   3.094 -0.4686  0.1954  0.5465
  132MOL    C9734419   1.220   1.609   2.984  0.0218  0.1993 -0.4937
  132MOL    H9834420   1.488   2.013   3.268  1.4670 -1.1133 -0.8444
  132MOL    H9934421   1.387   2.002   3.130  1.5746  0.9207  0.0315
  132MOL   H10034422   1.512   1.805   3.148  1.2826  0.4877  1.5253
  132MOL   H10134423   1.325   1.553   3.168 -0.4994  1.3732  1.8290
  132MOL   H10234424   1.426   1.636   3.042  0.2405 -1.1237  1.7078
  132MOL   H10334425   1.127   1.613   3.040  0.8559 -0.6335  0.9887
  132MOL   H10434426   1.220   1.685   2.906 -0.4545  0.2988 -0.3984
  132MOL   H10534427   1.219   1.506   2.949  0.0370 -0.0616  0.2659
  132MOL   C10634428   1.454   1.732   3.343 -0.1509 -0.0328  0.2162
  132MOL   C10734429   1.578   1.775   3.418  0.8350  0.0880  0.7705
  132MOL   O10834430   1.682   1.733   3.329 -0.2868 -0.2830 -0.3962
  132MOL   C10934431   1.776   1.833   3.290  0.3774  0.5050  0.1939
  132MOL   C11034432   1.913   1.776   3.272  0.7230  0.5430  0.7187
  132MOL   H11134433   1.471   1.631   3.305  2.1555  0.4440 -0.0691
  132MOL   H11234434   1.367   1.731   3.409 -0.4779 -0.2342 -0.2119
  132MOL   H11334435   1.575   1.883   3.431  1.4029  0.2916 -0.6620
  132MOL   H11434436   1.795   1.913   3.362  1.4723 -1.5351  2.2511
  132MOL   H11534437   1.747   1.875   3.194  0.1993 -0.1062 -0.0211
  132MOL   H11634438   1.928   1.688   3.335 -1.5538 -0.8395 -0.6031
  132MOL   H11734439   1.941   1.751   3.170  0.3957 -0.4773  0.8741
  132MOL   H11834440   1.994   1.837   3.312  0.0416  1.3813  0.8430
  132MOL   C11934441   1.591   1.728   3.559 -0.0678  0.5512 -0.0925
  132MOL   C12034442   1.726   1.755   3.630  0.6468 -0.2242  0.5610
  132MOL   O12134443   1.749   1.670   3.733 -0.3288 -0.0534 -0.0269
  132MOL   C12234444   1.802   1.544   3.716 -1.0595  0.0542  0.0186
  132MOL   C12334445   1.957   1.547   3.701 -0.4012 -0.3206  0.0872
  132MOL   H12434446   1.579   1.620   3.568 -0.1949  0.6846  1.3825
  132MOL   H12534447   1.515   1.776   3.621 -0.1856 -0.6727  0.7486
  132MOL   H12634448   1.805   1.751   3.556  0.6214  2.0810  0.3829
  132MOL   H12734449   1.750   1.489   3.637 -1.7751 -1.5347  1.5657
  132MOL   H12834450   1.783   1.504   3.816  0.0429 -1.6179 -0.4233
  132MOL   H12934451   2.007   1.589   3.789  0.3118 -0.0744 -0.4292
  132MOL   H13034452   1.995   1.448   3.676  0.3846  0.0465 -0.1929
  132MOL   H13134453   2.003   1.617   3.632  0.2263 -1.7639 -0.9852
  132MOL   C13234454   1.730   1.894   3.695  0.7116 -0.1095 -0.7031
  132MOL   C13334455   1.871   1.949   3.733  0.7898  0.8513 -0.6739
  132MOL   O13434456   1.853   2.086   3.750  0.1879 -0.0293 -0.0168
  132MOL   C13534457   1.807   2.123   3.878 -0.4732  0.3966  0.7704
  132MOL   C13634458   1.765   2.268   3.869  0.2651  1.1587 -0.1456
  132MOL   H13734459   1.669   1.892   3.785 -0.1565  0.0436 -1.2698
  132MOL   H13834460   1.670   1.962   3.633 -0.0127 -0.4055 -0.3319
  132MOL   H13934461   1.923   1.916   3.823  0.4140 -0.4740 -0.9249
  132MOL   H14034462   1.887   2.106   3.950  0.7459 -1.1141 -0.8683
  132MOL   H14134463   1.731   2.059   3.923 -0.7080  1.0469  1.2937
  132MOL   H14234464   1.701   2.284   3.782 -0.8280 -0.9779  0.2375
  132MOL   H14334465   1.711   2.302   3.957  3.1670  0.9457  1.7670
  132MOL   H14434466   1.855   2.329   3.865  0.7144  0.4243 -1.5375
  132MOL   C14534467   1.972   1.940   3.609 -0.4138  0.4797  0.3266
  132MOL   C14634468   2.107   2.012   3.625  0.3999  0.2617  0.3429
  132MOL   O14734469   2.167   2.003   3.500 -0.4537  0.2981  0.1758
  132MOL   C14834470   2.116   2.100   3.401 -0.3277  0.6993 -0.5179
  132MOL   C14934471   2.206   2.096   3.281 -0.5852  0.1351 -0.7255
  132MOL   H15034472   1.918   2.000   3.536 -2.2519  0.4930  1.6485
  132MOL   H15134473   1.995   1.838   3.579  1.4683  0.6049  1.2777
  132MOL   H15234474   2.090   2.119   3.639 -0.7810  0.1440 -0.1364
  132MOL   H15334475   2.095   2.196   3.449 -0.1682  0.1106  0.7682
  132MOL   H15434476   2.022   2.069   3.356  0.1988 -1.3984 -0.2137
  132MOL   H15534477   2.209   2.177   3.208 -1.2794  0.7894 -0.0306
  132MOL   H15634478   2.311   2.103   3.309 -0.6870 -0.0709 -0.2867
  132MOL   H15734479   2.201   1.995   3.239 -1.7883  0.0591 -0.4003
  132MOL   C15834480   2.201   1.951   3.729 -0.0981 -0.3442 -0.0271
  132MOL   C15934481   2.331   2.036   3.732 -0.1204  0.2019 -0.3759
  132MOL   O16034482   2.425   1.964   3.819  0.2372 -0.2976  0.2862
  132MOL   C16134483   2.556   1.958   3.770 -0.3143 -0.3906  0.3595
  132MOL   C16234484   2.634   1.851   3.851  0.4326 -0.8366  0.2048
  132MOL   H16334485   2.203   1.844   3.711 -1.2414 -0.1895 -1.0792
  132MOL   H16434486   2.157   1.965   3.828  3.1000 -0.2085  1.4717
  132MOL   H16534487   2.376   2.048   3.634 -1.0438  0.4697 -0.7757
  132MOL   H16634488   2.610   2.053   3.781 -0.2695 -0.5571  1.6639
  132MOL   H16734489   2.560   1.934   3.664  0.8932 -0.0145  0.3176
  132MOL   H16834490   2.739   1.861   3.823  0.1647 -2.0739 -1.3321
  132MOL   H16934491   2.627   1.851   3.960 -0.8273  0.4651  0.1383
  132MOL   H17034492   2.593   1.757   3.814 -0.5912 -0.1159 -0.4990
  132MOL   C17134493   2.322   2.181   3.791 -0.5660  0.0999 -0.0305
  132MOL   C17234494   2.398   2.286   3.705 -0.2674 -0.3224 -0.3223
  132MOL   O17334495   2.426   2.403   3.784  0.2662  0.1943  0.1679
  132MOL   C17434496   2.558   2.416   3.839 -1.1220  0.1133 -0.3252
  132MOL   C17534497   2.545   2.545   3.922 -0.0262  0.7329  0.1062
  132MOL   H17634498   2.372   2.171   3.887 -1.0111  0.5747  0.2508
  132MOL   H17734499   2.219   2.210   3.809 -0.0436  0.7701  2.0140
  132MOL   H17834500   2.492   2.252   3.660 -0.2987 -0.6701 -0.1266
  132MOL   H17934501   2.632   2.417   3.760  1.2480 -1.2943  1.7940
  132MOL   H18034502   2.591   2.329   3.896 -2.4153 -0.1860 -0.0219
  132MOL   H18134503   2.505   2.634   3.873 -1.8595 -0.1882 -0.1031
  132MOL   H18234504   2.462   2.526   3.989  1.3663 -0.0051  1.6485
  132MOL   H18334505   2.635   2.572   3.977  1.2875  0.0346 -1.6686
  132MOL   C18434506   2.311   2.339   3.593  0.6513  0.5026  0.0194
  132MOL   C18534507   2.379   2.430   3.492 -0.0231  0.4262  0.0977
  132MOL   O18634508   2.285   2.488   3.406 -0.6881 -0.3280  0.1445
  132MOL   C18734509   2.274   2.631   3.431  0.3475 -0.1774 -0.6501
  132MOL   C18834510   2.123   2.667   3.411 -0.4593 -0.1432  0.0079
  132MOL   H18934511   2.223   2.382   3.641  0.0022  0.9194 -1.4923
  132MOL   H19034512   2.266   2.262   3.531  0.3317  0.4046  0.3725
  132MOL   H19134513   2.437   2.498   3.553  1.9137 -0.3469 -0.8371
  132MOL   H19234514   2.331   2.683   3.354 -0.8311  0.3073 -1.2078
  132MOL   H19334515   2.307   2.668   3.529 -0.4251  1.6206 -1.0498
  132MOL   H19434516   2.103   2.774   3.418 -1.6320 -0.2200 -1.6928
  132MOL   H19534517   2.092   2.634   3.311 -2.2151 -0.1542  0.5390
  132MOL   H19634518   2.061   2.606   3.476  0.9210 -1.1279  0.4141
  132MOL   C19734519   2.472   2.347   3.392 -0.5189 -0.2770 -0.5347
  132MOL   C19834520   2.614   2.412   3.387 -0.1706  0.0899 -0.2431
  132MOL   O19934521   2.605   2.544   3.351 -0.7580 -0.2608  0.7229
  132MOL   C20034522   2.676   2.620   3.439  0.4582 -0.2529  0.1692
  132MOL   C20134523   2.697   2.757   3.370 -0.3723 -0.1149 -0.5661
  132MOL   H20234524   2.441   2.354   3.288 -0.3846 -0.2363 -0.5726
  132MOL   H20334525   2.491   2.244   3.423  1.0510 -0.5142 -2.1762
  132MOL   H20434526   2.650   2.406   3.490  0.2500  1.0040 -0.3333
  132MOL   H20534527   2.774   2.577   3.464 -0.0699 -0.3665  2.1380
  132MOL   H20634528   2.634   2.631   3.539 -1.4208  1.3658 -0.7882
  132MOL   H20734529   2.737   2.754   3.269 -0.2002 -0.4278 -0.4911
  132MOL   H20834530   2.599   2.805   3.370 -0.8669 -1.0738  0.8215
  132MOL   H20934531   2.760   2.824   3.429  0.3301  0.8952 -2.4545
  132MOL   C21034532   2.703   2.336   3.289 -0.0301 -0.7061 -0.1274
  132MOL   C21134533   2.843   2.294   3.336  0.5444 -0.0522  0.6530
  132MOL   O21234534   2.819   2.222   3.458  0.2766  0.6001  0.1340
  132MOL   C21334535   2.884   2.098   3.465  0.2274  0.8340 -0.8328
  132MOL   C21434536   2.865   2.029   3.605  0.8534 -0.1557 -0.2201
  132MOL   H21534537   2.703   2.401   3.201 -1.0858 -0.7936 -0.1981
  132MOL   H21634538   2.645   2.251   3.253  1.0934 -0.7596 -1.8516
  132MOL   H21734539   2.859   2.225   3.253 -0.5152 -2.7895  2.6413
  132MOL   H21834540   2.991   2.119   3.463  0.1947  1.0214 -0.6273
  132MOL   H21934541   2.854   2.032   3.384  0.6927 -1.5857  0.9178
  132MOL   H22034542   2.887   2.108   3.677 -1.4856  0.1513  0.1922
  132MOL   H22134543   2.760   2.004   3.620  0.0328  3.1718 -0.1172
  132MOL   H22234544   2.920   1.936   3.620 -0.5242 -0.6747  1.7728
  132MOL   C22334545   2.950   2.407   3.334  0.1206 -0.6891  0.1731
  132MOL   C22434546   3.094   2.368   3.324 -0.4185 -0.4593 -0.0704
  132MOL   O22534547   3.170   2.490   3.345 -0.7572  0.3860 -0.5824
  132MOL   C22634548   3.308   2.468   3.381  0.2489 -0.8216  0.6747
  132MOL   C22734549   3.361   2.608   3.398 -0.2948 -0.0440 -0.7445
  132MOL   H22834550   2.946   2.476   3.418  1.7383 -0.7706  0.3313
  132MOL   H22934551   2.927   2.476   3.253 -2.4833  0.3870  1.7720
  132MOL   H23034552   3.106   2.299   3.407  1.9057  2.3101  2.0001
  132MOL   H23134553   3.367   2.426   3.300  0.8384  1.5832 -0.2073
  132MOL   H23234554   3.319   2.393   3.458 -2.0749 -3.6615 -1.6285
  132MOL   H23334555   3.327   2.636   3.497  0.8649 -3.7116  0.7650
  132MOL   H23434556   3.469   2.611   3.390 -0.2667 -0.4011 -0.4815
  132MOL   H23534557   3.303   2.664   3.324 -0.6168  0.1831 -0.3164
  132MOL   C23634558   3.140   2.296   3.197 -1.0746 -0.2702  0.3583
  132MOL   C23734559   3.160   2.374   3.062 -0.1801  0.2190 -0.1349
  132MOL   O23834560   3.074   2.314   2.966  0.1686 -0.0926 -0.3153
  132MOL   C23934561   2.939   2.354   2.965  0.5465  0.1500  0.1236
  132MOL   C24034562   2.852   2.255   2.894  0.0835 -0.0804  0.4482
  132MOL   H24134563   3.069   2.218   3.171  0.7733 -1.7854 -0.2672
  132MOL   H24234564   3.228   2.240   3.229 -1.0958 -0.7045 -0.3383
  132MOL   H24334565   3.133   2.478   3.084 -2.0643 -0.1467 -0.6252
  132MOL   H24434566   2.924   2.450   2.916 -1.0697 -1.6740 -3.1561
  132MOL   H24534567   2.902   2.372   3.066 -0.6279 -2.2394  0.1629
  132MOL   H24634568   2.898   2.250   2.795 -0.5678  0.1929  0.1314
  132MOL   H24734569   2.858   2.153   2.934 -2.6866  0.5313  2.5849
  132MOL   H24834570   2.747   2.284   2.888  0.3485  0.6739 -0.8207
  132MOL   C24934571   3.303   2.368   2.997 -0.1732 -0.3800  0.0007
  132MOL   C25034572   3.315   2.470   2.887 -0.0000  0.8062  0.6475
  132MOL   O25134573   3.452   2.482   2.863  0.2325 -0.0388 -0.0125
  132MOL   C25234574   3.468   2.551   2.740 -0.6090  0.1597  0.2074
  132MOL   C25334575   3.620   2.562   2.701  0.5593  0.3144  0.2920
  132MOL   H25434576   3.326   2.267   2.963 -1.7685 -0.0939 -2.0179
  132MOL   H25534577   3.374   2.395   3.076  0.2520 -0.4392 -0.3627
  132MOL   H25634578   3.263   2.426   2.802 -0.7221 -0.0519  1.5265
  132MOL   H25734579   3.415   2.646   2.734  1.6060  1.4741  0.8520
  132MOL   H25834580   3.423   2.495   2.658 -0.5752  0.4215  0.0102
  132MOL   H25934581   3.682   2.586   2.787 -0.7976 -1.6364  1.8378
  132MOL   H26034582   3.645   2.462   2.666 -3.7736  0.0164 -2.3290
  132MOL   H26134583   3.623   2.635   2.619 -0.1065 -0.6275 -0.5879
  132MOL   H26234584   3.270   2.565   2.917 -1.5561 -0.0569  1.1037
  133MOL     C134585   4.818   5.664   6.056 -0.6520  0.6385  0.1292
  133MOL     C234586   4.703   5.570   6.029  0.4604 -0.7763 -0.0826
  133MOL     O334587   4.686   5.563   5.890  0.5877  0.5320  0.2971
  133MOL     C434588   4.732   5.444   5.823 -0.7788  0.3242  0.0558
  133MOL     C534589   4.727   5.473   5.673 -0.2293  0.1442 -0.5559
  133MOL     H634590   4.842   5.661   6.162 -0.5082  2.5837  0.1639
  133MOL     H734591   4.902   5.619   6.003 -0.2726 -1.8425  2.7334
  133MOL     H834592   4.736   5.475   6.070  1.4291  0.4478  2.0466
  133MOL     H934593   4.676   5.356   5.856 -1.2168  1.2415  1.8209
  133MOL    H1034594   4.837   5.448   5.853 -1.1786  0.4925  1.4899
  133MOL    H1134595   4.622   5.469   5.644 -0.2064 -0.3002 -0.5757
  133MOL    H1234596   4.753   5.576   5.650  0.2146  0.1525 -0.0368
  133MOL    H1334597   4.787   5.414   5.605  0.2856 -0.3938  0.3513
  133MOL    H1434598   4.790   5.764   6.024 -0.3931  0.5579 -0.3521
  133MOL    C1534599   4.575   5.624   6.093  0.6515  0.6272  0.1598
  133MOL    C1634600   4.453   5.533   6.070  0.1012 -0.7048 -0.3909
  133MOL    O1734601   4.337   5.588   6.142  0.1490  0.5502 -0.0701
  133MOL    C1834602   4.279   5.700   6.075  0.6504  0.0682  1.0186
  133MOL    C1934603   4.138   5.710   6.130  0.3955  0.0381  0.3799
  133MOL    H2034604   4.566   5.724   6.051 -0.0658  1.6128  2.5791
  133MOL    H2134605   4.584   5.622   6.202  1.2557  1.0311  0.1218
  133MOL    H2234606   4.433   5.520   5.963 -1.1668 -2.7706  0.0795
  133MOL    H2334607   4.284   5.703   5.966  2.0591  0.0728  1.0663
  133MOL    H2434608   4.331   5.792   6.104  0.2584  0.5947  0.0835
  133MOL    H2534609   4.091   5.791   6.074 -0.9973 -1.0678 -0.0516
  133MOL    H2634610   4.131   5.740   6.235  1.9708 -1.5639  0.9662
  133MOL    H2734611   4.084   5.618   6.112  0.9106 -0.5724  1.8194
  133MOL    C2834612   4.474   5.392   6.136  0.0973 -0.2011  0.1134
  133MOL    C2934613   4.354   5.295   6.109 -1.0017  0.1589 -0.5928
  133MOL    O3034614   4.366   5.193   6.207 -0.0791  0.1037 -0.3385
  133MOL    C3134615   4.271   5.215   6.316 -0.8026 -0.6534 -0.0613
  133MOL    C3234616   4.127   5.186   6.283 -0.3468  0.9248 -0.3248
  133MOL    H3334617   4.491   5.405   6.243 -0.7733 -1.3390  0.4043
  133MOL    H3434618   4.558   5.341   6.090 -0.7245 -0.8741 -0.6529
  133MOL    H3534619   4.261   5.351   6.114 -1.7416 -1.1729  0.9087
  133MOL    H3634620   4.287   5.317   6.352  0.8785 -0.9808  0.1798
  133MOL    H3734621   4.303   5.158   6.403  1.6315 -0.4706 -0.7998
  133MOL    H3834622   4.066   5.193   6.373  0.8272 -0.0702  0.5708
  133MOL    H3934623   4.084   5.249   6.205 -2.4979 -0.9835 -0.6976
  133MOL    H4034624   4.126   5.089   6.235  0.8444 -0.1295  1.7083
  133MOL    C4134625   4.367   5.238   5.963  0.4149 -0.3288  0.3272
  133MOL    C4234626   4.241   5.155   5.917  0.5193 -0.5481 -0.0465
  133MOL    O4334627   4.298   5.062   5.825  0.3463 -0.0313  0.6085
  133MOL    C4434628   4.310   4.930   5.880  0.1661  0.2292  0.0617
  133MOL    C4534629   4.403   4.850   5.793  0.1431  0.6524  0.9937
  133MOL    H4634630   4.457   5.177   5.951  1.3613  0.8352  1.4603
  133MOL    H4734631   4.369   5.320   5.891 -1.3077 -0.2646  0.3135
  133MOL    H4834632   4.204   5.099   6.003 -1.5731 -0.4875 -0.8921
  133MOL    H4934633   4.210   4.887   5.883  1.2688 -2.3928  0.5930
  133MOL    H5034634   4.359   4.939   5.977  2.0409 -1.0299 -0.7440
  133MOL    H5134635   4.364   4.851   5.691 -2.1198 -2.7351  1.7566
  133MOL    H5234636   4.504   4.891   5.794  0.5865 -0.3079 -0.7005
  133MOL    H5334637   4.411   4.743   5.813 -0.1980  0.3463 -0.4462
  133MOL    C5434638   4.129   5.232   5.836 -0.1094 -0.1349  0.5976
  133MOL    C5534639   3.997   5.154   5.795 -0.1027 -0.8435 -0.2967
  133MOL    O5634640   3.913   5.257   5.752 -0.3728 -0.2284  0.1339
  133MOL    C5734641   3.888   5.266   5.614 -0.3131  0.0428 -0.2730
  133MOL    C5834642   3.762   5.360   5.615  0.2567  0.1624 -0.3726
  133MOL    H5934643   4.173   5.267   5.742 -1.8182 -0.9196 -0.5106
  133MOL    H6034644   4.103   5.326   5.884  1.9890  0.0897  1.3745
  133MOL    H6134645   4.005   5.081   5.714 -2.0988 -0.6357 -0.7263
  133MOL    H6234646   3.869   5.172   5.561 -1.9508  0.2448 -0.0665
  133MOL    H6334647   3.968   5.313   5.557 -2.0769 -0.1135 -2.9944
  133MOL    H6434648   3.780   5.459   5.656  0.3846  0.2758 -0.6950
  133MOL    H6534649   3.729   5.382   5.513  0.2396  1.4730 -0.0886
  133MOL    H6634650   3.677   5.319   5.670  1.9576  0.0167  2.2373
  133MOL    C6734651   3.912   5.092   5.909 -0.3178 -0.5893 -0.7022
  133MOL    C6834652   3.788   5.032   5.850 -0.2553  0.0799 -0.0284
  133MOL    O6934653   3.697   5.019   5.959 -0.1287 -0.5042 -0.3407
  133MOL    C7034654   3.583   5.101   5.942 -0.6325  0.1783  1.0302
  133MOL    C7134655   3.485   5.070   6.059  0.4831 -0.2524  0.0641
  133MOL    H7234656   3.886   5.169   5.983  0.0284 -0.1839 -1.0020
  133MOL    H7334657   3.976   5.017   5.955  2.2944  2.1959  0.3133
  133MOL    H7434658   3.738   5.089   5.771  1.3390  1.5807  0.0253
  133MOL    H7534659   3.532   5.100   5.845  1.6178 -1.1004 -0.1843
  133MOL    H7634660   3.632   5.198   5.952 -1.6367  0.9716 -1.2592
  133MOL    H7734661   3.546   5.058   6.148 -2.7965 -1.0563  2.2789
  133MOL    H7834662   3.407   5.143   6.080  1.2085 -0.4018  3.5897
  133MOL    H7934663   3.427   4.979   6.051 -1.5408  0.6543  3.3500
  133MOL    C8034664   3.808   4.896   5.787 -0.4309 -0.7590  0.4685
  133MOL    C8134665   3.690   4.846   5.700  0.4075  0.4804 -0.6797
  133MOL    O8234666   3.665   4.703   5.714  0.1862 -0.1346  0.3326
  133MOL    C8334667   3.620   4.659   5.841  0.1306  0.6511 -0.2470
  133MOL    C8434668   3.621   4.509   5.832  0.8839  0.4449 -0.3974
  133MOL    H8534669   3.833   4.821   5.862 -2.3288 -2.4079 -0.5226
  133MOL    H8634670   3.903   4.907   5.735 -0.8329  0.5246 -0.0201
  133MOL    H8734671   3.596   4.889   5.733  0.4286 -0.4800  0.6748
  133MOL    H8834672   3.518   4.697   5.847 -0.3532 -0.1806 -2.5837
  133MOL    H8934673   3.688   4.688   5.921 -0.8959 -0.9986  1.2551
  133MOL    H9034674   3.607   4.466   5.932  1.1975 -2.0426 -1.3815
  133MOL    H9134675   3.549   4.463   5.765 -0.9181  1.0128  1.0967
  133MOL    H9234676   3.723   4.476   5.810  1.0301  0.4744  0.2098
  133MOL    C9334677   3.686   4.891   5.557  0.1497 -0.4507  0.3154
  133MOL    C9434678   3.798   4.822   5.468 -0.5630 -0.4774 -0.7106
  133MOL    O9534679   3.922   4.898   5.492  0.2530 -0.7857 -0.2933
  133MOL    C9634680   4.040   4.811   5.476 -0.3899  0.5397 -0.6835
  133MOL    C9734681   4.169   4.909   5.476  0.7373  0.2575  0.3773
  133MOL    H9834682   3.686   5.000   5.558  1.5730 -0.4435  1.4568
  133MOL    H9934683   3.592   4.866   5.507 -1.6147  1.6555  2.4032
  133MOL   H10034684   3.808   4.716   5.489 -2.0168 -0.4882  0.0333
  133MOL   H10134685   4.042   4.752   5.384  1.9201 -1.9996  0.9629
  133MOL   H10234686   4.043   4.735   5.553 -0.9960 -0.1346 -1.3107
  133MOL   H10334687   4.165   4.989   5.403  0.8569 -0.2702 -0.2073
  133MOL   H10434688   4.185   4.939   5.580 -0.3880 -2.4510  1.4041
  133MOL   H10534689   4.255   4.852   5.442  0.6740  1.6047 -2.1597
  133MOL   C10634690   3.761   4.843   5.320  0.2605  0.0357  0.5772
  133MOL   C10734691   3.665   4.740   5.255  0.4963  0.5555 -0.3896
  133MOL   O10834692   3.732   4.608   5.235 -0.8153  0.2101  0.1865
  133MOL   C10934693   3.689   4.497   5.302 -0.0659 -0.1713  0.0017
  133MOL   C11034694   3.766   4.363   5.263  0.4956 -0.8235  1.0284
  133MOL   H11134695   3.853   4.855   5.263 -0.9180 -1.9843 -1.8366
  133MOL   H11234696   3.715   4.942   5.321  0.3327  0.1567 -3.2413
  133MOL   H11334697   3.580   4.724   5.321 -0.1122  1.3544 -0.9608
  133MOL   H11434698   3.583   4.476   5.285 -0.6349  0.1344  2.9052
  133MOL   H11534699   3.707   4.515   5.407 -2.0198 -1.0437  0.5140
  133MOL   H11634700   3.745   4.346   5.158  1.6422  0.5942  0.5588
  133MOL   H11734701   3.874   4.376   5.272  0.5380 -0.1562 -0.3464
  133MOL   H11834702   3.731   4.274   5.317  1.9477 -0.9060  1.8683
  133MOL   C11934703   3.616   4.769   5.116  0.5044 -0.3553  0.0216
  133MOL   C12034704   3.507   4.884   5.129  0.0271  0.8820  0.0010
  133MOL   O12134705   3.394   4.836   5.204 -0.2105 -0.0000  0.0906
  133MOL   C12234706   3.327   4.929   5.270 -0.8346 -0.2795 -0.2278
  133MOL   C12334707   3.260   4.857   5.387 -0.3722 -0.9566  0.0699
  133MOL   H12434708   3.559   4.690   5.066 -0.1682  1.1942 -1.7344
  133MOL   H12534709   3.696   4.786   5.044  0.6503 -0.0599  0.2518
  133MOL   H12634710   3.564   4.958   5.185 -0.6085 -0.3674  2.3938
  133MOL   H12734711   3.263   4.977   5.196  0.4547  0.0794 -1.1342
  133MOL   H12834712   3.396   5.003   5.312 -1.9373 -0.3145  1.6892
  133MOL   H12934713   3.328   4.808   5.458 -2.3103 -2.0641  1.2053
  133MOL   H13034714   3.202   4.919   5.455  0.3205  1.0985 -1.1801
  133MOL   H13134715   3.198   4.775   5.351 -0.8816 -1.2578  1.5753
  133MOL   C13234716   3.464   4.955   5.000  0.0962  0.0263 -0.3857
  133MOL   C13334717   3.569   5.031   4.922 -0.0144  1.3071 -0.5453
  133MOL   O13434718   3.647   5.103   5.021  0.5674  0.6328  0.0146
  133MOL   C13534719   3.789   5.073   5.015 -0.4384 -0.0735 -0.6837
  133MOL   C13634720   3.874   5.179   5.088 -0.5672 -0.4834 -0.3080
  133MOL   H13734721   3.377   5.017   5.016 -0.4914 -0.8339 -0.2051
  133MOL   H13834722   3.416   4.880   4.938 -1.4355  0.9122 -0.2763
  133MOL   H13934723   3.621   4.949   4.871 -3.3480 -0.3716 -1.3669
  133MOL   H14034724   3.818   5.078   4.910 -1.3694 -0.2771 -0.9580
  133MOL   H14134725   3.825   4.973   5.036  1.0125  0.7685  0.9581
  133MOL   H14234726   3.836   5.280   5.070 -0.4933 -0.6169 -1.2171
  133MOL   H14334727   3.883   5.144   5.191  0.9365 -2.6997 -1.1591
  133MOL   H14434728   3.977   5.158   5.062 -1.6145 -0.7606 -4.4527
  133MOL   C14534729   3.510   5.120   4.804 -0.1356  0.8829  0.7969
  133MOL   C14634730   3.618   5.133   4.698  0.3002 -0.1962 -0.2667
  133MOL   O14734731   3.620   5.264   4.646 -0.5950 -0.4883 -0.9331
  133MOL   C14834732   3.679   5.357   4.732  0.7340  0.1743 -0.9424
  133MOL   C14934733   3.833   5.348   4.742 -0.2511 -0.1501 -0.1782
  133MOL   H15034734   3.475   5.218   4.835  0.5716  0.8007  1.8822
  133MOL   H15134735   3.422   5.079   4.754  1.5310  0.2568 -1.7403
  133MOL   H15234736   3.714   5.113   4.747  1.2330  2.8566 -0.6936
  133MOL   H15334737   3.631   5.361   4.830  0.0174 -1.3961 -1.2080
  133MOL   H15434738   3.649   5.457   4.699 -0.7678 -0.2424 -0.8755
  133MOL   H15534739   3.882   5.329   4.646  0.2502  4.0851 -0.8585
  133MOL   H15634740   3.879   5.438   4.783  0.7292 -0.2804 -0.9632
  133MOL   H15734741   3.876   5.281   4.816  1.5593 -0.0016 -1.0556
  133MOL   C15834742   3.607   5.033   4.582 -0.9731  0.3564 -0.2260
  133MOL   C15934743   3.640   4.882   4.616 -0.0424  0.3015  1.1418
  133MOL   O16034744   3.536   4.822   4.680  0.0893 -0.3408 -0.0420
  133MOL   C16134745   3.508   4.688   4.647  0.6289 -0.1623  0.1657
  133MOL   C16234746   3.418   4.637   4.753  0.2823  0.2694 -0.7095
  133MOL   H16334747   3.683   5.061   4.509  0.0101 -1.8512 -0.1050
  133MOL   H16434748   3.517   5.049   4.523 -1.7167 -0.6807  0.6161
  133MOL   H16534749   3.635   4.835   4.518  0.6055  0.1521  1.1807
  133MOL   H16634750   3.599   4.630   4.637  0.8145  0.3037 -0.8822
  133MOL   H16734751   3.452   4.689   4.553  2.2016  1.8698 -0.7950
  133MOL   H16834752   3.485   4.611   4.835 -0.4722 -1.3468 -0.5913
  133MOL   H16934753   3.343   4.708   4.788  1.5944  1.5187 -0.3731
  133MOL   H17034754   3.367   4.544   4.727 -1.8610  0.5712  2.2655
  133MOL   C17134755   3.773   4.852   4.681  0.3210  0.1972  0.2781
  133MOL   C17234756   3.894   4.830   4.586 -0.8647  0.2127  0.3614
  133MOL   O17334757   3.880   4.722   4.496  0.0242  0.2309  0.5280
  133MOL   C17434758   3.941   4.740   4.368 -0.3311  0.5243 -0.5614
  133MOL   C17534759   3.838   4.808   4.271  0.4962 -0.1893 -0.0926
  133MOL   H17634760   3.763   4.754   4.727 -0.1598  0.7980  1.4886
  133MOL   H17734761   3.804   4.908   4.770  1.8980 -1.3745  0.7357
  133MOL   H17834762   3.895   4.919   4.522  1.2386 -0.2896 -0.3277
  133MOL   H17934763   3.961   4.638   4.335 -0.4095  0.5520 -0.6969
  133MOL   H18034764   4.033   4.797   4.366  0.2346 -0.2910  1.5245
  133MOL   H18134765   3.784   4.730   4.217 -1.3530  1.7348 -1.0884
  133MOL   H18234766   3.775   4.877   4.326  0.7673 -1.2519  1.5711
  133MOL   H18334767   3.900   4.860   4.198  2.6289 -2.6760 -0.1353
  133MOL   C18434768   4.027   4.812   4.668  0.1226  0.6971 -0.8658
  133MOL   C18534769   4.143   4.912   4.637 -0.4592 -0.3391  0.2056
  133MOL   O18634770   4.258   4.858   4.697  0.2426 -0.1300  0.4127
  133MOL   C18734771   4.338   4.785   4.607 -0.8410  0.9724  0.0295
  133MOL   C18834772   4.467   4.757   4.688  0.1660 -0.1121  0.0603
  133MOL   H18934773   4.068   4.712   4.658 -1.0162  0.2745 -1.4476
  133MOL   H19034774   4.000   4.826   4.773 -2.8853 -0.3912 -1.4310
  133MOL   H19134775   4.135   4.910   4.528  0.6096  1.7307  0.0550
  133MOL   H19234776   4.359   4.855   4.526 -0.7906 -1.8756 -2.4962
  133MOL   H19334777   4.298   4.695   4.560  0.2957  0.6443 -0.3248
  133MOL   H19434778   4.555   4.712   4.640  0.8782  1.9906 -0.6684
  133MOL   H19534779   4.502   4.857   4.715  2.1062 -0.6671 -0.2757
  133MOL   H19634780   4.449   4.694   4.775 -1.8795  0.0834 -0.2175
  133MOL   C19734781   4.123   5.057   4.687  0.2967 -0.2988  0.2855
  133MOL   C19834782   4.210   5.177   4.609 -0.2534  0.1145  0.3492
  133MOL   O19934783   4.181   5.181   4.471 -0.0279 -0.3743 -0.7489
  133MOL   C20034784   4.063   5.253   4.446 -0.1807 -0.4431  1.0416
  133MOL   C20134785   4.041   5.267   4.291 -0.5175 -1.0219 -0.4678
  133MOL   H20234786   4.153   5.072   4.791  0.7339  0.8253  0.0064
  133MOL   H20334787   4.017   5.076   4.670  0.1259 -0.0444  1.5623
  133MOL   H20434788   4.186   5.271   4.659  1.9000  0.2095  1.2482
  133MOL   H20534789   4.073   5.357   4.475 -0.9614 -0.1011  0.0907
  133MOL   H20634790   3.979   5.203   4.494 -0.4327  0.8828  1.9939
  133MOL   H20734791   4.126   5.302   4.233 -1.6472  0.3476 -1.3660
  133MOL   H20834792   4.015   5.173   4.243  1.3271 -0.9657 -1.6027
  133MOL   H20934793   3.964   5.342   4.273 -1.0070 -1.4802 -0.2853
  133MOL   C21034794   4.364   5.155   4.608 -0.1325  0.5713  0.1957
  133MOL   C21134795   4.456   5.281   4.623 -0.1175 -0.9452  0.4143
  133MOL   O21234796   4.423   5.347   4.744 -0.1089  0.2647 -0.1349
  133MOL   C21334797   4.459   5.278   4.861  0.8994 -0.1294  0.0140
  133MOL   C21434798   4.381   5.348   4.968 -1.1432 -0.0448  0.1093
  133MOL   H21534799   4.399   5.110   4.516  0.6964  2.1994 -0.2942
  133MOL   H21634800   4.376   5.083   4.689 -3.4887  0.9877  1.1595
  133MOL   H21734801   4.556   5.238   4.623  0.1810 -0.2869 -1.2078
  133MOL   H21834802   4.560   5.304   4.891  0.9235  1.0885 -1.0719
  133MOL   H21934803   4.442   5.170   4.867  0.5630 -0.1239 -0.8139
  133MOL   H22034804   4.274   5.356   4.948 -1.1517 -3.1814 -1.2879
  133MOL   H22134805   4.391   5.300   5.065 -0.2246  0.1058  0.0987
  133MOL   H22234806   4.413   5.452   4.981 -1.2299 -0.0015 -0.0145
  133MOL   C22334807   4.458   5.376   4.506  0.7376 -0.9122  0.2582
  133MOL   C22434808   4.492   5.319   4.361 -0.1631 -0.3148  0.3438
  133MOL   O22534809   4.616   5.257   4.355  0.0020 -0.0242 -0.1569
  133MOL   C22634810   4.614   5.114   4.360 -0.8408  0.2097  0.3360
  133MOL   C22734811   4.520   5.027   4.282  0.2260 -0.1374 -0.1322
  133MOL   H22834812   4.523   5.459   4.532 -0.4193  0.3946 -0.9200
  133MOL   H22934813   4.357   5.417   4.499  0.9371 -0.4102  0.3081
  133MOL   H23034814   4.412   5.258   4.320 -0.0900  0.2092 -0.6028
  133MOL   H23134815   4.609   5.086   4.466  1.5811  0.1911  0.4800
  133MOL   H23234816   4.715   5.096   4.322 -0.3342 -0.1557  1.8263
  133MOL   H23334817   4.418   5.024   4.320  0.5916  1.7843  1.0417
  133MOL   H23434818   4.528   5.059   4.178 -0.6817 -1.7645 -0.7289
  133MOL   H23534819   4.555   4.924   4.294  1.4681  0.3732  0.7457
  133MOL   C23634820   4.527   5.441   4.265  0.5711 -0.1158  0.6426
  133MOL   C23734821   4.410   5.539   4.227  0.7667 -0.2662 -0.0802
  133MOL   O23834822   4.326   5.467   4.131 -0.4441  0.3098  0.5958
  133MOL   C23934823   4.204   5.542   4.103  0.2062 -0.7968  0.1008
  133MOL   C24034824   4.133   5.474   3.982 -0.5160  0.2915 -0.8434
  133MOL   H24134825   4.564   5.394   4.174 -0.5284 -0.2990  0.2763
  133MOL   H24234826   4.613   5.493   4.306 -0.0632  1.6005 -0.1867
  133MOL   H24334827   4.355   5.548   4.321 -0.9401 -1.5669 -0.9356
  133MOL   H24434828   4.220   5.647   4.078 -0.8350 -0.3904  1.1019
  133MOL   H24534829   4.147   5.542   4.196  0.7147  0.2514  0.4250
  133MOL   H24634830   4.094   5.372   3.991  0.3130  0.0148 -0.3060
  133MOL   H24734831   4.048   5.534   3.949  0.0331  2.5301  1.6687
  133MOL   H24834832   4.207   5.476   3.902  0.0521  1.6102 -0.2980
  133MOL   C24934833   4.477   5.670   4.167  0.4131  0.4699  0.0512
  133MOL   C25034834   4.560   5.755   4.260 -0.1480 -0.3469  0.6311
  133MOL   O25134835   4.488   5.777   4.379  0.3958  0.5502 -0.2169
  133MOL   C25234836   4.566   5.862   4.466 -0.2329  1.0691 -0.7580
  133MOL   C25334837   4.472   5.891   4.582 -0.4938 -0.0430  0.3628
  133MOL   H25434838   4.409   5.738   4.115  0.5256  0.6790  0.1785
  133MOL   H25534839   4.547   5.641   4.089  0.3212  4.0266 -1.4775
  133MOL   H25634840   4.652   5.708   4.294 -0.6701 -0.9021  1.2987
  133MOL   H25734841   4.605   5.945   4.408 -0.4786 -0.8137 -3.6929
  133MOL   H25834842   4.651   5.805   4.504 -1.1287  1.2895  1.6806
  133MOL   H25934843   4.399   5.968   4.558  0.3775  0.8232  0.4595
  133MOL   H26034844   4.432   5.796   4.618  0.9606 -0.7268  0.2339
  133MOL   H26134845   4.529   5.940   4.661 -0.0743  0.3377 -0.1675
  133MOL   H26234846   4.574   5.853   4.215 -1.5944 -1.5953 -2.6731
  134MOL     C134847   1.184   1.608   4.806 -0.3662 -0.4140  0.3996
  134MOL     C234848   1.081   1.530   4.728  0.2677  0.2633 -0.2461
  134MOL     O334849   1.159   1.417   4.704 -0.0096 -0.5079  0.9009
  134MOL     C434850   1.091   1.293   4.703  0.2211  0.9024  0.3702
  134MOL     C534851   1.191   1.188   4.656  0.0828  0.4873  0.4226
  134MOL     H634852   1.283   1.619   4.762 -1.3358  0.6536 -1.6090
  134MOL     H734853   1.144   1.705   4.835 -2.7065 -1.7331  1.7421
  134MOL     H834854   1.004   1.503   4.799 -0.1222 -0.0829 -0.7987
  134MOL     H934855   1.012   1.295   4.628 -0.4068  2.7046  1.0397
  134MOL    H1034856   1.046   1.290   4.802  0.0434  0.8579  0.2892
  134MOL    H1134857   1.247   1.163   4.746 -0.7522  0.9952  1.0910
  134MOL    H1234858   1.151   1.088   4.638  1.8588  0.2915 -2.7658
  134MOL    H1334859   1.257   1.216   4.574  1.4169  0.0602  1.3326
  134MOL    H1434860   1.202   1.569   4.906 -0.6385  3.7226  2.1891
  134MOL    C1534861   1.041   1.603   4.599  0.5000 -0.1766 -0.2665
  134MOL    C1634862   0.940   1.715   4.624 -0.0391 -0.6950 -0.4825
  134MOL    O1734863   0.815   1.647   4.664  0.2477 -0.2656 -0.0121
  134MOL    C1834864   0.723   1.724   4.732 -0.2005  0.5175 -0.6575
  134MOL    C1934865   0.601   1.640   4.755 -0.2232 -0.4569 -0.6131
  134MOL    H2034866   1.028   1.524   4.525  1.6160 -0.0652 -0.5869
  134MOL    H2134867   1.126   1.651   4.551  0.9567  1.4342  2.0462
  134MOL    H2234868   0.967   1.780   4.707 -0.8512 -1.3282  0.2843
  134MOL    H2334869   0.707   1.821   4.686  2.3332  1.5216  0.4517
  134MOL    H2434870   0.767   1.759   4.826  1.4269  2.9087 -2.2636
  134MOL    H2534871   0.519   1.699   4.795  0.1024 -0.7234  0.4403
  134MOL    H2634872   0.618   1.552   4.818  2.9747 -0.5991 -1.6207
  134MOL    H2734873   0.568   1.597   4.660 -1.2093 -0.0294 -0.4713
  134MOL    C2834874   0.914   1.812   4.502  0.0950 -0.6919 -0.2155
  134MOL    C2934875   1.035   1.885   4.445  0.3478 -0.5662 -0.0524
  134MOL    O3034876   1.115   1.947   4.550  0.0759 -0.3509  0.6446
  134MOL    C3134877   1.250   1.939   4.522 -0.1542 -0.6601  0.2904
  134MOL    C3234878   1.336   2.032   4.610  0.0757  0.2628 -1.2512
  134MOL    H3334879   0.838   1.882   4.535 -0.3199 -1.1494 -0.1901
  134MOL    H3434880   0.862   1.751   4.427  2.2419 -0.0096 -2.2928
  134MOL    H3534881   1.093   1.813   4.387 -0.3658 -0.1574 -1.3026
  134MOL    H3634882   1.272   1.965   4.418  1.7688  2.7145  1.4680
  134MOL    H3734883   1.271   1.833   4.537  1.1737 -0.4569 -0.0320
  134MOL    H3834884   1.316   1.999   4.712 -0.2066  0.8096 -1.1286
  134MOL    H3934885   1.438   2.000   4.591 -0.9636 -2.0689 -3.2536
  134MOL    H4034886   1.310   2.137   4.593 -0.5568  0.7838  2.5721
  134MOL    C4134887   0.997   1.992   4.334 -0.2401  0.2977  0.2524
  134MOL    C4234888   0.923   1.944   4.204  0.4613  0.9157  0.1009
  134MOL    O4334889   0.788   1.915   4.239  0.5879  0.2334  0.2850
  134MOL    C4434890   0.704   1.907   4.127  0.3685  0.0448  0.4363
  134MOL    C4534891   0.658   1.764   4.138 -0.0008 -0.0356  0.2431
  134MOL    H4634892   1.083   2.052   4.303 -1.0472  0.6090 -1.4543
  134MOL    H4734893   0.923   2.063   4.373 -0.0750  0.7952 -0.3429
  134MOL    H4834894   0.923   2.027   4.134  2.1056 -0.2068 -1.2802
  134MOL    H4934895   0.747   1.943   4.034 -0.7647 -1.7709 -0.8328
  134MOL    H5034896   0.621   1.971   4.155 -0.9370 -0.4750 -2.1405
  134MOL    H5134897   0.744   1.696   4.143 -0.6690 -0.8514  0.7173
  134MOL    H5234898   0.597   1.746   4.226  1.9981 -1.4418  1.3933
  134MOL    H5334899   0.603   1.729   4.051  0.2255  0.6841 -0.2006
  134MOL    C5434900   0.990   1.825   4.141  0.0280  0.3970  0.5463
  134MOL    C5534901   1.133   1.825   4.086  0.5076  0.0770  0.1667
  134MOL    O5634902   1.164   1.953   4.035 -0.1913  0.0246  0.0210
  134MOL    C5734903   1.304   1.986   4.031 -0.4577  0.1711 -0.1688
  134MOL    C5834904   1.303   2.141   4.027  0.1236  0.3896 -0.3769
  134MOL    H5934905   0.929   1.802   4.054  1.2697  1.1293 -0.5347
  134MOL    H6034906   0.980   1.739   4.208 -0.6169  0.6503  0.7733
  134MOL    H6134907   1.190   1.801   4.176  2.8475  1.5063 -0.8928
  134MOL    H6234908   1.344   1.953   3.935 -0.8552 -0.9818  0.0665
  134MOL    H6334909   1.368   1.945   4.110 -2.6967  1.0756  2.1977
  134MOL    H6434910   1.398   2.192   4.022 -0.2682  1.1223 -0.3992
  134MOL    H6534911   1.240   2.191   3.953  0.2596  1.8102  0.4554
  134MOL    H6634912   1.259   2.176   4.121 -0.0101  0.9748 -0.6567
  134MOL    C6734913   1.164   1.722   3.981 -0.4998  0.0796  0.1621
  134MOL    C6834914   1.133   1.574   4.013 -0.4146  0.3214  0.0903
  134MOL    O6934915   1.238   1.530   4.094 -0.3870 -0.2925 -0.0786
  134MOL    C7034916   1.200   1.457   4.213 -0.7267 -0.2353 -0.4567
  134MOL    C7134917   1.300   1.364   4.264  0.1713  0.1320  0.3412
  134MOL    H7234918   1.270   1.720   3.954 -0.2172  1.8543  1.0446
  134MOL    H7334919   1.114   1.757   3.890 -0.3211  0.9899  0.4069
  134MOL    H7434920   1.036   1.563   4.061  0.1526 -1.5437  0.8320
  134MOL    H7534921   1.123   1.387   4.182  0.5777 -2.5911  1.4270
  134MOL    H7634922   1.154   1.521   4.289  0.4133  0.8041 -0.6179
  134MOL    H7734923   1.258   1.310   4.349 -1.9124 -1.7281 -1.8091
  134MOL    H7834924   1.325   1.292   4.186 -2.7197 -0.6804  0.0972
  134MOL    H7934925   1.394   1.409   4.295  0.3221 -0.4666  0.7755
  134MOL    C8034926   1.108   1.469   3.898  0.6622  0.0465  0.4011
  134MOL    C8134927   0.971   1.464   3.820  0.0075 -0.3154 -0.2186
  134MOL    O8234928   0.869   1.424   3.909 -0.1831  0.0611  0.9032
  134MOL    C8334929   0.753   1.503   3.891 -0.3675 -0.8571 -0.3902
  134MOL    C8434930   0.647   1.466   3.994  0.5058  1.2855 -0.4235
  134MOL    H8534931   1.124   1.373   3.945 -1.0042  0.4894  1.9017
  134MOL    H8634932   1.193   1.476   3.829 -0.1095 -0.0353 -0.5732
  134MOL    H8734933   0.961   1.563   3.775 -1.6497 -1.0373 -1.4869
  134MOL    H8834934   0.712   1.472   3.795 -0.2652  0.4315 -0.8672
  134MOL    H8934935   0.763   1.612   3.890  2.4735 -1.0562  0.8707
  134MOL    H9034936   0.668   1.487   4.099  0.5611 -0.4002 -0.0923
  134MOL    H9134937   0.551   1.512   3.971 -0.4337 -1.4051 -2.1906
  134MOL    H9234938   0.627   1.359   3.993  0.3198  1.3195 -0.4088
  134MOL    C9334939   0.974   1.354   3.706  0.6561 -0.1348 -0.2428
  134MOL    C9434940   1.060   1.391   3.588 -0.0113  0.2765  0.4438
  134MOL    O9534941   0.985   1.491   3.508  1.0176  0.6354  0.2790
  134MOL    C9634942   1.067   1.586   3.447 -1.0658 -0.5761  0.2378
  134MOL    C9734943   0.969   1.662   3.357 -0.1122  0.1706  0.6546
  134MOL    H9834944   0.872   1.327   3.680  0.1335 -0.0117  1.6023
  134MOL    H9934945   1.020   1.264   3.746  1.2118  0.1101 -0.3263
  134MOL   H10034946   1.151   1.442   3.619 -0.2095  0.0020  1.4978
  134MOL   H10134947   1.143   1.529   3.393  1.1104  1.9314  0.5680
  134MOL   H10234948   1.125   1.656   3.506 -0.2845 -1.3381  0.3746
  134MOL   H10334949   1.029   1.733   3.301  0.3093 -1.1316 -0.5633
  134MOL   H10434950   0.917   1.593   3.291  0.4814  0.9801 -0.6904
  134MOL   H10534951   0.894   1.721   3.410 -2.0571 -2.1502  0.5860
  134MOL   C10634952   1.111   1.275   3.496 -0.5949 -0.7342 -0.3446
  134MOL   C10734953   1.216   1.187   3.563  0.0427  0.0064 -0.1289
  134MOL   O10834954   1.314   1.281   3.613 -0.2445  0.2100  0.0429
  134MOL   C10934955   1.403   1.237   3.715  0.6276  0.1912 -0.0374
  134MOL   C11034956   1.508   1.347   3.751 -0.0073  0.5066 -0.0977
  134MOL   H11134957   1.156   1.324   3.409  2.4152 -0.1530  1.4726
  134MOL   H11234958   1.025   1.218   3.461 -0.9891 -0.0696 -0.4579
  134MOL   H11334959   1.177   1.136   3.651  0.3983  1.0150  0.6198
  134MOL   H11434960   1.449   1.140   3.698 -1.1972 -0.6410 -0.3255
  134MOL   H11534961   1.352   1.216   3.809  2.3316  1.0432  1.1004
  134MOL   H11634962   1.577   1.319   3.831 -0.2820  1.8114  0.6033
  134MOL   H11734963   1.568   1.361   3.661 -0.9698  1.9586 -0.5250
  134MOL   H11834964   1.465   1.441   3.785 -0.2763  1.1106 -2.0242
  134MOL   C11934965   1.281   1.081   3.469  0.2358 -0.3684 -0.4485
  134MOL   C12034966   1.189   0.969   3.410 -0.6715  0.1624 -0.1351
  134MOL   O12134967   1.136   0.894   3.516  0.1683  0.1480 -0.3037
  134MOL   C12234968   1.013   0.830   3.497  0.6640 -0.0702 -0.2439
  134MOL   C12334969   0.894   0.921   3.533  0.2638  0.4194  0.6856
  134MOL   H12434970   1.350   1.034   3.540  1.2379 -0.6260 -1.5644
  134MOL   H12534971   1.353   1.128   3.401  1.7824 -0.2032  1.2819
  134MOL   H12634972   1.099   1.002   3.358  0.1710  1.7335 -0.6287
  134MOL   H12734973   1.007   0.743   3.563 -2.5831 -0.5047 -1.0234
  134MOL   H12834974   1.008   0.793   3.395 -3.0457 -1.3722  0.3470
  134MOL   H12934975   0.898   0.958   3.635 -1.3528  0.6771  0.6765
  134MOL   H13034976   0.884   1.003   3.463  0.5425 -1.3787 -1.5282
  134MOL   H13134977   0.801   0.864   3.525  1.3576 -1.4002  0.7918
  134MOL   C13234978   1.274   0.861   3.329 -0.1122  0.3540  0.1862
  134MOL   C13334979   1.351   0.922   3.208 -0.8999 -0.0539  0.3450
  134MOL   O13434980   1.252   1.001   3.135 -0.1289  0.4546 -0.0970
  134MOL   C13534981   1.297   1.108   3.048 -0.0780 -0.0471 -0.3139
  134MOL   C13634982   1.216   1.128   2.921 -0.6927  0.1457 -0.2498
  134MOL   H13734983   1.204   0.792   3.281  2.6021 -1.5882 -1.0876
  134MOL   H13834984   1.334   0.801   3.396  0.8944  0.4635 -0.6114
  134MOL   H13934985   1.420   0.995   3.251 -3.0687  1.6660  1.0712
  134MOL   H14034986   1.397   1.087   3.011  0.2629  2.5866 -1.0250
  134MOL   H14134987   1.313   1.203   3.098  0.6842  0.5553 -1.6623
  134MOL   H14234988   1.120   1.178   2.937 -0.3531  0.7354 -0.0371
  134MOL   H14334989   1.260   1.180   2.836  0.2421  2.1491  1.4052
  134MOL   H14434990   1.187   1.030   2.884 -3.2384  0.7575  0.0320
  134MOL   C14534991   1.418   0.811   3.114  0.7992 -0.6805  0.6310
  134MOL   C14634992   1.541   0.739   3.169 -0.2370  0.1357  0.5996
  134MOL   O14734993   1.655   0.828   3.171  0.1826  0.0982 -0.1413
  134MOL   C14834994   1.701   0.853   3.299  0.3446  0.8147 -0.4539
  134MOL   C14934995   1.828   0.940   3.272  0.4672 -0.0284 -0.2673
  134MOL   H15034996   1.438   0.856   3.016 -1.2906 -0.0286  0.4864
  134MOL   H15134997   1.335   0.744   3.094  0.7234 -0.5306  0.4449
  134MOL   H15234998   1.509   0.708   3.269 -0.7556 -0.7193  0.1709
  134MOL   H15334999   1.732   0.759   3.346 -1.7212 -0.4999 -1.6660
  134MOL   H15435000   1.634   0.916   3.357  1.9929  0.4935  1.8928
  134MOL   H15535001   1.781   1.034   3.245  0.3296  0.1902  0.7160
  134MOL   H15635002   1.884   0.959   3.363 -1.1022  1.0193  0.4884
  134MOL   H15735003   1.901   0.903   3.200  1.3563 -0.0766  0.6604
  134MOL   C15835004   1.585   0.613   3.084 -0.1560  0.5139 -0.2923
  134MOL   C15935005   1.517   0.481   3.129  0.7084 -0.3074 -0.4639
  134MOL   O16035006   1.563   0.447   3.258  0.0577  0.0362  0.4312
  134MOL   C16135007   1.495   0.343   3.320 -0.0246  0.0607 -0.4981
  134MOL   C16235008   1.564   0.280   3.445  0.0758  0.3968 -0.1371
  134MOL   H16335009   1.691   0.589   3.091 -0.3931 -0.2957  0.7932
  134MOL   H16435010   1.558   0.640   2.982 -2.3565 -2.1424 -0.4863
  134MOL   H16535011   1.409   0.489   3.138  0.5730 -1.4551 -1.0489
  134MOL   H16635012   1.442   0.265   3.265 -0.4046  0.8014 -1.1799
  134MOL   H16735013   1.414   0.401   3.362 -1.1680 -0.6495 -1.6867
  134MOL   H16835014   1.660   0.233   3.425 -0.1701  0.3920 -1.3531
  134MOL   H16935015   1.591   0.354   3.520  1.5378  1.3002 -1.5109
  134MOL   H17035016   1.499   0.208   3.493  1.6123 -0.3618  0.8459
  134MOL   C17135017   1.549   0.366   3.040  0.2509  0.2896 -1.1234
  134MOL   C17235018   1.507   0.378   2.893 -0.5836  0.2614  0.3196
  134MOL   O17335019   1.380   0.441   2.881  0.2337 -0.2720 -0.3600
  134MOL   C17435020   1.350   0.497   2.760 -1.1954  0.0653 -0.0492
  134MOL   C17535021   1.404   0.640   2.762 -0.1615  0.0463 -0.1813
  134MOL   H17635022   1.513   0.268   3.070 -0.0112  1.3353  2.0984
  134MOL   H17735023   1.657   0.364   3.026  0.6558  0.0329  1.9036
  134MOL   H17835024   1.569   0.447   2.835 -0.2960 -0.2493  0.0176
  134MOL   H17935025   1.241   0.502   2.756 -1.2525  0.0942  1.4627
  134MOL   H18035026   1.389   0.438   2.677  1.1940  1.0204  0.3417
  134MOL   H18135027   1.365   0.703   2.842  0.5847  1.3266 -0.7990
  134MOL   H18235028   1.512   0.640   2.781 -0.2762 -1.7859  0.5596
  134MOL   H18335029   1.382   0.695   2.670  0.9219  1.6422  0.4860
  134MOL   C18435030   1.506   0.229   2.830  0.7550 -0.3583  0.9587
  134MOL   C18535031   1.638   0.155   2.822 -0.3520  0.5558  0.0620
  134MOL   O18635032   1.732   0.250   2.764  0.4694 -0.4387  0.0343
  134MOL   C18735033   1.875   0.225   2.790  0.1362  0.0583  0.3735
  134MOL   C18835034   1.940   0.362   2.782  0.1771 -0.3253  0.9049
  134MOL   H18935035   1.459   0.230   2.732 -0.0619 -0.9043  1.3365
  134MOL   H19035036   1.435   0.168   2.886 -1.5378  0.8915 -0.5219
  134MOL   H19135037   1.674   0.131   2.922 -3.1401 -1.0210  0.7450
  134MOL   H19235038   1.908   0.161   2.709 -3.1704  0.9552 -1.7734
  134MOL   H19335039   1.887   0.176   2.887  3.2785  0.5499  0.2704
  134MOL   H19435040   1.917   0.414   2.690 -2.4531  0.4750  1.9684
  134MOL   H19535041   1.893   0.423   2.859  0.3515 -1.0326  1.5840
  134MOL   H19635042   2.048   0.365   2.799  0.4127  1.0798 -0.7351
  134MOL   C19735043   1.631   0.029   2.737  0.3688 -0.3227  0.0444
  134MOL   C19835044   1.539   7.763   2.788 -0.3910 -0.1360  0.6553
  134MOL   O19935045   1.597   7.705   2.906 -0.7982  0.2849  0.0367
  134MOL   C20035046   1.518   7.735   3.019 -0.5042  0.5622  0.4179
  134MOL   C20135047   1.597   7.688   3.137 -0.0723  0.2047 -0.2330
  134MOL   H20235048   1.730   7.827   2.731  0.5159 -0.0030  0.0514
  134MOL   H20335049   1.596   0.057   2.637  2.4056 -2.7982 -1.4158
  134MOL   H20435050   1.437   7.800   2.799  0.2996  1.9285  0.4949
  134MOL   H20535051   1.419   7.693   2.999 -1.6360  3.0422  0.6495
  134MOL   H20635052   1.500   7.842   3.026  0.3341  0.7040  0.4036
  134MOL   H20735053   1.616   7.581   3.142 -0.5756  0.2418  3.3865
  134MOL   H20835054   1.695   7.736   3.139 -0.3436  0.9078 -2.1934
  134MOL   H20935055   1.544   7.719   3.227  1.5497  1.9084  0.1518
  134MOL   C21035056   1.511   7.657   2.684 -0.1593 -0.2791 -0.1634
  134MOL   C21135057   1.383   7.661   2.601 -0.5643 -0.7389 -0.1566
  134MOL   O21235058   1.375   7.782   2.527 -0.6983  0.0328  0.1675
  134MOL   C21335059   1.447   7.766   2.409  0.4169 -0.3126  0.5831
  134MOL   C21435060   1.482   0.070   2.352 -0.2633  1.1782 -0.0251
  134MOL   H21535061   1.504   7.563   2.738  3.1407  0.1688  1.1840
  134MOL   H21635062   1.597   7.648   2.617 -0.6123  0.6861 -0.8963
  134MOL   H21735063   1.391   7.571   2.541 -1.5067 -0.1736 -1.1490
  134MOL   H21835064   1.380   7.722   2.335  0.3417 -1.3023  1.2285
  134MOL   H21935065   1.534   7.701   2.420 -1.5198 -2.7339  2.1345
  134MOL   H22035066   1.554   0.069   2.270  0.1408  0.7059  0.3336
  134MOL   H22135067   1.398   0.127   2.313 -1.8881  0.8683  2.9271
  134MOL   H22235068   1.535   0.130   2.426  0.4205  0.2129  0.2831
  134MOL   C22335069   1.247   7.660   2.669 -0.3230  0.6764  0.0297
  134MOL   C22435070   1.223   7.527   2.748  0.2633  0.2962  0.4925
  134MOL   O22535071   1.237   7.409   2.662 -0.1968  0.0807 -0.8072
  134MOL   C22635072   1.326   7.319   2.722  0.5703  0.2398 -0.6001
  134MOL   C22735073   1.321   7.198   2.630  0.5108 -0.0786 -0.1989
  134MOL   H22835074   1.169   7.682   2.596 -1.3422  0.4250  1.0189
  134MOL   H22935075   1.242   7.741   2.741  1.5878  0.1031  0.8458
  134MOL   H23035076   1.300   7.525   2.825 -0.2933 -0.0399  1.0471
  134MOL   H23135077   1.287   7.285   2.818  1.1338  1.6419  0.1429
  134MOL   H23235078   1.422   7.367   2.743  0.1218  0.2211  1.5507
  134MOL   H23335079   1.409   7.133   2.632  0.4492 -0.1638 -0.2576
  134MOL   H23435080   1.223   7.154   2.652  0.4898  0.1668  0.2065
  134MOL   H23535081   1.313   7.236   2.529 -2.5798  0.7202  0.2724
  134MOL   C23635082   1.075   7.523   2.792 -0.6305  0.0406 -0.2305
  134MOL   C23735083   1.047   7.420   2.901  0.6789  0.5054  0.3646
  134MOL   O23835084   1.157   7.395   2.986  0.0606  0.1698  1.1241
  134MOL   C23935085   1.151   7.458   3.107 -0.1405  0.3083 -0.0785
  134MOL   C24035086   1.274   7.420   3.188 -0.3531 -0.1794 -0.2960
  134MOL   H24135087   1.006   7.496   2.712  0.6660 -2.3789 -0.5911
  134MOL   H24235088   1.050   7.619   2.836  0.6894  0.5519 -0.5688
  134MOL   H24335089   0.970   7.472   2.958  0.0057  2.2787 -2.0491
  134MOL   H24435090   1.058   7.430   3.158  0.3723 -0.5916  0.3589
  134MOL   H24535091   1.140   7.566   3.090 -1.5686  0.6587  2.6850
  134MOL   H24635092   1.267   7.319   3.228 -1.4576  0.4749  1.2004
  134MOL   H24735093   1.367   7.427   3.132  0.7405 -0.4195  1.4623
  134MOL   H24835094   1.280   7.487   3.274 -0.8017  0.0810 -0.4652
  134MOL   C24935095   0.983   7.292   2.846 -0.6202 -1.1311  0.6775
  134MOL   C25035096   0.931   7.205   2.962 -0.2248  0.2366  0.8663
  134MOL   O25135097   0.851   7.108   2.888 -0.1264 -0.0920 -0.0608
  134MOL   C25235098   0.761   7.046   2.965 -0.0989  0.2307 -0.1611
  134MOL   C25335099   0.715   6.925   2.885  0.4649 -0.7406 -0.3042
  134MOL   H25435100   1.068   7.242   2.799 -0.4440  0.7094 -1.0085
  134MOL   H25535101   0.913   7.313   2.765  1.1754  0.7765 -0.4223
  134MOL   H25635102   1.009   7.153   3.018  0.7285  1.3322  0.5761
  134MOL   H25735103   0.678   7.113   2.988  1.0601  0.7186  2.8918
  134MOL   H25835104   0.825   7.026   3.052 -1.5221 -2.1679  0.3716
  134MOL   H25935105   0.632   6.886   2.944 -0.0350  0.3245 -0.2894
  134MOL   H26035106   0.678   6.951   2.785  0.8328 -0.3964 -0.3502
  134MOL   H26135107   0.789   6.846   2.874  1.3272 -0.1396  1.1399
  134MOL   H26235108   0.859   7.257   3.026  0.3272  2.0639  0.0414
  135MOL     C135109   5.550   0.511   5.157  0.9524  1.0496 -0.5567
  135MOL     C235110   5.591   0.386   5.227  0.4860 -1.2457  0.4942
  135MOL     O335111   5.613   0.427   5.362 -0.1167  0.4014 -0.0268
  135MOL     C435112   5.506   0.409   5.450 -0.0828 -0.9304  1.1205
  135MOL     C535113   5.541   0.471   5.587 -0.0443  0.1271 -0.4393
  135MOL     H635114   5.618   0.594   5.138  1.3791  0.3130 -2.3746
  135MOL     H735115   5.527   0.490   5.053  1.3736  3.5554 -1.1914
  135MOL     H835116   5.510   0.314   5.220 -0.2367 -0.4049  0.0199
  135MOL     H935117   5.476   0.305   5.453  1.3132 -1.4890 -2.1010
  135MOL    H1035118   5.418   0.461   5.413  1.9625  1.5688 -0.4153
  135MOL    H1135119   5.632   0.432   5.632  0.7996  0.2432 -2.0385
  135MOL    H1235120   5.559   0.576   5.563  4.2613 -0.5694 -0.5196
  135MOL    H1335121   5.452   0.467   5.650  0.5010 -0.1342  0.3193
  135MOL    H1435122   5.458   0.550   5.201  0.9500  1.3251 -0.8094
  135MOL    C1535123   5.720   0.334   5.169 -0.2417 -0.7941 -0.1751
  135MOL    C1635124   5.782   0.210   5.247  0.8236 -0.2905  0.1177
  135MOL    O1735125   5.925   0.208   5.238 -0.1274  0.1913  0.3843
  135MOL    C1835126   5.997   0.172   5.351 -0.4838 -0.0005  0.0035
  135MOL    C1935127   6.009   0.293   5.449  0.0643  0.4087 -1.0035
  135MOL    H2035128   5.794   0.413   5.183 -2.0035  0.9972 -0.6712
  135MOL    H2135129   5.720   0.315   5.062 -0.1635  0.3633 -0.3920
  135MOL    H2235130   5.750   0.223   5.351 -1.5849  0.0060 -0.6252
  135MOL    H2335131   6.100   0.141   5.333 -0.8348 -1.2401  0.0675
  135MOL    H2435132   5.957   0.091   5.411 -0.1238  2.0164  3.0546
  135MOL    H2535133   6.079   0.371   5.420  0.1657  0.7026 -0.0050
  135MOL    H2635134   6.048   0.248   5.540  0.0415  1.2673 -0.5635
  135MOL    H2735135   5.910   0.331   5.476  0.1296 -0.1520  0.0547
  135MOL    C2835136   5.732   0.076   5.195 -0.4112 -1.1096 -0.9507
  135MOL    C2935137   5.586   0.031   5.195  0.0011  0.2793 -0.1624
  135MOL    O3035138   5.541   0.026   5.328  0.2389 -0.3877  0.2280
  135MOL    C3135139   5.398   0.033   5.343  0.0673  0.1494 -0.6003
  135MOL    C3235140   5.373   7.796   5.471 -0.0100  0.0460  0.3107
  135MOL    H3335141   5.792   7.843   5.245  1.6932  1.3365  0.3577
  135MOL    H3435142   5.758   0.071   5.090 -2.7187  0.2601 -1.6178
  135MOL    H3535143   5.516   0.093   5.138 -0.4987  0.3803  0.5586
  135MOL    H3635144   5.343   7.821   5.267 -0.4338 -0.0129 -0.1231
  135MOL    H3735145   5.360   0.134   5.358 -1.4762 -0.2549 -1.6679
  135MOL    H3835146   5.418   0.016   5.546  1.1158 -1.0162  0.5530
  135MOL    H3935147   5.266   7.790   5.491 -0.1128 -1.0670 -0.5320
  135MOL    H4035148   5.426   7.701   5.469  1.6290  0.9682 -0.7809
  135MOL    C4135149   5.563   7.727   5.131  0.8128  0.4194 -0.5975
  135MOL    C4235150   5.577   7.731   4.977  0.3040  0.1204  0.2255
  135MOL    O4335151   5.508   7.842   4.911  0.3870 -0.0259 -0.1585
  135MOL    C4435152   5.369   7.834   4.922  0.6904 -0.3327 -0.0834
  135MOL    C4535153   5.318   0.140   4.900  0.4091  0.4843  0.1285
  135MOL    H4635154   5.469   7.682   5.163  1.3195  1.7034  2.8343
  135MOL    H4735155   5.634   7.656   5.173 -2.0896 -1.0511  2.0452
  135MOL    H4835156   5.683   7.751   4.961 -0.0674  2.3776  0.4047
  135MOL    H4935157   5.335   7.796   5.019 -2.4688  1.8565 -0.2625
  135MOL    H5035158   5.337   7.756   4.853  0.6227  0.7364 -1.2662
  135MOL    H5135159   5.325   0.171   4.796 -0.0882 -0.7720 -0.2871
  135MOL    H5235160   5.217   0.148   4.941  0.6164 -2.1676  1.2766
  135MOL    H5335161   5.377   0.205   4.965  0.5242 -1.2497  1.8122
  135MOL    C5435162   5.545   7.593   4.913  0.0656 -0.0976  1.1595
  135MOL    C5535163   5.651   7.485   4.933  0.3845 -0.5076 -0.3073
  135MOL    O5635164   5.782   7.513   4.882 -0.3792 -0.0195  0.1468
  135MOL    C5735165   5.889   7.456   4.956 -0.3462  0.3481 -0.1302
  135MOL    C5835166   6.023   7.461   4.876  0.0493 -0.5088  0.2666
  135MOL    H5935167   5.534   7.615   4.806  2.1164  0.1576  0.9644
  135MOL    H6035168   5.442   7.569   4.938 -0.0914  0.9457  1.5422
  135MOL    H6135169   5.663   7.480   5.041  1.9143  0.5847 -0.4154
  135MOL    H6235170   5.870   7.353   4.987 -0.4679 -0.5357 -2.9181
  135MOL    H6335171   5.902   7.499   5.055  1.8079 -1.8038  0.6043
  135MOL    H6435172   6.020   7.414   4.778  1.9499  0.6807 -0.4049
  135MOL    H6535173   6.042   7.569   4.869 -0.6945 -0.3433  0.7853
  135MOL    H6635174   6.112   7.419   4.923  1.0386  0.9734 -0.2392
  135MOL    C6735175   5.607   7.349   4.883  0.4085 -0.0020  0.0784
  135MOL    C6835176   5.480   7.298   4.942  0.0002  0.3625  0.1397
  135MOL    O6935177   5.490   7.296   5.080  0.1153  0.0791  0.2742
  135MOL    C7035178   5.371   7.320   5.151 -0.1679 -0.4107  0.2368
  135MOL    C7135179   5.395   7.399   5.280 -0.5603  0.6755 -0.1108
  135MOL    H7235180   5.688   7.278   4.905  0.3704  0.5652  2.1838
  135MOL    H7335181   5.622   7.346   4.775  3.1902 -0.1056  0.4165
  135MOL    H7435182   5.399   7.359   4.902  1.0748  2.0623  0.4982
  135MOL    H7535183   5.323   7.225   5.176 -1.3256  0.6570  2.2734
  135MOL    H7635184   5.299   7.371   5.087  0.0863  0.0185  0.2906
  135MOL    H7735185   5.298   7.433   5.317 -0.3366  1.4956 -0.2664
  135MOL    H7835186   5.434   7.344   5.365 -1.2592  2.5866  1.4841
  135MOL    H7935187   5.463   7.483   5.261  0.0502  0.5272  1.3474
  135MOL    C8035188   5.445   7.151   4.899 -0.0441  0.4438  0.3831
  135MOL    C8135189   5.346   7.148   4.779  0.1111  0.1430 -0.5792
  135MOL    O8235190   5.224   7.213   4.814  0.0343  0.4035  0.6141
  135MOL    C8335191   5.156   7.284   4.710 -0.6803  0.2680 -0.1573
  135MOL    C8435192   5.023   7.326   4.777 -0.2693  0.6044  0.5110
  135MOL    H8535193   5.409   7.094   4.985 -1.3918 -0.8439 -1.0275
  135MOL    H8635194   5.539   7.111   4.862 -1.5821 -2.5183 -0.4123
  135MOL    H8735195   5.378   7.183   4.681  1.7092 -0.5974 -0.3437
  135MOL    H8835196   5.140   7.213   4.629  0.0865  0.7082 -0.6996
  135MOL    H8935197   5.207   7.371   4.669 -0.7877  0.4237  0.0384
  135MOL    H9035198   4.972   7.237   4.815  0.0340 -1.6032 -3.8564
  135MOL    H9135199   5.032   7.402   4.854 -1.0589  0.9318  0.2924
  135MOL    H9235200   4.952   7.360   4.702  0.6665 -0.6468 -0.9850
  135MOL    C9335201   5.315   6.999   4.756  0.4260  0.3573  0.7673
  135MOL    C9435202   5.414   6.916   4.660  0.6490  0.4309  0.5075
  135MOL    O9535203   5.346   6.907   4.532  1.1308 -0.0560 -0.4570
  135MOL    C9635204   5.432   6.901   4.417  0.0093  0.1309  0.4915
  135MOL    C9735205   5.477   7.039   4.380  0.4438  0.2537  0.5848
  135MOL    H9835206   5.216   6.986   4.711  1.6060 -2.0896 -1.2830
  135MOL    H9935207   5.307   6.948   4.852  1.5687  0.2218  0.7961
  135MOL   H10035208   5.493   6.983   4.627  1.8196 -1.4016 -0.4828
  135MOL   H10135209   5.370   6.866   4.334 -0.4304 -1.4207  1.4506
  135MOL   H10235210   5.518   6.836   4.434  0.0516  0.1469  0.3396
  135MOL   H10335211   5.386   7.094   4.355  0.7172 -0.4548 -2.1076
  135MOL   H10435212   5.542   7.088   4.452 -1.9605  1.7343  1.7793
  135MOL   H10535213   5.537   7.046   4.289  2.6524  2.7709  2.1459
  135MOL   C10635214   5.464   6.782   4.711  0.3709 -0.1869  0.3416
  135MOL   C10735215   5.342   6.693   4.743  0.0590  0.1459 -0.1085
  135MOL   O10835216   5.387   6.573   4.812 -0.0566 -0.3665 -0.3332
  135MOL   C10935217   5.389   6.584   4.953 -0.4554 -0.0456 -0.7352
  135MOL   C11035218   5.247   6.562   5.012  0.6693 -0.0580  0.4245
  135MOL   H11135219   5.513   6.795   4.807 -0.3828 -0.4533  0.7713
  135MOL   H11235220   5.539   6.732   4.650  0.8309  1.8806 -0.8279
  135MOL   H11335221   5.266   6.747   4.800  1.3183  1.4810  0.3156
  135MOL   H11435222   5.410   6.689   4.973  1.7192 -1.0761  2.8047
  135MOL   H11535223   5.461   6.520   5.003 -1.1074 -0.1314  0.1138
  135MOL   H11635224   5.204   6.472   4.969 -0.9333  0.7619  0.2523
  135MOL   H11735225   5.265   6.543   5.117  0.3569  1.9859  0.8793
  135MOL   H11835226   5.191   6.652   4.984  2.6696  0.1904 -3.1544
  135MOL   C11935227   5.281   6.618   4.625 -0.9684 -0.8842 -0.5337
  135MOL   C12035228   5.147   6.552   4.653  0.4683 -0.6204  0.1851
  135MOL   O12135229   5.116   6.483   4.534  0.4381 -0.0975  0.5348
  135MOL   C12235230   5.075   6.348   4.556 -0.6446  0.5362 -0.0626
  135MOL   C12335231   5.003   6.292   4.432 -0.8488 -0.1159 -0.0764
  135MOL   H12435232   5.358   6.550   4.588 -0.2550 -0.0409 -0.6190
  135MOL   H12535233   5.269   6.690   4.544  0.8284 -2.4189 -2.2247
  135MOL   H12635234   5.157   6.475   4.729 -3.4817 -1.0850  0.3333
  135MOL   H12735235   4.992   6.359   4.626 -1.5209  1.4317 -1.2228
  135MOL   H12835236   5.155   6.287   4.598 -1.0448  0.7542  1.0321
  135MOL   H12935237   4.962   6.197   4.468  1.6476 -1.7513 -1.4057
  135MOL   H13035238   4.923   6.361   4.407 -1.2485 -0.9866 -1.2532
  135MOL   H13135239   5.069   6.272   4.347  0.2321 -0.1504  0.7570
  135MOL   C13235240   5.017   6.640   4.682 -0.4126 -0.1607  0.2574
  135MOL   C13335241   5.001   6.764   4.588  0.0711  0.0030  0.0391
  135MOL   O13435242   4.892   6.838   4.648  0.1898  0.0720 -0.1936
  135MOL   C13535243   4.925   6.936   4.744  0.6363 -0.2629 -0.6847
  135MOL   C13635244   4.800   6.999   4.796 -0.2856 -0.0851  0.5165
  135MOL   H13735245   5.032   6.682   4.781  0.8645  0.4351 -0.1802
  135MOL   H13835246   4.932   6.574   4.697  0.3138 -1.0524  0.5337
  135MOL   H13935247   5.094   6.819   4.587  0.8576 -1.3151 -0.4238
  135MOL   H14035248   4.997   7.013   4.715  1.1296 -0.8673 -1.0960
  135MOL   H14135249   4.973   6.893   4.832  0.5054  0.3399 -0.3204
  135MOL   H14235250   4.744   7.044   4.714 -0.7316 -1.4382  0.0635
  135MOL   H14335251   4.729   6.930   4.841  0.6992 -1.0201  0.6459
  135MOL   H14435252   4.827   7.077   4.867  1.8099  0.4604 -0.8454
  135MOL   C14535253   4.962   6.727   4.442  0.2317 -0.5878 -0.4746
  135MOL   C14635254   4.943   6.858   4.349 -0.2435  0.4044  0.3257
  135MOL   O14735255   4.886   6.810   4.224 -0.2332 -0.5055 -0.6021
  135MOL   C14835256   4.749   6.817   4.222  0.0438  0.4863 -0.1764
  135MOL   C14935257   4.691   6.711   4.123 -0.0512  0.8106  0.0258
  135MOL   H15035258   4.874   6.663   4.435 -1.4634  1.2763  2.7045
  135MOL   H15135259   5.040   6.674   4.387  0.9530  0.4132 -0.4295
  135MOL   H15235260   4.880   6.931   4.398 -0.3881 -0.3324  1.2401
  135MOL   H15335261   4.719   6.917   4.188 -1.2477  0.2491  0.2218
  135MOL   H15435262   4.720   6.791   4.323  1.4760  1.3347  0.4580
  135MOL   H15535263   4.701   6.757   4.025  0.4040 -0.0175 -0.3128
  135MOL   H15635264   4.738   6.614   4.118  0.0912  0.9350 -1.0284
  135MOL   H15735265   4.583   6.708   4.142 -0.0792  1.2214 -0.0459
  135MOL   C15835266   5.081   6.912   4.296  0.1952 -0.4525 -0.1357
  135MOL   C15935267   5.067   7.038   4.201 -0.2762 -1.2410 -0.0820
  135MOL   O16035268   5.182   7.098   4.151  0.0964 -0.5161 -0.5217
  135MOL   C16135269   5.257   7.015   4.063 -0.1415  0.0225  0.3959
  135MOL   C16235270   5.365   7.113   4.027  0.0592 -0.3433 -0.2288
  135MOL   H16335271   5.126   6.831   4.239  0.0404  0.4889 -1.6052
  135MOL   H16435272   5.145   6.935   4.382 -1.1484 -0.2523  0.8241
  135MOL   H16535273   4.998   7.025   4.117  1.4916  2.2278 -2.1583
  135MOL   H16635274   5.197   7.009   3.972 -1.3001  0.1735  1.1400
  135MOL   H16735275   5.288   6.917   4.100 -1.9916 -0.8297 -0.2799
  135MOL   H16835276   5.323   7.198   3.974 -0.0717 -0.9716 -1.1524
  135MOL   H16935277   5.411   7.147   4.119  0.6273 -2.2200  0.2102
  135MOL   H17035278   5.437   7.062   3.963  1.7375 -0.3597  1.6367
  135MOL   C17135279   5.018   7.169   4.284  0.6142 -0.0185  0.4428
  135MOL   C17235280   4.955   7.290   4.212  1.1715  0.4197 -0.2807
  135MOL   O17335281   4.902   7.375   4.312 -0.4911  0.4053  0.2320
  135MOL   C17435282   4.941   7.510   4.295  0.1944 -0.3115 -0.1286
  135MOL   C17535283   4.877   7.588   4.409 -0.1438  0.7744  1.0745
  135MOL   H17635284   5.097   7.197   4.353 -1.1215 -0.3089  2.6134
  135MOL   H17735285   4.933   7.130   4.341  2.2904 -0.8268  2.4745
  135MOL   H17835286   5.030   7.347   4.157 -0.4553  3.2145  0.2969
  135MOL   H17935287   4.913   7.549   4.197 -1.0101 -1.6922 -0.3517
  135MOL   H18035288   5.049   7.522   4.298  0.0988  0.8003 -0.6711
  135MOL   H18135289   4.783   7.536   4.432  0.1520 -0.8258 -1.1377
  135MOL   H18235290   4.938   7.580   4.499  0.7156 -0.5590  0.3856
  135MOL   H18335291   4.854   7.685   4.365 -0.9915 -0.5955 -1.6081
  135MOL   C18435292   4.842   7.255   4.113  0.1388  0.0938 -0.2044
  135MOL   C18535293   4.888   7.213   3.975 -0.5841 -0.0394  0.6802
  135MOL   O18635294   4.897   7.324   3.888  0.0578 -0.5207  0.6054
  135MOL   C18735295   5.019   7.340   3.816  0.1659 -0.6074 -0.2156
  135MOL   C18835296   4.993   7.460   3.715 -0.4649  0.1597 -0.8160
  135MOL   H18935297   4.775   7.337   4.085  1.8010  1.6076  0.2039
  135MOL   H19035298   4.776   7.180   4.157  1.7691 -0.0849  1.9686
  135MOL   H19135299   4.986   7.168   3.963 -0.7357  0.3317 -2.2726
  135MOL   H19235300   5.045   7.249   3.762  1.3766 -0.4277  0.0275
  135MOL   H19335301   5.100   7.354   3.888 -0.5572  1.7650  0.2023
  135MOL   H19435302   5.088   7.473   3.663  0.4462 -3.3032 -0.1572
  135MOL   H19535303   4.910   7.452   3.646 -0.6963  1.1298 -0.6563
  135MOL   H19635304   4.976   7.554   3.767  3.0500  1.3999 -1.8152
  135MOL   C19735305   4.789   7.110   3.906  0.3315 -0.4143 -0.1559
  135MOL   C19835306   4.645   7.161   3.885  0.5034 -0.3079  0.3683
  135MOL   O19935307   4.548   7.054   3.869 -0.7809  0.1968  0.6987
  135MOL   C20035308   4.459   7.043   3.976  0.2502  0.0103  0.6354
  135MOL   C20135309   4.335   6.968   3.926 -0.1972  0.4353  0.1611
  135MOL   H20235310   4.781   7.012   3.953  1.4566  0.3993  1.7546
  135MOL   H20335311   4.840   7.078   3.815  2.1642  1.1995  0.2867
  135MOL   H20435312   4.609   7.227   3.964  0.6888 -0.0377  0.2280
  135MOL   H20535313   4.422   7.137   4.017  0.0863  0.6365 -0.9134
  135MOL   H20635314   4.509   6.992   4.059  1.5150  0.9789  0.4850
  135MOL   H20735315   4.261   7.031   3.876  0.0014  0.8507  0.3818
  135MOL   H20835316   4.361   6.894   3.850 -0.7528 -0.4833  0.8569
  135MOL   H20935317   4.280   6.904   3.995 -2.6115  3.0560  0.7539
  135MOL   C21035318   4.633   7.245   3.764  0.3118 -0.4243  0.3154
  135MOL   C21135319   4.489   7.284   3.725 -0.7342 -0.3427  0.8316
  135MOL   O21235320   4.502   7.364   3.600 -0.1591  0.3975  0.4719
  135MOL   C21335321   4.509   7.289   3.476 -0.1302 -0.1077 -0.9150
  135MOL   C21435322   4.519   7.392   3.369  0.7153  0.4036 -0.2185
  135MOL   H21535323   4.682   7.196   3.680 -1.0717 -0.5147 -0.4491
  135MOL   H21635324   4.685   7.338   3.789  1.6163 -0.5192 -1.9309
  135MOL   H21735325   4.428   7.198   3.701  0.4634 -0.9265 -0.1846
  135MOL   H21835326   4.420   7.231   3.450  0.9448 -1.4302 -1.6422
  135MOL   H21935327   4.585   7.212   3.485 -0.0265 -0.0821 -1.5422
  135MOL   H22035328   4.624   7.416   3.356  0.8181  0.4016  0.5894
  135MOL   H22135329   4.499   7.352   3.270  1.8350  0.2490 -0.3831
  135MOL   H22235330   4.462   7.484   3.387  0.2040 -0.1779  1.1653
  135MOL   C22335331   4.404   7.368   3.825 -0.4737 -0.2055  0.5069
  135MOL   C22435332   4.278   7.430   3.769 -0.5457 -0.8972 -1.0149
  135MOL   O22535333   4.194   7.475   3.877 -0.3142  0.8764 -0.0598
  135MOL   C22635334   4.174   7.613   3.900 -0.4343 -0.2417  0.8728
  135MOL   C22735335   4.270   7.686   3.993  0.6880  0.1771 -0.3681
  135MOL   H22835336   4.465   7.453   3.856  1.4739 -0.5622 -2.1422
  135MOL   H22935337   4.384   7.309   3.914  0.0898 -0.2004  0.6417
  135MOL   H23035338   4.306   7.511   3.702 -1.5268 -1.1432 -1.7326
  135MOL   H23135339   4.077   7.640   3.941 -0.9477 -0.6741 -0.0200
  135MOL   H23235340   4.162   7.663   3.803 -2.6625 -2.5248 -0.0841
  135MOL   H23335341   4.373   7.675   3.960  0.0797  1.3476 -2.7713
  135MOL   H23435342   4.236   7.790   3.994 -1.8323 -0.5952 -0.6758
  135MOL   H23535343   4.257   7.650   4.095  0.6782  0.5433 -0.2386
  135MOL   C23635344   4.197   7.323   3.691 -0.5185 -0.0170  0.2476
  135MOL   C23735345   4.053   7.374   3.649 -0.4671  0.2328 -0.2262
  135MOL   O23835346   3.976   7.262   3.600  0.8052 -0.4428 -0.7555
  135MOL   C23935347   3.902   7.175   3.694  0.1968 -0.3845 -0.0096
  135MOL   C24035348   3.811   7.078   3.618  0.2675  0.6868  0.7675
  135MOL   H24135349   4.191   7.236   3.756 -0.1137  0.3605  0.7933
  135MOL   H24235350   4.247   7.288   3.601  0.5153 -0.2172  0.8909
  135MOL   H24335351   3.996   7.404   3.737  0.5665 -2.1627  1.2926
  135MOL   H24435352   3.846   7.249   3.751  0.5610  0.8995 -1.2638
  135MOL   H24535353   3.964   7.118   3.764 -0.7266  0.1995  1.2966
  135MOL   H24635354   3.729   7.134   3.572  0.0575 -1.4010 -1.4603
  135MOL   H24735355   3.862   7.017   3.544  0.3395 -0.6841  1.9309
  135MOL   H24835356   3.767   7.013   3.694 -1.1981 -0.8267 -1.3311
  135MOL   C24935357   4.053   7.471   3.533 -0.3005  0.1788  0.0541
  135MOL   C25035358   3.909   7.495   3.478  0.4133  0.8387 -0.0315
  135MOL   O25135359   3.899   7.621   3.415 -0.4060  0.0638 -0.1592
  135MOL   C25235360   3.777   7.641   3.341  1.0167 -0.6881 -0.6331
  135MOL   C25335361   3.764   7.792   3.322  1.0084  0.5179  0.1044
  135MOL   H25435362   4.117   7.449   3.447  0.8234 -2.0065  1.4303
  135MOL   H25535363   4.094   7.561   3.578 -2.8840  1.5296 -0.1537
  135MOL   H25635364   3.873   7.408   3.423 -0.1722  0.3920  1.0498
  135MOL   H25735365   3.690   7.608   3.397  1.3160 -0.7527 -0.2023
  135MOL   H25835366   3.769   7.591   3.244 -1.4327  0.1620 -0.8799
  135MOL   H25935367   3.735   0.001   3.414  1.1257  1.9360 -0.6487
  135MOL   H26035368   3.860   7.833   3.293  0.8088  2.1198  1.5899
  135MOL   H26135369   3.689   7.816   3.247 -0.3721  0.7501  1.5219
  135MOL   H26235370   3.843   7.497   3.565 -0.4690  1.1409 -0.6944
  136MOL     C135371   5.649   2.319   6.088 -0.0198 -0.4652 -0.5534
  136MOL     C235372   5.738   2.227   6.183  0.4337  0.5225  0.4241
  136MOL     O335373   5.697   2.087   6.153 -0.1808 -0.3748  0.0385
  136MOL     C435374   5.746   2.038   6.030  0.5186  0.2074 -0.2321
  136MOL     C535375   5.726   1.883   6.028 -0.6801  0.3266 -0.5484
  136MOL     H635376   5.666   2.292   5.984 -0.0722  0.2335 -0.7459
  136MOL     H735377   5.545   2.293   6.106 -0.0625  0.6344  0.8918
  136MOL     H835378   5.842   2.235   6.153  0.0788  1.8737 -0.4992
  136MOL     H935379   5.851   2.061   6.010  0.4630  1.0971  0.4685
  136MOL    H1035380   5.704   2.083   5.940  0.5094 -0.6182 -0.6407
  136MOL    H1135381   5.733   1.840   6.128  1.6094  1.5348 -0.1553
  136MOL    H1235382   5.630   1.859   5.982 -0.0114 -1.2657 -1.1130
  136MOL    H1335383   5.805   1.847   5.963 -0.5792  3.1080 -2.0644
  136MOL    H1435384   5.666   2.426   6.093  1.6574 -0.6966 -0.9628
  136MOL    C1535385   5.726   2.273   6.331  0.2522  0.1247 -0.4948
  136MOL    C1635386   5.832   2.220   6.431 -0.1755 -0.2081 -0.4797
  136MOL    O1735387   5.796   2.255   6.563  0.1645  0.0426  0.6160
  136MOL    C1835388   5.691   2.187   6.631 -0.1439  0.0822  0.1718
  136MOL    C1935389   5.678   2.220   6.780 -0.5782 -0.2634 -0.8922
  136MOL    H2035390   5.627   2.244   6.366 -0.3160  3.2659  0.6474
  136MOL    H2135391   5.725   2.382   6.335 -3.6869  0.1597 -0.4127
  136MOL    H2235392   5.832   2.111   6.424  1.3804 -0.1365 -1.9541
  136MOL    H2335393   5.698   2.079   6.616 -1.8369 -0.4255  2.7630
  136MOL    H2435394   5.597   2.217   6.584  1.8342  1.7779 -2.8744
  136MOL    H2535395   5.773   2.213   6.832 -0.9286  1.0151 -0.0588
  136MOL    H2635396   5.605   2.154   6.826  0.7612 -0.1076  1.4995
  136MOL    H2735397   5.654   2.326   6.790 -0.2078 -0.2916  0.3200
  136MOL    C2835398   5.968   2.273   6.418 -0.5304 -0.2172 -0.2001
  136MOL    C2935399   6.082   2.214   6.515  0.0694  0.1159  0.3582
  136MOL    O3035400   6.214   2.280   6.488 -0.6160  1.0264 -0.0519
  136MOL    C3135401   6.302   2.298   6.602 -0.1627  0.5934 -0.1118
  136MOL    C3235402   6.436   2.346   6.562 -0.3311  0.0074  0.4401
  136MOL    H3335403   5.954   2.378   6.442 -2.3595 -0.4045 -0.3929
  136MOL    H3435404   6.002   2.278   6.314 -4.9694 -2.1528 -1.8954
  136MOL    H3535405   6.055   2.263   6.609 -0.6958  0.0259  0.1875
  136MOL    H3635406   6.319   2.204   6.654  2.3204  1.8827  1.4830
  136MOL    H3735407   6.255   2.366   6.673  0.6494  0.9964  0.0420
  136MOL    H3835408   6.500   2.293   6.490 -0.2758 -0.1241  0.5841
  136MOL    H3935409   6.439   2.453   6.541 -0.8812  0.0746  0.7038
  136MOL    H4035410   6.493   2.346   6.655  1.6717  1.7273 -0.7494
  136MOL    C4135411   6.097   2.055   6.514  0.2503 -0.2131  0.8762
  136MOL    C4235412   6.144   1.991   6.387  0.1286 -0.7257  0.4055
  136MOL    O4335413   6.105   1.857   6.376 -0.4963  0.0116  0.3875
  136MOL    C4435414   5.982   1.812   6.316 -0.6675 -0.6224 -0.3169
  136MOL    C4535415   5.961   1.663   6.349  0.0692 -0.4719 -0.2738
  136MOL    H4635416   6.003   2.010   6.546  1.0194 -1.4585  1.4001
  136MOL    H4735417   6.168   2.027   6.592  1.8651 -0.8424 -0.7842
  136MOL    H4835418   6.092   2.042   6.306 -0.2523 -0.5674  0.7476
  136MOL    H4935419   5.988   1.812   6.207 -1.2989 -2.1877 -0.3585
  136MOL    H5035420   5.893   1.871   6.340 -0.7569 -0.0906 -1.8787
  136MOL    H5135421   5.955   1.638   6.455 -0.1262 -2.0111 -0.6394
  136MOL    H5235422   5.879   1.625   6.288 -2.0049  1.6787  1.0440
  136MOL    H5335423   6.037   1.605   6.298  0.8237 -0.8995  1.3209
  136MOL    C5435424   6.295   2.001   6.361 -0.4045 -0.7062  0.4656
  136MOL    C5535425   6.351   1.933   6.230  0.7905  0.0191 -0.1694
  136MOL    O5635426   6.492   1.937   6.217  0.3225 -0.4187  0.3313
  136MOL    C5735427   6.568   1.888   6.330  0.3190 -0.3780 -0.1843
  136MOL    C5835428   6.693   1.825   6.276 -0.0585 -0.3279 -0.0346
  136MOL    H5935429   6.349   1.964   6.447  0.2607  1.7327  1.1349
  136MOL    H6035430   6.325   2.105   6.370  2.7952 -1.7803  3.0669
  136MOL    H6135431   6.321   1.828   6.239  1.5811 -0.0747  1.4816
  136MOL    H6235432   6.513   1.818   6.394 -0.7309  1.9971  1.5697
  136MOL    H6335433   6.586   1.979   6.387  0.5470 -0.3058 -0.3725
  136MOL    H6435434   6.676   1.754   6.195  0.2027 -2.2619  1.5716
  136MOL    H6535435   6.767   1.895   6.237  0.3637 -1.4020 -1.2069
  136MOL    H6635436   6.739   1.757   6.347  0.3819 -2.3340 -2.1816
  136MOL    C6735437   6.296   1.981   6.093 -0.4062  0.6250 -0.2141
  136MOL    C6835438   6.349   1.891   5.964  0.5315  0.0735 -0.3272
  136MOL    O6935439   6.310   1.949   5.840 -0.1743  0.5618 -0.3549
  136MOL    C7035440   6.346   2.086   5.820 -0.0969 -0.9394  0.4519
  136MOL    C7135441   6.371   2.126   5.670  0.2884 -0.2493 -0.0959
  136MOL    H7235442   6.330   2.084   6.078 -0.2571  0.5856 -0.1523
  136MOL    H7335443   6.188   1.966   6.087 -0.2568 -0.9116  0.7065
  136MOL    H7435444   6.458   1.893   5.965  0.5174  0.5080  1.5805
  136MOL    H7535445   6.431   2.119   5.880  0.7466 -0.4186 -0.9734
  136MOL    H7635446   6.266   2.153   5.852  1.3815  2.4729 -2.5284
  136MOL    H7735447   6.380   2.235   5.664 -2.1726 -0.1272 -2.1960
  136MOL    H7835448   6.458   2.069   5.639  2.2454  3.0174 -0.8228
  136MOL    H7935449   6.282   2.111   5.609 -0.0218 -2.9226  0.9292
  136MOL    C8035450   6.281   1.743   5.969  0.4838 -0.5519  0.1796
  136MOL    C8135451   6.331   1.641   5.873  0.2611 -0.4279  0.1561
  136MOL    O8235452   6.279   1.657   5.740 -0.0394 -0.1406  0.1831
  136MOL    C8335453   6.378   1.698   5.647 -0.0459 -0.3250  0.0900
  136MOL    C8435454   6.331   1.697   5.503 -0.3663 -0.4432  0.4155
  136MOL    H8535455   6.172   1.751   5.979  0.3643  0.3038 -1.5576
  136MOL    H8635456   6.302   1.692   6.063  0.7461 -2.7668 -1.0461
  136MOL    H8735457   6.440   1.636   5.878  0.3674  0.2452 -1.0995
  136MOL    H8835458   6.457   1.623   5.644 -0.3747 -0.6390 -1.2213
  136MOL    H8935459   6.419   1.795   5.672 -2.0686  0.8130 -0.9014
  136MOL    H9035460   6.413   1.706   5.432 -0.2839 -1.5168  0.3654
  136MOL    H9135461   6.287   1.600   5.479  1.7376 -1.1678 -0.6026
  136MOL    H9235462   6.258   1.773   5.477 -0.8547 -1.3334 -0.8813
  136MOL    C9335463   6.287   1.502   5.928 -0.1561 -0.1758  0.8586
  136MOL    C9435464   6.375   1.449   6.033 -0.4911  0.0517  0.0654
  136MOL    O9535465   6.506   1.418   5.976  0.1783  0.1162  0.3001
  136MOL    C9635466   6.616   1.486   6.038 -0.4543  0.3934  0.1234
  136MOL    C9735467   6.680   1.415   6.156  0.6683 -0.1502  0.8769
  136MOL    H9835468   6.292   1.442   5.837  0.2868  2.1012 -0.6864
  136MOL    H9935469   6.180   1.499   5.948 -0.8543  2.5092 -1.9737
  136MOL   H10035470   6.388   1.508   6.124 -1.0457 -1.2493  0.9974
  136MOL   H10135471   6.584   1.585   6.072  1.1102  0.4845  1.4066
  136MOL   H10235472   6.697   1.495   5.966  1.7069 -0.5679  2.3566
  136MOL   H10335473   6.734   1.324   6.131  0.0534 -0.3143  0.1231
  136MOL   H10435474   6.754   1.483   6.197  3.0623 -1.5728 -0.9386
  136MOL   H10535475   6.616   1.393   6.241  0.3036 -0.1141  0.6141
  136MOL   C10635476   6.310   1.320   6.083 -0.4270  0.2280  0.0024
  136MOL   C10735477   6.220   1.335   6.209 -0.1082  0.4014  0.5944
  136MOL   O10835478   6.306   1.345   6.327 -0.1817 -0.5549 -0.0710
  136MOL   C10935479   6.265   1.445   6.416 -0.1111 -0.1072 -0.3756
  136MOL   C11035480   6.358   1.445   6.540 -0.1625 -0.6837  0.6001
  136MOL   H11135481   6.385   1.245   6.107 -0.3472 -0.5560 -2.5839
  136MOL   H11235482   6.253   1.271   6.004 -0.0245  0.0754 -0.1891
  136MOL   H11335483   6.166   1.429   6.197  0.3387  0.7724  1.4115
  136MOL   H11435484   6.165   1.426   6.454 -0.5152  0.7250 -0.9934
  136MOL   H11535485   6.253   1.541   6.365 -0.7026 -0.2418 -0.4944
  136MOL   H11635486   6.448   1.472   6.485 -1.1551  0.0519 -0.6930
  136MOL   H11735487   6.341   1.504   6.630  0.1713 -1.6713  1.3168
  136MOL   H11835488   6.358   1.344   6.580  0.4513 -0.5471  0.9493
  136MOL   C11935489   6.123   1.216   6.234  0.2174 -0.4210  0.4950
  136MOL   C12035490   6.018   1.206   6.118 -1.1595 -0.6675 -0.1000
  136MOL   O12135491   5.964   1.333   6.105  0.1175 -0.4884 -0.3720
  136MOL   C12235492   5.896   1.366   5.984 -0.5039 -0.0288 -0.8827
  136MOL   C12335493   5.823   1.503   5.989  0.4684 -1.3234 -0.0548
  136MOL   H12435494   6.068   1.252   6.321  2.2114  2.4886  0.6193
  136MOL   H12535495   6.178   1.124   6.254  0.7767 -0.3236 -0.6064
  136MOL   H12635496   6.052   1.168   6.021  0.4846 -3.0341  1.3561
  136MOL   H12735497   5.835   1.282   5.950  0.9883 -1.6447  0.3115
  136MOL   H12835498   5.979   1.383   5.916  0.9407 -0.9947  0.6254
  136MOL   H12935499   5.888   1.590   6.006 -1.1826 -0.4585  2.1944
  136MOL   H13035500   5.769   1.520   5.896  3.3845 -1.5789 -1.8449
  136MOL   H13135501   5.746   1.510   6.067 -0.4006 -1.2325 -0.9135
  136MOL   C13235502   5.907   1.109   6.152  0.1835 -0.1028 -0.2003
  136MOL   C13335503   5.949   0.960   6.128 -0.2695 -0.2739 -0.2336
  136MOL   O13435504   5.973   0.945   5.991  0.0490 -0.3710 -0.0788
  136MOL   C13535505   6.068   0.850   5.953 -1.6063  0.1324 -0.1400
  136MOL   C13635506   6.210   0.898   5.945 -0.0465 -0.4127  0.1636
  136MOL   H13735507   5.807   1.136   6.116 -0.1411 -1.1623 -0.1201
  136MOL   H13835508   5.895   1.122   6.260  2.5343 -1.2281  0.2307
  136MOL   H13935509   6.043   0.948   6.180 -0.0600 -0.7937 -0.7253
  136MOL   H14035510   6.044   0.810   5.854 -0.3347 -2.2078  0.4576
  136MOL   H14135511   6.064   0.763   6.019 -0.6427 -0.0843 -0.3563
  136MOL   H14235512   6.217   0.952   5.851  0.1530 -0.1215  0.3401
  136MOL   H14335513   6.243   0.956   6.032  0.0128  0.8111 -0.6671
  136MOL   H14435514   6.284   0.820   5.931  0.0989 -0.7899  2.7085
  136MOL   C14535515   5.851   0.857   6.191 -0.3206  0.0942 -0.5880
  136MOL   C14635516   5.843   0.861   6.347  0.0745  0.4931  0.8666
  136MOL   O14735517   5.973   0.825   6.382 -0.0284  0.4800 -0.3421
  136MOL   C14835518   6.023   0.899   6.491  0.4695  0.1856 -0.0377
  136MOL   C14935519   6.159   0.845   6.530  0.3762 -0.1148  0.2443
  136MOL   H15035520   5.873   0.754   6.165  1.2836 -0.1119  1.5097
  136MOL   H15135521   5.749   0.882   6.160 -1.4728 -1.0358  2.1790
  136MOL   H15235522   5.808   0.953   6.394 -1.6908  0.2469  0.0747
  136MOL   H15335523   5.946   0.891   6.568  0.3701  0.1609 -0.1390
  136MOL   H15435524   6.035   1.003   6.458 -1.5351  1.0717  1.8924
  136MOL   H15535525   6.230   0.841   6.447 -1.8760  0.9725 -1.8012
  136MOL   H15635526   6.211   0.906   6.603  1.2571 -0.1792 -0.3134
  136MOL   H15735527   6.144   0.746   6.572  2.1552 -0.5238 -0.0538
  136MOL   C15835528   5.757   0.742   6.403  0.1558  0.3384 -0.5922
  136MOL   C15935529   5.604   0.761   6.420  0.6306  0.1508 -0.4898
  136MOL   O16035530   5.589   0.878   6.505  0.5694 -0.2603 -0.3087
  136MOL   C16135531   5.492   0.977   6.476  0.0452  0.1133  0.0744
  136MOL   C16235532   5.343   0.932   6.489 -0.3386  0.7114  0.2408
  136MOL   H16335533   5.806   0.710   6.495  0.7836 -0.0851 -1.0685
  136MOL   H16435534   5.772   0.656   6.337 -2.6203 -0.3561 -0.3943
  136MOL   H16535535   5.571   0.796   6.322  1.6230  0.6702 -0.6482
  136MOL   H16635536   5.501   1.019   6.376 -0.4803 -2.8387 -1.2486
  136MOL   H16735537   5.520   1.055   6.547  0.9372  0.0815 -0.2375
  136MOL   H16835538   5.312   0.870   6.405 -0.2624  0.8312  0.1246
  136MOL   H16935539   5.322   0.877   6.581  2.7950 -1.0628 -0.0375
  136MOL   H17035540   5.296   1.030   6.498  0.0117  0.7962  1.3105
  136MOL   C17135541   5.522   0.635   6.470 -0.0320  0.6364 -0.2388
  136MOL   C17235542   5.505   0.521   6.360  0.1369 -0.5655  0.4502
  136MOL   O17335543   5.458   0.580   6.237 -0.4142 -0.7086 -0.3780
  136MOL   C17435544   5.496   0.514   6.117  0.8297  0.1059  0.0428
  136MOL   C17535545   5.451   0.608   6.006  0.0769  0.0821 -0.0767
  136MOL   H17635546   5.424   0.668   6.505 -0.1050  0.4289 -0.2486
  136MOL   H17735547   5.572   0.591   6.556 -0.4299 -0.5844 -0.6265
  136MOL   H17835548   5.594   0.464   6.333  1.4934  2.5112 -1.8133
  136MOL   H17935549   5.460   0.411   6.118  0.6578  0.1700  0.9096
  136MOL   H18035550   5.603   0.501   6.106  0.6072 -0.9732 -0.9446
  136MOL   H18135551   5.463   0.568   5.905  1.9403 -2.8326  1.2272
  136MOL   H18235552   5.345   0.633   6.011  0.1573  0.2673  0.8518
  136MOL   H18335553   5.506   0.702   6.018 -0.2210  0.2630 -0.0961
  136MOL   C18435554   5.402   0.426   6.396  0.7930 -0.0455  0.4805
  136MOL   C18535555   5.428   0.337   6.519 -0.6130  0.0888 -0.5848
  136MOL   O18635556   5.531   0.245   6.485 -0.1650 -0.1171  0.1032
  136MOL   C18735557   5.588   0.177   6.600  0.4920  0.0397  0.1322
  136MOL   C18835558   5.692   0.081   6.547 -0.3559  0.0244  0.5728
  136MOL   H18935559   5.400   0.344   6.324  1.5840 -0.1856  0.6110
  136MOL   H19035560   5.305   0.474   6.402 -0.2976 -2.0788 -0.2515
  136MOL   H19135561   5.462   0.393   6.606 -1.7293  0.5781 -0.4622
  136MOL   H19235562   5.520   0.127   6.668 -1.1678 -0.0996 -1.5946
  136MOL   H19335563   5.636   0.261   6.651  1.4888 -0.8490  0.6933
  136MOL   H19435564   5.646   0.006   6.482  2.0101 -0.0359 -1.1220
  136MOL   H19535565   5.764   0.128   6.479  0.6614 -0.8356  1.0441
  136MOL   H19635566   5.744   0.045   6.635  0.3908 -1.7121 -0.5530
  136MOL   C19735567   5.296   0.251   6.556 -0.3620  0.6627 -0.8696
  136MOL   C19835568   5.166   0.319   6.594  0.6484  0.0996 -0.5983
  136MOL   O19935569   5.192   0.393   6.712 -0.3302  0.0459  0.3135
  136MOL   C20035570   5.218   0.535   6.699  0.6583 -0.2152  0.1262
  136MOL   C20135571   5.203   0.599   6.837 -0.4553 -0.6926  0.1041
  136MOL   H20235572   5.320   0.195   6.647  1.4400  1.3520 -0.9047
  136MOL   H20335573   5.273   0.179   6.478 -3.6695  1.3914 -0.6431
  136MOL   H20435574   5.128   0.390   6.520  0.2258 -0.0819 -0.5534
  136MOL   H20535575   5.147   0.569   6.623  1.2480 -0.4020 -0.5077
  136MOL   H20635576   5.320   0.548   6.664  1.6192 -2.8905  1.7908
  136MOL   H20735577   5.219   0.705   6.817  1.1978 -0.7452  0.9997
  136MOL   H20835578   5.099   0.594   6.870 -1.7028  1.5685 -3.2372
  136MOL   H20935579   5.277   0.552   6.902 -1.3670 -2.0857  0.1658
  136MOL   C21035580   5.048   0.216   6.632  0.5792  0.0040 -0.0806
  136MOL   C21135581   4.908   0.285   6.653  0.6547 -0.0365  0.6025
  136MOL   O21235582   4.926   0.378   6.754  0.3698 -0.1913 -0.2898
  136MOL   C21335583   4.823   0.480   6.776  0.2332 -0.3952  0.3416
  136MOL   C21435584   4.800   0.526   6.919  0.6798 -0.6599 -0.0809
  136MOL   H21535585   5.072   0.168   6.727  0.6869  0.0430 -0.0877
  136MOL   H21635586   5.042   0.136   6.558 -0.1615  1.4370 -1.6059
  136MOL   H21735587   4.877   0.326   6.557 -3.1722  0.7266  2.0463
  136MOL   H21835588   4.727   0.438   6.747 -0.3205  1.4980 -0.6298
  136MOL   H21935589   4.834   0.572   6.719 -0.0097  0.4549  1.6388
  136MOL   H22035590   4.763   0.447   6.985  0.1889  0.7058  1.2957
  136MOL   H22135591   4.886   0.565   6.974 -0.3878 -2.2211  2.8576
  136MOL   H22235592   4.728   0.607   6.914  0.2302 -1.0094  0.5838
  136MOL   C22335593   4.790   0.186   6.694  0.1217 -0.9684  0.4949
  136MOL   C22435594   4.775   0.056   6.608  0.1738 -0.0274  0.6224
  136MOL   O22535595   4.694   0.089   6.493 -0.0525 -0.4145 -0.0240
  136MOL   C22635596   4.758   0.132   6.379  0.0396  0.2778  0.3397
  136MOL   C22735597   4.645   0.144   6.272 -0.1778  0.5494  0.4369
  136MOL   H22835598   4.690   0.230   6.693  0.6216  0.1645  0.0027
  136MOL   H22935599   4.796   0.159   6.799  1.2395 -0.8575  0.4648
  136MOL   H23035600   4.871   0.017   6.576 -0.7814 -0.6951 -1.5369
  136MOL   H23135601   4.823   0.048   6.353 -1.5711 -1.3184  1.3433
  136MOL   H23235602   4.825   0.218   6.376  0.5514 -0.0104  3.0138
  136MOL   H23335603   4.584   0.230   6.297  0.8322  0.3071  4.1342
  136MOL   H23435604   4.671   0.155   6.167 -1.5880  3.2187  0.3385
  136MOL   H23535605   4.588   0.052   6.286 -0.1558  0.7317  1.8759
  136MOL   C23635606   4.699   7.789   6.682 -0.3968 -0.0405  0.8195
  136MOL   C23735607   4.700   7.652   6.617  0.4374  0.4646  0.1073
  136MOL   O23835608   4.591   7.573   6.667  0.4134  0.7799 -0.0582
  136MOL   C23935609   4.486   7.558   6.577 -0.4967  0.3941  0.1851
  136MOL   C24035610   4.376   7.493   6.657  0.1275 -0.4174  0.9680
  136MOL   H24135611   4.596   7.824   6.693  0.6738  2.7448  2.3730
  136MOL   H24235612   4.726   7.776   6.787 -0.5389  2.3294  1.1673
  136MOL   H24335613   4.694   7.668   6.509  2.4213 -1.2430 -0.2814
  136MOL   H24435614   4.528   7.495   6.498  1.0534 -0.6455  1.8117
  136MOL   H24535615   4.448   7.650   6.531 -1.5799 -1.1883 -2.1722
  136MOL   H24635616   4.419   7.396   6.681 -1.7121 -1.7028 -0.7359
  136MOL   H24735617   4.350   7.560   6.738  0.1068  0.5626  0.1627
  136MOL   H24835618   4.286   7.476   6.597  0.1346 -0.4995  0.9794
  136MOL   C24935619   4.826   7.575   6.648  0.5727 -0.0284 -0.3815
  136MOL   C25035620   4.847   7.456   6.555 -0.1569 -0.4681  0.3850
  136MOL   O25135621   4.969   7.397   6.599 -1.0493 -0.0203  0.1218
  136MOL   C25235622   5.016   7.288   6.518 -0.9239 -0.2810 -0.3459
  136MOL   C25335623   5.092   7.186   6.606  0.7997  0.3565 -1.1807
  136MOL   H25435624   4.823   7.546   6.753  0.5265 -0.5525 -0.5286
  136MOL   H25535625   4.906   7.649   6.647 -1.6216  2.4136 -1.2193
  136MOL   H25635626   4.771   7.378   6.565 -0.8905 -0.0233 -1.5038
  136MOL   H25735627   5.097   7.328   6.457  0.5100 -0.4104  1.4018
  136MOL   H25835628   4.930   7.249   6.464 -1.0054  2.7115 -2.5016
  136MOL   H25935629   5.167   7.232   6.672 -1.4455  0.1640  1.6262
  136MOL   H26035630   5.023   7.146   6.680  2.2056  2.0650  1.1290
  136MOL   H26135631   5.140   7.103   6.554 -1.6479 -1.0910 -1.1829
  136MOL   H26235632   4.853   7.483   6.449 -0.8854  2.0347  0.9616
  137MOL     C135633   7.681   6.356   0.127 -0.0932 -0.4131 -0.1540
  137MOL     C235634   7.738   6.495   0.111  0.4463 -0.8119  0.1625
  137MOL     O335635   0.032   6.475   0.080  0.2939  0.2642  0.3103
  137MOL     C435636   0.083   6.480   7.786 -0.5155 -0.2349  0.5322
  137MOL     C535637   0.239   6.474   7.795  0.3875 -0.1410 -1.0507
  137MOL     H635638   7.693   6.310   0.029 -1.4352  1.3068 -1.1611
  137MOL     H735639   7.740   6.297   0.197 -0.3446 -3.5115 -2.4894
  137MOL     H835640   7.686   6.559   0.041 -0.1401 -0.7235  0.6758
  137MOL     H935641   0.031   6.565   7.742 -1.6119 -1.4472 -0.5662
  137MOL    H1035642   0.053   6.387   7.738  1.3515  1.1533 -3.5264
  137MOL    H1135643   0.295   6.502   7.705 -1.8321  2.6790 -1.6136
  137MOL    H1235644   0.264   6.550   0.025  1.4285 -3.3325  2.0742
  137MOL    H1335645   0.266   6.376   7.836 -1.2800  0.2059  0.9019
  137MOL    H1435646   7.576   6.365   0.152 -0.0898  2.0630 -0.8424
  137MOL    C1535647   7.733   6.566   0.238  0.1684  0.3752 -0.5386
  137MOL    C1635648   7.797   6.710   0.230  0.1486 -0.8864 -0.2794
  137MOL    O1735649   7.836   6.745   0.363  0.3420  0.1179 -0.5267
  137MOL    C1835650   0.130   6.710   0.395 -0.3715 -0.0691  0.0188
  137MOL    C1935651   0.156   6.751   0.538 -0.1647  0.7205 -0.1949
  137MOL    H2035652   7.800   6.506   0.300  1.3641  0.9836 -1.2217
  137MOL    H2135653   7.643   6.575   0.298 -0.0754 -0.0875 -0.8380
  137MOL    H2235654   0.049   6.699   0.179  1.8264 -0.7713  2.7182
  137MOL    H2335655   0.195   6.760   0.323  0.8969 -0.9052  0.5604
  137MOL    H2435656   0.142   6.602   0.389 -0.2731 -0.1416  1.4012
  137MOL    H2535657   0.262   6.747   0.563 -0.0080 -0.2346 -0.9912
  137MOL    H2635658   0.089   6.706   0.611  2.5935  0.9319  2.6199
  137MOL    H2735659   0.136   6.858   0.538 -2.7786  0.2547 -0.9657
  137MOL    C2835660   7.702   6.819   0.170  0.4034  0.1831  0.7758
  137MOL    C2935661   7.754   6.965   0.188 -0.1406  0.5097  0.0708
  137MOL    O3035662   7.648   7.046   0.137  0.2302  0.1392  0.5499
  137MOL    C3135663   7.559   7.099   0.233 -0.3346  0.0492  0.0873
  137MOL    C3235664   7.477   7.210   0.159 -0.2700 -0.3013  0.3380
  137MOL    H3335665   7.607   6.813   0.223  1.1791  1.0467  2.2939
  137MOL    H3435666   7.684   6.812   0.062  3.1143 -1.3268  0.3647
  137MOL    H3535667   7.775   6.984   0.293  0.0179  1.7390 -0.1682
  137MOL    H3635668   7.616   7.158   0.304 -0.5324  1.1391 -0.6455
  137MOL    H3735669   7.502   7.022   0.286 -1.7508  1.2631  0.3578
  137MOL    H3835670   7.543   7.286   0.117  0.9035 -1.2668  0.4160
  137MOL    H3935671   7.419   7.165   0.078  2.6545 -1.2289 -1.3428
  137MOL    H4035672   7.412   7.267   0.225 -0.4104 -1.5311  1.2602
  137MOL    C4135673   0.022   6.993   0.090 -0.4485  0.1966 -0.3814
  137MOL    C4235674   0.064   7.141   0.096 -0.3527  0.2229  0.4722
  137MOL    O4335675   0.179   7.174   0.019 -0.3127  0.5506 -0.1589
  137MOL    C4435676   0.157   7.181   7.719  0.3279  0.0058 -0.6644
  137MOL    C4535677   0.278   7.252   7.653 -0.7170  0.3176 -0.3995
  137MOL    H4635678   7.815   6.988   7.837  0.1216 -0.9304 -0.6313
  137MOL    H4735679   0.111   6.934   0.108 -0.6420  0.3892  1.2392
  137MOL    H4835680   7.826   7.207   0.064 -1.1833 -1.6483 -1.3714
  137MOL    H4935681   0.066   7.235   7.693 -0.5343 -1.4069 -0.6797
  137MOL    H5035682   0.140   7.078   7.686 -0.6790 -0.1826  0.3852
  137MOL    H5135683   0.373   7.203   7.675 -0.6387  0.1862 -1.0281
  137MOL    H5235684   0.269   7.258   7.545 -2.4723 -1.3306 -0.3769
  137MOL    H5335685   0.282   7.355   7.688 -1.5943  0.8897 -1.9644
  137MOL    C5435686   0.095   7.188   0.247  0.5795 -0.0902  0.3362
  137MOL    C5535687   0.171   7.325   0.271 -0.2881 -0.1630 -0.2878
  137MOL    O5635688   0.197   7.337   0.405  0.0199  0.3273 -0.3036
  137MOL    C5735689   0.326   7.314   0.460 -0.2533  0.4337 -0.0678
  137MOL    C5835690   0.385   7.177   0.433  0.6190  0.7297  0.6891
  137MOL    H5935691   0.148   7.105   0.291  1.3637 -0.2256 -0.8449
  137MOL    H6035692   0.000   7.190   0.301 -1.1274  1.6855 -2.5348
  137MOL    H6135693   0.264   7.331   0.214  0.7221  1.5573  1.4796
  137MOL    H6235694   0.325   7.322   0.569  0.1876  0.3352 -0.0569
  137MOL    H6335695   0.381   7.404   0.433  2.2225 -1.1121 -0.3701
  137MOL    H6435696   0.322   7.100   0.478  1.9245  0.2240  1.7132
  137MOL    H6535697   0.402   7.148   0.330 -1.2654 -0.8575  0.7968
  137MOL    H6635698   0.485   7.166   0.474  1.2859 -1.5567 -1.4430
  137MOL    C6735699   0.089   7.439   0.221 -0.6362 -0.3441  0.0144
  137MOL    C6835700   0.147   7.579   0.255  0.7467  0.5944  0.3228
  137MOL    O6935701   0.060   7.686   0.200  1.2223 -0.3124 -0.3633
  137MOL    C7035702   7.812   7.741   0.292 -0.0935 -0.2655  0.2703
  137MOL    C7135703   7.681   7.673   0.265  0.2659 -0.8367  0.5441
  137MOL    H7235704   7.832   7.438   0.264 -1.3221  0.3565 -1.5195
  137MOL    H7335705   0.076   7.435   0.113  0.0567 -0.2410 -0.0718
  137MOL    H7435706   0.163   7.577   0.363  1.1728 -1.8146  0.2464
  137MOL    H7535707   7.807   0.004   0.268 -1.3291 -0.2914  0.4269
  137MOL    H7635708   7.838   7.738   0.398  1.4277 -0.1121 -0.0833
  137MOL    H7735709   7.665   7.652   0.160  0.5052  1.5027  0.0228
  137MOL    H7835710   7.690   7.574   0.310  0.4952 -1.2462 -0.4001
  137MOL    H7935711   7.592   7.725   0.302 -0.3167 -2.2607  1.1900
  137MOL    C8035712   0.288   7.606   0.187  0.3016 -0.3767 -0.4401
  137MOL    C8135713   0.316   7.603   0.034  0.3154 -0.1282 -0.6888
  137MOL    O8235714   0.458   7.584   0.014  0.8458 -0.1802  0.2941
  137MOL    C8335715   0.495   7.445   0.003  0.6747 -0.8690  0.3027
  137MOL    C8435716   0.638   7.415   0.047 -0.1114  0.4119  0.3022
  137MOL    H8535717   0.356   7.541   0.242  2.3063  1.1912 -0.9987
  137MOL    H8635718   0.308   7.705   0.228  0.9249 -0.8777  0.4979
  137MOL    H8735719   0.255   7.519   0.000  0.2160  0.2058 -1.3377
  137MOL    H8835720   0.476   7.410   7.745 -1.5415  0.0696  0.3635
  137MOL    H8935721   0.426   7.385   0.062  2.4373 -1.4668  1.7959
  137MOL    H9035722   0.710   7.476   7.835  1.4846 -1.9367 -0.3054
  137MOL    H9135723   0.661   7.441   0.150 -1.0004  2.7558 -0.0831
  137MOL    H9235724   0.663   7.310   0.031  1.4045  0.5798  1.4428
  137MOL    C9335725   0.271   7.733   7.806 -0.0236  0.1808 -0.1426
  137MOL    C9435726   0.283   7.742   7.657  0.3709  0.0228  0.6732
  137MOL    O9535727   0.286   0.039   7.630  0.2646 -0.1676 -0.1164
  137MOL    C9635728   0.412   0.092   7.622  0.3460 -1.0752  0.6921
  137MOL    C9735729   0.390   0.222   7.552 -1.1839 -0.0405 -0.0783
  137MOL    H9835730   0.343   7.808   7.840 -0.3591 -0.2012  1.4549
  137MOL    H9935731   0.172   7.768   7.836  0.0255  0.8232 -0.7334
  137MOL   H10035732   0.373   7.688   7.629 -0.0946 -0.3552 -0.1103
  137MOL   H10135733   0.484   0.022   7.579  0.0261  0.1220 -1.8813
  137MOL   H10235734   0.451   0.112   7.722  1.3491  1.1034 -0.1121
  137MOL   H10335735   0.335   0.207   7.459 -1.9871 -2.3360  0.7382
  137MOL   H10435736   0.326   0.274   7.624 -0.0348 -0.1655  1.0496
  137MOL   H10535737   0.487   0.268   7.534  0.2629 -0.7264  4.9487
  137MOL   C10635738   0.164   7.670   7.586 -0.4015  0.4745 -0.4337
  137MOL   C10735739   0.164   7.650   7.435  0.4848 -0.2750 -0.0168
  137MOL   O10835740   0.029   7.625   7.377  0.0902 -0.2336 -0.3441
  137MOL   C10935741   7.804   7.516   7.453 -0.0429  0.2135  0.8695
  137MOL   C11035742   7.679   7.472   7.372 -0.5163  0.0638 -0.1509
  137MOL   H11135743   0.078   7.728   7.619  0.5997  1.0283  1.2674
  137MOL   H11235744   0.163   7.572   7.635  1.8895  0.9005  0.5396
  137MOL   H11335745   0.188   7.749   7.398  0.6852 -0.6452 -0.8841
  137MOL   H11435746   7.778   7.557   7.550 -1.4446  3.1402 -0.6825
  137MOL   H11535747   0.022   7.426   7.447  0.6687  0.8631 -2.2727
  137MOL   H11635748   7.618   7.561   7.352 -0.0884  0.5478  0.6755
  137MOL   H11735749   7.694   7.427   7.274  0.5547  2.8293 -1.3157
  137MOL   H11835750   7.621   7.398   7.427  1.0173 -1.1489 -0.1389
  137MOL   C11935751   0.261   7.560   7.370 -0.4796 -0.5450  0.8376
  137MOL   C12035752   0.281   7.587   7.218  0.4947  0.3281  0.1466
  137MOL   O12135753   0.358   7.486   7.159 -0.1551 -0.2395  0.9737
  137MOL   C12235754   0.278   7.389   7.083  1.0103 -0.1875  0.1259
  137MOL   C12335755   0.355   7.262   7.068 -0.3175  0.5440 -0.3333
  137MOL   H12435756   0.240   7.454   7.384  1.8148 -1.0079  1.0957
  137MOL   H12535757   0.357   7.574   7.421  0.5316 -0.9890 -0.8872
  137MOL   H12635758   0.183   7.601   7.172  0.3250 -0.4182  0.2812
  137MOL   H12735759   0.263   7.424   6.981  1.6376 -3.0709 -1.0122
  137MOL   H12835760   0.184   7.371   7.136  1.5984  1.9566  2.0017
  137MOL   H12935761   0.462   7.263   7.045  0.0074  0.5112  1.1578
  137MOL   H13035762   0.357   7.221   7.169  1.1416 -0.5177 -0.7680
  137MOL   H13135763   0.308   7.187   7.004 -0.7291  2.5071 -2.3797
  137MOL   C13235764   0.369   7.715   7.195 -0.0930  0.2558 -0.4744
  137MOL   C13335765   0.380   7.793   7.057  0.0762  0.1572  0.5559
  137MOL   O13435766   0.469   0.059   7.074 -0.0427  0.3010 -0.4682
  137MOL   C13535767   0.522   0.114   6.959 -0.1028 -0.1889  0.6652
  137MOL   C13635768   0.619   0.225   6.991  0.3653 -0.1683 -0.3407
  137MOL   H13735769   0.473   7.690   7.218 -0.4492 -0.2080  0.6362
  137MOL   H13835770   0.353   7.793   7.270  0.9272  0.2161 -0.2007
  137MOL   H13935771   0.415   7.718   6.987  1.0751  1.2965 -0.1698
  137MOL   H14035772   0.441   0.162   6.904  0.1397  0.2329  0.6761
  137MOL   H14135773   0.567   0.038   6.895 -0.1214  0.2854  0.0765
  137MOL   H14235774   0.648   0.261   6.892 -2.9459  1.1341 -0.8908
  137MOL   H14335775   0.576   0.307   7.049  0.4494 -0.3074 -0.0762
  137MOL   H14435776   0.712   0.184   7.031  0.8452 -1.2627 -2.5035
  137MOL   C14535777   0.245   0.001   7.004 -0.8511 -0.4286 -1.0890
  137MOL   C14635778   0.159   0.077   7.104  0.5776 -0.8535 -0.4663
  137MOL   O14735779   0.052   0.125   7.023 -0.3010  0.2285  0.6767
  137MOL   C14835780   7.791   0.036   7.000  0.2850  0.7784 -0.5460
  137MOL   C14935781   7.699   0.096   6.903  0.0863 -0.8959 -0.2299
  137MOL   H15035782   0.185   7.759   6.971 -1.3748  0.3484 -2.1962
  137MOL   H15135783   0.264   0.047   6.907 -1.1536  1.4809 -0.2688
  137MOL   H15235784   0.123   0.002   7.174  0.9875  0.2728  0.9863
  137MOL   H15335785   7.751   0.001   7.095 -4.0432  0.7460 -2.2789
  137MOL   H15435786   7.827   7.794   6.942 -3.1689  0.8901 -3.0268
  137MOL   H15535787   7.636   0.166   6.958 -2.1180 -3.1104  0.1733
  137MOL   H15635788   7.758   0.147   6.826 -1.0902  0.7267 -0.1004
  137MOL   H15735789   7.634   0.025   6.852 -0.7385  0.9556 -1.8525
  137MOL   C15835790   0.222   0.204   7.175 -0.1583  0.8561 -0.1091
  137MOL   C15935791   0.130   0.289   7.253  0.2635  0.7708 -0.3018
  137MOL   O16035792   0.204   0.395   7.314 -0.3785  0.1293  0.1071
  137MOL   C16135793   0.262   0.488   7.234 -0.1341 -0.3165  0.2631
  137MOL   C16235794   0.311   0.606   7.327  0.6547 -0.1325  0.1954
  137MOL   H16335795   0.265   0.264   7.094  0.8202 -1.7916 -1.6254
  137MOL   H16435796   0.299   0.176   7.247 -0.8603  0.2201  0.3999
  137MOL   H16535797   0.045   0.321   7.192  0.2343  1.4694  0.0972
  137MOL   H16635798   0.195   0.518   7.154 -0.0302 -0.8679 -0.0344
  137MOL   H16735799   0.348   0.438   7.190  1.4199 -0.6884  3.5740
  137MOL   H16835800   0.356   0.683   7.264  0.7277  0.6641  1.2108
  137MOL   H16935801   0.231   0.650   7.387 -0.6868 -2.0557 -0.1340
  137MOL   H17035802   0.383   0.570   7.400  1.4138 -0.4213 -0.6768
  137MOL   C17135803   0.065   0.209   7.373  0.2453  0.1079  0.0434
  137MOL   C17235804   7.786   0.283   7.436 -0.0022  0.1700 -0.1290
  137MOL   O17335805   7.757   0.215   7.561  0.2108 -0.6121 -0.1120
  137MOL   C17435806   7.829   0.254   7.676 -0.2715 -0.0240 -0.0486
  137MOL   C17535807   7.794   0.157   7.789  0.7202  0.3333  0.3273
  137MOL   H17635808   0.136   0.220   7.455  2.0680 -1.7230 -1.2357
  137MOL   H17735809   0.049   0.106   7.342  3.2478 -0.9493  1.8026
  137MOL   H17835810   7.819   0.385   7.455  2.2761 -0.7798  1.3169
  137MOL   H17935811   7.802   0.359   7.688 -0.0441  0.0844 -0.4671
  137MOL   H18035812   0.093   0.236   7.668 -0.2249  0.5023 -0.6410
  137MOL   H18135813   7.687   0.149   7.808  1.1589 -0.5951  2.5237
  137MOL   H18235814   7.828   0.056   7.767  0.2400  0.3191 -0.3717
  137MOL   H18335815   7.827   0.200   0.040 -2.8580 -1.7219  2.6118
  137MOL   C18435816   7.664   0.280   7.351 -0.0821  0.1473  0.1570
  137MOL   C18535817   7.522   0.317   7.420 -0.6064  0.2329 -0.1214
  137MOL   O18635818   7.424   0.301   7.328 -0.7662  0.4367  0.2069
  137MOL   C18735819   7.381   0.162   7.316  0.7529 -0.2191 -0.1281
  137MOL   C18835820   7.275   0.161   7.203 -0.4865  0.3548  0.1462
  137MOL   H18935821   7.656   0.181   7.306 -1.8804 -0.2305  1.2903
  137MOL   H19035822   7.677   0.332   7.255  1.3341  0.2778  0.4030
  137MOL   H19135823   7.516   0.237   7.494 -0.1504 -1.0600 -1.4315
  137MOL   H19235824   7.356   0.128   7.416  1.4463 -3.0835 -0.8690
  137MOL   H19335825   7.464   0.099   7.283  1.7824  1.5419 -0.9654
  137MOL   H19435826   7.208   0.246   7.214 -0.0350  0.8111 -0.5473
  137MOL   H19535827   7.311   0.168   7.100  0.4089 -2.8258  0.1652
  137MOL   H19635828   7.217   0.068   7.207 -3.4482  2.2431  3.7999
  137MOL   C19735829   7.519   0.459   7.494 -0.1575 -0.2316 -0.6730
  137MOL   C19835830   7.418   0.466   7.612 -0.5314  0.9357  0.1299
  137MOL   O19935831   7.291   0.500   7.564 -0.0866 -0.9141  0.3922
  137MOL   C20035832   7.170   0.436   7.605 -0.2973 -0.0121 -0.6300
  137MOL   C20135833   7.059   0.541   7.612 -0.3917 -0.4296 -0.4273
  137MOL   H20235834   7.505   0.543   7.427  0.5924 -0.3820 -1.0168
  137MOL   H20335835   7.615   0.495   7.530 -1.4943 -0.7314  3.7646
  137MOL   H20435836   7.427   0.365   7.653  0.4802  0.0906 -2.1310
  137MOL   H20535837   7.184   0.381   7.698  0.4389 -1.7680 -1.7485
  137MOL   H20635838   7.146   0.361   7.530  0.3297  1.2181 -2.0777
  137MOL   H20735839   7.047   0.606   7.525  0.7280  0.4437  0.0549
  137MOL   H20835840   6.965   0.491   7.633 -0.4092 -0.2448 -0.0656
  137MOL   H20935841   7.073   0.609   7.696 -0.9918  0.7965 -1.2968
  137MOL   C21035842   7.462   0.568   7.717 -0.3192  0.4024 -0.4547
  137MOL   C21135843   7.432   0.517   0.013 -0.6475  0.5538  0.0752
  137MOL   O21235844   7.422   0.621   0.107 -0.0902  0.0799 -0.3489
  137MOL   C21335845   7.290   0.671   0.135  0.8160  0.5979 -0.6337
  137MOL   C21435846   7.302   0.822   0.126  0.6914  0.7139 -0.2908
  137MOL   H21535847   7.403   0.659   7.701 -0.3921  0.0280 -2.4544
  137MOL   H21635848   7.563   0.608   7.703 -0.0671 -0.0252  0.1491
  137MOL   H21735849   7.344   0.453   0.010 -0.6389  0.5708 -0.5959
  137MOL   H21835850   7.248   0.631   0.228 -1.4848 -0.2645 -2.0017
  137MOL   H21935851   7.217   0.646   0.058  1.4231 -0.1899 -0.9606
  137MOL   H22035852   7.206   0.862   0.157  1.5065  1.3500  1.4239
  137MOL   H22135853   7.372   0.857   0.202  0.1352 -1.6026  1.3364
  137MOL   H22235854   7.335   0.853   0.027 -1.1664  0.2720 -1.0727
  137MOL   C22335855   7.551   0.433   0.065 -0.5457  0.0824 -0.4817
  137MOL   C22435856   7.501   0.356   0.194  0.0356  0.4058  0.3472
  137MOL   O22535857   7.609   0.298   0.263 -0.1611 -0.4014 -0.1781
  137MOL   C22635858   7.686   0.395   0.337 -0.3069 -0.1330 -0.0646
  137MOL   C22735859   7.800   0.319   0.411  0.3551 -0.2034  0.2632
  137MOL   H22835860   7.639   0.492   0.091  0.9398 -1.7739 -1.1916
  137MOL   H22935861   7.578   0.354   7.838  2.0930 -0.4136  1.0023
  137MOL   H23035862   7.450   0.428   0.258 -0.1301  1.0391 -0.4817
  137MOL   H23135863   7.623   0.435   0.417  0.4834 -0.1213  0.5599
  137MOL   H23235864   7.728   0.479   0.283 -0.1847  2.4182  3.7357
  137MOL   H23335865   0.048   0.321   0.351  0.1868  1.6757  0.0502
  137MOL   H23435866   7.823   0.371   0.504  1.6910  1.0620 -0.7615
  137MOL   H23535867   7.768   0.217   0.432 -2.7364  0.8664  1.0151
  137MOL   C23635868   7.407   0.236   0.159  0.5804  0.4357 -0.4389
  137MOL   C23735869   7.352   0.165   0.284 -0.2273 -0.0379  0.3985
  137MOL   O23835870   7.288   0.048   0.226  0.0527  0.8762  0.0766
  137MOL   C23935871   7.271   7.781   0.318  0.4254 -1.1354 -0.3082
  137MOL   C24035872   7.256   7.657   0.223  0.0108 -0.7147 -0.7075
  137MOL   H24135873   7.461   0.163   0.098  1.3038  0.9193 -0.3763
  137MOL   H24235874   7.323   0.262   0.094 -0.0439  0.0387  0.2058
  137MOL   H24335875   7.436   0.129   0.343 -0.9256 -1.5909  0.4628
  137MOL   H24435876   7.187   7.788   0.388 -0.7086 -0.1817 -1.7208
  137MOL   H24535877   7.358   7.772   0.383  0.7834  0.7116 -0.5137
  137MOL   H24635878   7.330   7.644   0.144  2.2470  0.3749  1.1218
  137MOL   H24735879   7.271   7.571   0.289 -0.2522  0.4996  0.9739
  137MOL   H24835880   7.160   7.643   0.173  0.1334  1.1646 -1.5257
  137MOL   C24935881   7.248   0.242   0.372  0.3847 -0.4397 -0.0595
  137MOL   C25035882   7.312   0.330   0.477  0.1027 -0.0324  0.1289
  137MOL   O25135883   7.218   0.352   0.578  0.0770 -0.0662  0.0021
  137MOL   C25235884   7.274   0.397   0.699  0.6388  0.1581 -0.2452
  137MOL   C25335885   7.155   0.445   0.790 -1.0185  0.1911  0.2451
  137MOL   H25435886   7.201   0.164   0.432  2.5009 -0.6978  1.3151
  137MOL   H25535887   7.176   0.304   0.318  0.5354  0.4164  0.7058
  137MOL   H25635888   7.398   0.285   0.527  0.8577  1.9530  0.6914
  137MOL   H25735889   7.343   0.481   0.689  0.0984  0.7083  0.5518
  137MOL   H25835890   7.322   0.324   0.763 -0.9056 -1.6728 -1.1542
  137MOL   H25935891   7.104   0.358   0.831 -1.1010 -0.6926 -1.6738
  137MOL   H26035892   7.197   0.502   0.873 -1.2318  2.0447 -0.8877
  137MOL   H26135893   7.088   0.512   0.737  0.2840  1.3260 -0.0074
  137MOL   H26235894   7.335   0.433   0.448  0.6325 -0.2469 -0.2137
  138MOL     C135895   3.040   7.824   1.290  0.5597  0.9827 -0.1027
  138MOL     C235896   3.024   0.086   1.405  1.0530  0.4935  0.2081
  138MOL     O335897   2.887   0.094   1.434 -0.0322 -0.1932  0.0793
  138MOL     C435898   2.826   7.820   1.479 -0.3147 -0.1857  0.1197
  138MOL     C535899   2.694   0.009   1.552 -0.7288  0.7481  0.6294
  138MOL     H635900   3.148   7.816   1.280  0.5621  0.6712  0.1745
  138MOL     H735901   3.006   7.724   1.316 -2.2294  2.4470  2.1910
  138MOL     H835902   3.075   0.043   1.492  2.3545  1.5946  0.0081
  138MOL     H935903   2.885   7.768   1.554 -0.7384 -1.8503 -0.6583
  138MOL    H1035904   2.807   7.747   1.399 -4.3578 -1.3827  2.0343
  138MOL    H1135905   2.697   0.070   1.642 -1.0244  1.6442  0.0418
  138MOL    H1235906   2.617   0.046   1.484 -0.3401  0.1763 -0.1151
  138MOL    H1335907   2.657   7.755   1.581  1.7258 -1.5819 -3.5464
  138MOL    H1435908   2.987   0.025   1.206  0.8614  2.8189  0.6388
  138MOL    C1535909   3.075   0.229   1.377 -0.2857 -0.1794  0.3068
  138MOL    C1635910   3.226   0.245   1.377  0.0399  0.0651 -0.7680
  138MOL    O1735911   3.270   0.290   1.504 -0.2745 -0.8622 -0.2461
  138MOL    C1835912   3.335   0.197   1.590 -0.0126  0.5422  0.0284
  138MOL    C1935913   3.370   0.274   1.726  0.2218  0.4702  0.0640
  138MOL    H2035914   3.032   0.288   1.459  0.7299  0.7345  0.1879
  138MOL    H2135915   3.032   0.269   1.285 -2.8428 -0.6740  1.2354
  138MOL    H2235916   3.285   0.156   1.356 -0.3160 -0.4722  0.4628
  138MOL    H2335917   3.432   0.165   1.552  0.4011  0.6614  0.9737
  138MOL    H2435918   3.275   0.106   1.597  1.1451 -0.1068  1.9051
  138MOL    H2535919   3.442   0.234   1.797 -0.9302  2.2321  2.3019
  138MOL    H2635920   3.274   0.297   1.772  1.2176 -1.4219  3.2424
  138MOL    H2735921   3.411   0.373   1.703 -0.4897  0.5636 -0.8456
  138MOL    C2835922   3.258   0.364   1.278 -0.4404  0.1769  0.0977
  138MOL    C2935923   3.178   0.498   1.268 -0.3294  0.7080 -0.3040
  138MOL    O3035924   3.234   0.572   1.160  0.0027  0.1006 -0.2619
  138MOL    C3135925   3.154   0.542   1.047  0.0415  0.0177  0.2484
  138MOL    C3235926   3.227   0.606   0.929  0.7541 -0.1785  0.8430
  138MOL    H3335927   3.244   0.324   1.178  1.8965 -0.1871 -0.1046
  138MOL    H3435928   3.365   0.384   1.283 -0.5014  0.9698 -1.4774
  138MOL    H3535929   3.072   0.478   1.258 -0.0727  0.1517 -1.9466
  138MOL    H3635930   3.059   0.595   1.044  0.9021  1.5460 -1.9123
  138MOL    H3735931   3.136   0.438   1.022  2.5883 -0.5084  0.5192
  138MOL    H3835932   3.172   0.577   0.840  0.6686 -1.4770  1.3064
  138MOL    H3935933   3.237   0.714   0.937 -0.5771  0.1361 -1.2629
  138MOL    H4035934   3.326   0.561   0.926  0.5004 -0.6405 -1.6584
  138MOL    C4135935   3.191   0.580   1.400 -0.6775 -0.3792 -0.6188
  138MOL    C4235936   3.149   0.721   1.380  0.3378 -0.2221 -0.4063
  138MOL    O4335937   3.184   0.779   1.505  0.0258 -0.1285  0.2475
  138MOL    C4435938   3.207   0.918   1.503  0.2420 -0.1465  0.7409
  138MOL    C4535939   3.216   0.966   1.643  0.6549 -0.4378  0.3532
  138MOL    H4635940   3.295   0.573   1.433 -0.5900  0.1824 -0.7653
  138MOL    H4735941   3.137   0.519   1.472 -1.0368 -1.3613 -1.7024
  138MOL    H4835942   3.218   0.764   1.307 -0.5982  1.2582 -0.4340
  138MOL    H4935943   3.134   0.965   1.437  1.4692  1.3133  0.3841
  138MOL    H5035944   3.303   0.936   1.455  0.5562 -4.4138 -0.3596
  138MOL    H5135945   3.278   0.898   1.701 -0.2290 -2.3661 -0.8947
  138MOL    H5235946   3.270   1.061   1.642 -0.0367 -0.0211 -1.6405
  138MOL    H5335947   3.124   0.997   1.692  1.0656  1.7645 -0.1892
  138MOL    C5435948   3.000   0.739   1.337  0.2592 -0.3856 -0.0988
  138MOL    C5535949   2.887   0.674   1.424  0.1181  0.4416  0.1694
  138MOL    O5635950   2.766   0.688   1.348 -0.0086  0.1317  0.4701
  138MOL    C5735951   2.729   0.582   1.256  0.0009 -0.2644  0.8042
  138MOL    C5835952   2.616   0.525   1.329 -0.2373 -0.1377 -0.5444
  138MOL    H5935953   2.993   0.699   1.236  0.8172 -1.6962  0.3673
  138MOL    H6035954   2.978   0.843   1.317  0.3673 -0.7201 -2.0730
  138MOL    H6135955   2.910   0.569   1.446 -0.0383  0.0242 -1.5770
  138MOL    H6235956   2.807   0.510   1.234  0.0017  0.5325 -1.9452
  138MOL    H6335957   2.699   0.633   1.164 -0.4185  1.6869  1.9925
  138MOL    H6435958   2.545   0.601   1.362  0.3786  0.2178 -0.0279
  138MOL    H6535959   2.563   0.448   1.272  0.0906 -1.4017  0.8398
  138MOL    H6635960   2.656   0.474   1.417 -1.6326 -0.1371  0.1059
  138MOL    C6735961   2.875   0.746   1.555  0.4217 -0.6954 -0.2063
  138MOL    C6835962   2.748   0.728   1.631 -0.8710  0.5774  0.0499
  138MOL    O6935963   2.746   0.824   1.736 -0.2207  0.1270  0.7660
  138MOL    C7035964   2.647   0.930   1.729 -0.7586  0.7603 -0.3955
  138MOL    C7135965   2.683   1.030   1.831  0.2736  0.0798  0.0301
  138MOL    H7235966   2.887   0.854   1.542  0.8580 -0.6445  0.6134
  138MOL    H7335967   2.955   0.714   1.621  0.7056  0.4193 -0.0059
  138MOL    H7435968   2.664   0.746   1.563 -1.5014 -1.1711  0.3502
  138MOL    H7535969   2.546   0.894   1.745 -0.6288  0.8175  0.5570
  138MOL    H7635970   2.656   0.966   1.626 -1.0707 -0.5833 -0.9052
  138MOL    H7735971   2.780   1.073   1.806 -0.3103  0.5367 -1.4890
  138MOL    H7835972   2.607   1.107   1.848 -0.0237  0.1606 -1.6505
  138MOL    H7935973   2.699   0.987   1.930  0.5279  0.8134  0.3118
  138MOL    C8035974   2.723   0.591   1.699 -0.3560 -0.3141  0.5895
  138MOL    C8135975   2.823   0.553   1.810  0.5320 -0.8051  0.3224
  138MOL    O8235976   2.851   0.409   1.808  0.2353  0.2545  0.4953
  138MOL    C8335977   2.963   0.378   1.732 -0.0865 -0.2559  0.1654
  138MOL    C8435978   2.989   0.228   1.762  0.3057 -0.2693 -0.8121
  138MOL    H8535979   2.723   0.527   1.610  1.4958  0.0888  0.2795
  138MOL    H8635980   2.619   0.600   1.729  0.1611  3.3148  1.5616
  138MOL    H8735981   2.918   0.604   1.798  0.7943 -1.0381  1.3237
  138MOL    H8835982   3.052   0.434   1.760 -0.4208  1.1482 -1.4546
  138MOL    H8935983   2.949   0.399   1.626 -0.1130 -0.1101  0.1984
  138MOL    H9035984   3.050   0.184   1.682  0.3370  0.0598 -0.9693
  138MOL    H9135985   3.033   0.215   1.861  0.4497 -1.1287 -0.9797
  138MOL    H9235986   2.898   0.168   1.758  1.5142 -2.3538  1.4535
  138MOL    C9335987   2.762   0.592   1.943 -0.5661  0.1477  0.1625
  138MOL    C9435988   2.835   0.543   2.070  1.2529 -0.1385 -0.1251
  138MOL    O9535989   2.745   0.573   2.174  0.2309  0.1386  1.0547
  138MOL    C9635990   2.739   0.475   2.273  0.1242  0.5599 -0.3568
  138MOL    C9735991   2.665   0.538   2.395  0.1980  0.6542  0.2477
  138MOL    H9835992   2.658   0.559   1.937 -0.3392 -1.1490  2.7611
  138MOL    H9935993   2.758   0.701   1.946 -0.0529  0.1642  0.2953
  138MOL   H10035994   2.854   0.436   2.064  0.0654 -0.3766  0.3106
  138MOL   H10135995   2.838   0.443   2.305  0.0351 -0.3029 -0.9568
  138MOL   H10235996   2.683   0.397   2.223  1.4685  0.0745 -1.1226
  138MOL   H10335997   2.558   0.525   2.377  0.7139 -0.1344 -2.4763
  138MOL   H10435998   2.686   0.489   2.490  1.0962  1.0222  0.2366
  138MOL   H10535999   2.689   0.643   2.405  3.1878 -0.1631  2.1623
  138MOL   C10636000   2.980   0.599   2.093 -0.0247 -0.4377 -0.2464
  138MOL   C10736001   2.983   0.749   2.119  0.0710 -0.4598  0.2796
  138MOL   O10836002   3.119   0.796   2.102  0.0779  0.2117  0.4232
  138MOL   C10936003   3.131   0.880   1.985  0.9304  0.2783 -0.2814
  138MOL   C11036004   3.268   0.947   2.002 -0.1309 -0.9940  0.2437
  138MOL   H11136005   3.049   0.583   2.010  0.0003  1.1229 -0.5339
  138MOL   H11236006   3.021   0.555   2.184  2.5692  1.0117 -0.6594
  138MOL   H11336007   2.910   0.807   2.063 -0.9762 -0.0917  1.9966
  138MOL   H11436008   3.043   0.940   1.963 -1.2196 -2.7958 -0.2711
  138MOL   H11536009   3.115   0.813   1.901  1.2829 -1.2162  0.8228
  138MOL   H11636010   3.343   0.868   2.009 -0.1421 -1.1798 -1.5167
  138MOL   H11736011   3.294   1.008   1.916 -0.9897 -2.7169 -1.2868
  138MOL   H11836012   3.289   1.003   2.093  1.5425 -0.7870 -0.2529
  138MOL   C11936013   2.957   0.786   2.263  0.3713 -0.6947  0.5802
  138MOL   C12036014   2.931   0.941   2.291 -0.2587  0.1294 -0.3906
  138MOL   O12136015   3.001   0.972   2.414 -0.1284 -0.5012  0.3472
  138MOL   C12236016   3.133   1.025   2.399 -0.2386  0.2809  0.0655
  138MOL   C12336017   3.195   1.067   2.533 -0.2362 -0.3266  0.2460
  138MOL   H12436018   3.043   0.760   2.325 -0.7270 -0.0674  2.4019
  138MOL   H12536019   2.876   0.734   2.314 -3.3584  1.0019 -3.3486
  138MOL   H12636020   2.974   1.000   2.210 -1.5875  0.6754 -0.7121
  138MOL   H12736021   3.117   1.116   2.340  0.5134 -0.7214 -1.7233
  138MOL   H12836022   3.184   0.959   2.329 -0.6851 -0.2521  0.2419
  138MOL   H12936023   3.192   0.986   2.606  0.7400 -0.2599  0.3704
  138MOL   H13036024   3.297   1.097   2.509 -0.6286  0.0009 -1.0550
  138MOL   H13136025   3.138   1.149   2.578 -1.7642 -0.7717 -0.8468
  138MOL   C13236026   2.780   0.975   2.308 -0.3148 -0.3846 -0.5295
  138MOL   C13336027   2.756   1.130   2.314 -0.0695 -0.2591 -0.1709
  138MOL   O13436028   2.630   1.160   2.369  0.2953  0.1758  0.0194
  138MOL   C13536029   2.632   1.173   2.507  0.0207  0.1446  1.5923
  138MOL   C13636030   2.501   1.206   2.582 -0.3131 -0.9514 -0.6417
  138MOL   H13736031   2.756   0.928   2.404 -0.1598  1.4667  0.4363
  138MOL   H13836032   2.714   0.936   2.231 -0.9303  1.7780 -1.1472
  138MOL   H13936033   2.844   1.177   2.358 -0.2335 -0.6896  0.6411
  138MOL   H14036034   2.702   1.250   2.538 -0.1652  1.7374 -1.7692
  138MOL   H14136035   2.670   1.076   2.541  2.9371  0.8795  0.6071
  138MOL   H14236036   2.453   1.300   2.554  0.4883 -0.7819 -1.4955
  138MOL   H14336037   2.419   1.136   2.566 -2.4708  1.2659  0.4467
  138MOL   H14436038   2.522   1.199   2.689  0.8208 -1.0045 -0.8539
  138MOL   C14536039   2.744   1.187   2.165  0.2409 -0.2177  0.1365
  138MOL   C14636040   2.740   1.344   2.157  0.2988 -0.6035  0.1326
  138MOL   O14736041   2.609   1.389   2.117 -1.3292 -0.2515 -0.4900
  138MOL   C14836042   2.522   1.429   2.224 -0.0889  0.1395 -0.2289
  138MOL   C14936043   2.450   1.552   2.172  0.4837 -0.3893 -0.1157
  138MOL   H15036044   2.653   1.150   2.117 -0.7515 -0.4698  2.1441
  138MOL   H15136045   2.825   1.159   2.097  0.2107  1.2871 -0.5345
  138MOL   H15236046   2.752   1.376   2.261  1.5489  1.8428 -0.7276
  138MOL   H15336047   2.559   1.450   2.325 -2.2053  0.3475  0.5270
  138MOL   H15436048   2.456   1.345   2.246  2.1606 -0.7845  3.5669
  138MOL   H15536049   2.423   1.553   2.067  0.2376  0.6160 -0.0443
  138MOL   H15636050   2.354   1.571   2.220  0.6440 -2.5900  1.1454
  138MOL   H15736051   2.521   1.633   2.188 -0.2416  0.4311 -0.9603
  138MOL   C15836052   2.836   1.411   2.053  0.0095  0.4530 -0.6004
  138MOL   C15936053   2.842   1.560   2.066 -0.5334  0.6492  1.0224
  138MOL   O16036054   2.880   1.610   1.944 -0.4008  0.9315  0.0375
  138MOL   C16136055   2.766   1.623   1.859  0.6439 -0.4689  0.3249
  138MOL   C16236056   2.671   1.741   1.876  0.5255  0.2239  0.0591
  138MOL   H16336057   2.814   1.367   1.956  1.0560 -3.2255  0.7433
  138MOL   H16436058   2.931   1.365   2.082 -0.8576 -2.2529 -1.8791
  138MOL   H16536059   2.743   1.593   2.098 -0.8166  1.0451 -0.2580
  138MOL   H16636060   2.722   1.527   1.830 -0.7976 -0.0095  0.9263
  138MOL   H16736061   2.802   1.644   1.759 -3.7135 -0.9862 -1.4899
  138MOL   H16836062   2.594   1.736   1.800 -0.7984 -1.1228  1.4461
  138MOL   H16936063   2.606   1.747   1.964  0.1124  1.2626 -0.3060
  138MOL   H17036064   2.728   1.831   1.852  2.6505 -1.2418 -0.5502
  138MOL   C17136065   2.957   1.605   2.158  0.8104  0.5808 -0.2266
  138MOL   C17236066   2.975   1.757   2.175 -0.0305  0.0224  0.2385
  138MOL   O17336067   3.091   1.770   2.251 -0.2301 -0.2838 -0.0293
  138MOL   C17436068   3.213   1.797   2.190 -0.0157 -0.5606 -0.0083
  138MOL   C17536069   3.320   1.747   2.285 -0.1830 -0.3224  0.0886
  138MOL   H17636070   3.052   1.560   2.128 -0.2152 -2.1549  0.5023
  138MOL   H17736071   2.936   1.556   2.253  1.2934 -1.3591 -1.1019
  138MOL   H17836072   2.996   1.794   2.075  1.8037  1.4209  1.1130
  138MOL   H17936073   3.226   1.904   2.173 -0.7995 -0.3715  0.5816
  138MOL   H18036074   3.226   1.743   2.096  1.0518  2.3867 -1.6205
  138MOL   H18136075   3.304   1.641   2.301  1.3886 -0.2961  2.0257
  138MOL   H18236076   3.421   1.772   2.252 -0.9394  0.0629 -2.0254
  138MOL   H18336077   3.311   1.792   2.384  2.4222  0.7165 -0.1024
  138MOL   C18436078   2.861   1.832   2.248 -0.4603  0.1064 -0.2388
  138MOL   C18536079   2.872   1.986   2.234 -0.3265 -0.6808 -0.1608
  138MOL   O18636080   2.763   2.030   2.320  0.2224  0.0066  0.4880
  138MOL   C18736081   2.799   2.055   2.457  0.1820  0.1243 -0.0435
  138MOL   C18836082   2.827   2.202   2.478  0.3415  0.0265 -0.4796
  138MOL   H18936083   2.865   1.806   2.353 -1.0214  0.9357 -0.0077
  138MOL   H19036084   2.762   1.810   2.207 -1.0383  1.6922  0.2864
  138MOL   H19136085   2.967   2.031   2.262  0.2442 -2.5688  1.0732
  138MOL   H19236086   2.884   1.998   2.496  0.8151  1.2445  0.2563
  138MOL   H19336087   2.710   2.033   2.515  0.7728  1.9736  1.6169
  138MOL   H19436088   2.885   2.229   2.567  0.5573  0.7640 -0.8320
  138MOL   H19536089   2.878   2.237   2.388 -0.8780 -0.6560 -1.4465
  138MOL   H19636090   2.732   2.255   2.482  0.2433 -0.1723 -0.1067
  138MOL   C19736091   2.838   2.025   2.086  0.2621  0.2659  0.1607
  138MOL   C19836092   2.864   2.171   2.066  0.3118 -0.0475 -0.3953
  138MOL   O19936093   2.793   2.205   1.949  0.5057 -0.1939 -0.0983
  138MOL   C20036094   2.683   2.290   1.970 -0.7537 -0.1495  0.1744
  138MOL   C20136095   2.610   2.307   1.835  0.1676  0.0488  0.1613
  138MOL   H20236096   2.730   2.011   2.086  0.7258 -4.2519  1.2190
  138MOL   H20336097   2.886   1.965   2.009  0.5728  0.4920  0.1805
  138MOL   H20436098   2.832   2.233   2.150  0.0002  0.0721 -0.6022
  138MOL   H20536099   2.725   2.382   2.009 -1.3593 -1.3463  3.8230
  138MOL   H20636100   2.621   2.242   2.046  0.0258 -0.9136  0.3315
  138MOL   H20736101   2.521   2.368   1.850 -0.1371 -0.1294 -0.9041
  138MOL   H20836102   2.686   2.359   1.777 -0.4173 -0.6131 -1.2161
  138MOL   H20936103   2.587   2.208   1.796 -2.3182  0.1499  1.2706
  138MOL   C21036104   3.014   2.201   2.048 -0.0911 -0.2134  0.1586
  138MOL   C21136105   3.044   2.348   2.009  0.0794 -0.0567 -0.2687
  138MOL   O21236106   3.126   2.349   1.894 -0.2472  0.1220 -0.4841
  138MOL   C21336107   3.066   2.353   1.773 -0.3202 -0.4752 -0.1223
  138MOL   C21436108   3.165   2.358   1.660 -0.0869  0.3960 -0.1489
  138MOL   H21536109   3.028   2.143   1.957  0.0541 -0.6491  0.4588
  138MOL   H21636110   3.074   2.153   2.125 -1.0066 -0.1018  0.9461
  138MOL   H21736111   2.950   2.398   1.984  0.1801 -0.1237 -0.7927
  138MOL   H21836112   3.022   2.453   1.765 -0.2747 -0.5306 -1.0908
  138MOL   H21936113   2.999   2.267   1.761  0.3660 -0.6834 -2.5762
  138MOL   H22036114   3.241   2.435   1.675  0.3800  0.0354 -0.6313
  138MOL   H22136115   3.229   2.270   1.665  1.9231  1.7338 -1.6492
  138MOL   H22236116   3.121   2.361   1.561 -0.4755 -3.5499 -0.1654
  138MOL   C22336117   3.110   2.424   2.120  0.4032 -0.5384 -0.5701
  138MOL   C22436118   3.243   2.378   2.174  0.2709 -0.2030 -0.4880
  138MOL   O22536119   3.202   2.286   2.280  0.4287  0.6062  0.6116
  138MOL   C22636120   3.303   2.193   2.326 -0.6054  0.5928  0.8536
  138MOL   C22736121   3.248   2.118   2.446 -0.0827 -0.0139  0.1337
  138MOL   H22836122   3.041   2.449   2.201  2.1467  3.5593 -0.2681
  138MOL   H22936123   3.122   2.522   2.075 -0.1334 -0.3710 -0.3534
  138MOL   H23036124   3.307   2.321   2.106 -1.4577 -1.1291 -1.3719
  138MOL   H23136125   3.396   2.244   2.354  0.9105 -0.6422 -1.6935
  138MOL   H23236126   3.342   2.126   2.250  2.5512 -0.4396  3.2394
  138MOL   H23336127   3.333   2.075   2.500 -0.2520 -0.6354 -0.0921
  138MOL   H23436128   3.162   2.171   2.487  0.8646  0.7016  1.2406
  138MOL   H23536129   3.205   2.032   2.395 -0.8609  0.2467  0.3388
  138MOL   C23636130   3.321   2.503   2.243 -0.0437  0.4393 -0.0293
  138MOL   C23736131   3.397   2.599   2.144  0.0810 -0.6363 -0.0176
  138MOL   O23836132   3.514   2.530   2.093  0.1031  0.4225 -0.4527
  138MOL   C23936133   3.498   2.487   1.956 -0.4195 -0.1826 -0.5500
  138MOL   C24036134   3.618   2.402   1.917  0.0454 -0.7666 -0.4295
  138MOL   H24136135   3.395   2.473   2.316 -1.8610 -1.3907  1.1040
  138MOL   H24236136   3.254   2.557   2.310  0.7575  0.2207  0.9493
  138MOL   H24336137   3.330   2.625   2.062  0.5689  0.9661  0.0765
  138MOL   H24436138   3.478   2.572   1.891  1.3391  0.7469  0.1133
  138MOL   H24536139   3.403   2.433   1.945 -0.2535 -1.2778  2.9912
  138MOL   H24636140   3.606   2.354   1.820  0.5803 -0.3883 -0.6877
  138MOL   H24736141   3.701   2.474   1.922 -1.7001  1.1705  1.4784
  138MOL   H24836142   3.648   2.319   1.981 -4.3714 -0.8098  1.7240
  138MOL   C24936143   3.437   2.732   2.204  0.2568 -0.0398  0.3479
  138MOL   C25036144   3.529   2.821   2.123 -0.2384  0.4336 -0.3249
  138MOL   O25136145   3.523   2.954   2.177 -0.0682 -0.1828 -0.3048
  138MOL   C25236146   3.524   3.060   2.083 -0.5697  0.2167  0.5648
  138MOL   C25336147   3.649   3.063   2.001 -0.6798  0.0108  0.1948
  138MOL   H25436148   3.497   2.709   2.292 -0.1645  1.3066  1.0027
  138MOL   H25536149   3.353   2.787   2.246 -0.0399  1.3454 -1.9458
  138MOL   H25636150   3.631   2.781   2.118  0.4514  2.2330 -1.0688
  138MOL   H25736151   3.523   3.155   2.137  1.9535 -0.6166  2.1855
  138MOL   H25836152   3.431   3.073   2.028  1.2304  3.9277 -1.8433
  138MOL   H25936153   3.668   3.162   1.960  2.2921 -0.9068 -0.7999
  138MOL   H26036154   3.735   3.035   2.062 -0.2677 -0.9985 -0.8216
  138MOL   H26136155   3.646   2.986   1.924 -0.5161 -1.0238  1.2074
  138MOL   H26236156   3.494   2.822   2.020  0.3870  1.5698 -0.5343
  139MOL     C136157   3.596   6.546   3.079  0.2364  0.6941  0.1680
  139MOL     C236158   3.620   6.501   3.220 -0.8175 -1.3154 -0.4452
  139MOL     O336159   3.761   6.497   3.238  0.4094 -0.4789  0.3994
  139MOL     C436160   3.805   6.572   3.350  0.6451 -0.3531  0.2295
  139MOL     C536161   3.959   6.540   3.357  0.3428 -0.3825  0.0952
  139MOL     H636162   3.493   6.544   3.044  0.0842  1.4058  0.5662
  139MOL     H736163   3.630   6.649   3.064  0.1678  0.5490 -1.0138
  139MOL     H836164   3.578   6.584   3.277  0.1738 -0.1053 -1.4197
  139MOL     H936165   3.758   6.534   3.440  0.6020  1.1489  0.8456
  139MOL    H1036166   3.792   6.678   3.328  0.2728 -0.4768 -0.1493
  139MOL    H1136167   3.957   6.433   3.377 -3.1131 -0.4928 -0.5623
  139MOL    H1236168   4.015   6.567   3.267 -0.3134 -1.6845 -0.7196
  139MOL    H1336169   4.015   6.602   3.428 -2.9439  2.1004  0.6490
  139MOL    H1436170   3.668   6.499   3.011  0.4383  0.8969  0.2406
  139MOL    C1536171   3.560   6.373   3.270 -0.5301 -0.1235  0.7609
  139MOL    C1636172   3.406   6.357   3.254 -0.3437  0.5282  0.2028
  139MOL    O1736173   3.339   6.460   3.330 -0.1323 -0.4600 -0.7623
  139MOL    C1836174   3.236   6.535   3.260  0.9567 -0.3084 -0.1258
  139MOL    C1936175   3.154   6.596   3.367  0.8039  0.2097  0.3736
  139MOL    H2036176   3.582   6.371   3.376  0.6900  3.3915  0.6377
  139MOL    H2136177   3.606   6.287   3.221 -0.5585  0.3481 -0.0968
  139MOL    H2236178   3.379   6.367   3.149 -1.9189 -3.5252  0.1324
  139MOL    H2336179   3.176   6.463   3.205  1.7261 -0.6405 -0.5384
  139MOL    H2436180   3.275   6.613   3.195  1.6384 -1.4016 -1.0504
  139MOL    H2536181   3.083   6.665   3.323  0.9076 -0.1457 -0.3690
  139MOL    H2636182   3.220   6.643   3.440  0.2300  0.3553  0.7927
  139MOL    H2736183   3.093   6.522   3.418  2.5151 -1.3346  0.2491
  139MOL    C2836184   3.356   6.219   3.298  0.0104  0.0012 -0.3668
  139MOL    C2936185   3.211   6.176   3.281  0.5036 -0.1455  0.1398
  139MOL    O3036186   3.187   6.066   3.369  0.3256 -0.7489 -0.1082
  139MOL    C3136187   3.142   6.109   3.498  0.5613 -0.1094  0.9668
  139MOL    C3236188   3.147   5.981   3.587 -0.7029 -0.0748  0.7354
  139MOL    H3336189   3.393   6.195   3.398  0.4485  0.7209 -0.3542
  139MOL    H3436190   3.421   6.158   3.235  0.1198 -0.2779  0.0077
  139MOL    H3536191   3.142   6.252   3.316  2.8380  1.9384  0.3494
  139MOL    H3636192   3.039   6.144   3.501  0.2421 -0.7515 -1.2460
  139MOL    H3736193   3.207   6.185   3.541  3.0405 -0.2582 -2.2784
  139MOL    H3836194   3.124   6.007   3.690 -1.6967 -1.8193  0.9717
  139MOL    H3936195   3.079   5.901   3.558  0.5749 -1.3220  1.1054
  139MOL    H4036196   3.250   5.945   3.585 -0.8505 -0.4627 -0.0167
  139MOL    C4136197   3.184   6.157   3.126  0.1449  0.6712  0.1184
  139MOL    C4236198   3.037   6.142   3.090  0.0044  0.4557 -0.0022
  139MOL    O4336199   3.022   6.141   2.951 -0.4406  0.4159  0.1310
  139MOL    C4436200   3.028   6.007   2.891 -0.7183 -0.2859 -0.7182
  139MOL    C4536201   2.926   6.009   2.767  0.2236  0.0587  0.5508
  139MOL    H4636202   3.235   6.063   3.105  0.8082  1.1724 -0.5126
  139MOL    H4736203   3.226   6.245   3.079  3.6333  0.4650  2.6352
  139MOL    H4836204   3.005   6.048   3.135 -0.7344  1.0506  0.7340
  139MOL    H4936205   2.987   5.937   2.964  1.1961  0.6057  1.2806
  139MOL    H5036206   3.124   5.959   2.872  0.0009 -0.4647  3.0052
  139MOL    H5136207   2.832   6.049   2.803  0.4547 -0.7522  2.1031
  139MOL    H5236208   2.956   6.081   2.690  0.7149  0.5969  1.2316
  139MOL    H5336209   2.900   5.912   2.725 -0.8966 -0.1009  1.6036
  139MOL    C5436210   2.949   6.265   3.123  0.5605  0.1651  0.7166
  139MOL    C5536211   2.801   6.274   3.080 -0.1127  0.2476 -0.4144
  139MOL    O5636212   2.756   6.408   3.104 -0.1246  0.4840 -0.2462
  139MOL    C5736213   2.731   6.480   2.981  0.1696 -0.1033 -0.3482
  139MOL    C5836214   2.709   6.630   2.992  0.5436  0.5888 -0.2105
  139MOL    H5936215   2.994   6.357   3.085 -0.6930  0.6263  0.3412
  139MOL    H6036216   2.943   6.276   3.231 -0.8421 -3.1739  1.0223
  139MOL    H6136217   2.782   6.255   2.975 -2.1587 -1.1399  0.1703
  139MOL    H6236218   2.629   6.446   2.964 -1.1846  3.3665  0.5671
  139MOL    H6336219   2.798   6.463   2.896  0.4526 -0.2197 -0.1037
  139MOL    H6436220   2.690   6.678   2.896  2.4437  2.9679  0.5385
  139MOL    H6536221   2.620   6.649   3.051 -2.4884 -3.0858 -3.3419
  139MOL    H6636222   2.793   6.685   3.035  0.1992  0.1287  1.0745
  139MOL    C6736223   2.703   6.189   3.171 -0.1780  0.0525 -0.1420
  139MOL    C6836224   2.559   6.189   3.132  0.4292  0.2821  0.2504
  139MOL    O6936225   2.481   6.132   3.233  0.2669 -0.3053 -0.0690
  139MOL    C7036226   2.417   6.228   3.311 -0.1660 -0.0785 -0.5774
  139MOL    C7136227   2.317   6.159   3.393  0.1762 -0.3027 -0.3585
  139MOL    H7236228   2.712   6.221   3.274 -0.2478  0.1346 -0.1618
  139MOL    H7336229   2.728   6.083   3.166  0.9077  0.2668  0.5407
  139MOL    H7436230   2.526   6.293   3.127 -0.0260  0.0545 -3.3679
  139MOL    H7536231   2.354   6.294   3.251 -1.7108 -1.9804 -1.1079
  139MOL    H7636232   2.490   6.286   3.368 -0.6407  1.4653 -1.5075
  139MOL    H7736233   2.352   6.160   3.497 -0.2005 -3.7338 -0.1311
  139MOL    H7836234   2.223   6.214   3.400 -0.6041 -1.7300  0.8405
  139MOL    H7936235   2.298   6.056   3.363  2.7512 -0.2301 -2.3792
  139MOL    C8036236   2.525   6.117   3.001 -0.0844 -0.7340  0.2190
  139MOL    C8136237   2.379   6.067   2.981 -0.4272 -0.1421  0.0984
  139MOL    O8236238   2.368   6.005   2.853 -0.1825  0.4537 -0.7519
  139MOL    C8336239   2.420   5.869   2.843  0.2336  0.6829 -0.7785
  139MOL    C8436240   2.359   5.805   2.719  0.3146 -0.4169 -0.8210
  139MOL    H8536241   2.590   6.029   2.989  0.4792 -0.2583 -0.2443
  139MOL    H8636242   2.553   6.192   2.927 -0.5069 -0.1432  0.6643
  139MOL    H8736243   2.349   6.003   3.064 -0.0187  2.0908  1.9973
  139MOL    H8836244   2.403   5.809   2.932 -0.8334  0.6953 -0.9688
  139MOL    H8936245   2.528   5.866   2.828  0.0477  0.5510 -2.1811
  139MOL    H9036246   2.371   5.872   2.634  2.8371  0.9663  0.5446
  139MOL    H9136247   2.411   5.716   2.683  1.6025 -0.3012  0.6636
  139MOL    H9236248   2.258   5.766   2.725 -0.6566  1.9078 -1.6891
  139MOL    C9336249   2.283   6.188   2.975 -0.0844 -0.7097 -1.1202
  139MOL    C9436250   2.132   6.134   2.987 -0.9135  0.3222  0.2401
  139MOL    O9536251   2.057   6.232   2.919  0.2534 -0.2391  0.0880
  139MOL    C9636252   2.052   6.215   2.777 -0.3882 -0.4957 -0.4690
  139MOL    C9736253   1.984   6.341   2.720 -0.2252  0.2585 -0.3062
  139MOL    H9836254   2.298   6.255   2.890  2.4601  0.4017  0.1523
  139MOL    H9936255   2.298   6.254   3.061  0.1798 -2.0151 -0.1508
  139MOL   H10036256   2.123   6.035   2.941 -2.1501 -0.1296  1.4408
  139MOL   H10136257   1.997   6.124   2.754  0.9548 -1.9467  1.8413
  139MOL   H10236258   2.156   6.206   2.743 -0.2329  3.1618 -1.1813
  139MOL   H10336259   1.887   6.357   2.768 -0.7429 -0.9215 -0.9492
  139MOL   H10436260   2.051   6.426   2.731  0.8525 -0.6177 -0.1014
  139MOL   H10536261   1.969   6.327   2.613 -2.1087  1.3104 -0.2116
  139MOL   C10636262   2.080   6.116   3.128  0.3017  0.5939  0.1433
  139MOL   C10736263   1.935   6.078   3.148  0.1776  0.5280  0.4218
  139MOL   O10836264   1.897   6.093   3.289  0.2262 -0.3842  0.0707
  139MOL   C10936265   1.828   6.214   3.318 -0.4222  0.0944  0.3997
  139MOL   C11036266   1.803   6.219   3.461  0.7120 -0.8826 -0.0415
  139MOL   H11136267   2.080   6.218   3.166 -1.0336  1.5412 -2.2856
  139MOL   H11236268   2.144   6.055   3.192 -0.5801  0.7583  1.1998
  139MOL   H11336269   1.879   6.143   3.081 -1.2312  0.0504  1.0914
  139MOL   H11436270   1.729   6.198   3.274 -0.5606 -2.1663  1.4414
  139MOL   H11536271   1.880   6.303   3.282 -0.6515  0.2742  0.5173
  139MOL   H11636272   1.743   6.137   3.501  1.0417 -1.1490 -0.0905
  139MOL   H11736273   1.900   6.236   3.509  0.4700  2.1156 -0.5479
  139MOL   H11836274   1.760   6.312   3.496  0.3064 -1.3328  0.6848
  139MOL   C11936275   1.914   5.928   3.123 -0.4191  0.0216 -0.5335
  139MOL   C12036276   1.781   5.864   3.166  0.5367 -0.3550  0.4429
  139MOL   O12136277   1.791   5.727   3.128  0.3582  0.0797 -0.0876
  139MOL   C12236278   1.844   5.639   3.222  0.3906 -0.1792 -0.1559
  139MOL   C12336279   1.844   5.497   3.163  0.4887 -0.1864  0.3849
  139MOL   H12436280   1.982   5.875   3.189 -1.3638 -1.4810 -0.7230
  139MOL   H12536281   1.947   5.902   3.022  1.6839 -0.0029  0.1469
  139MOL   H12636282   1.778   5.869   3.275 -0.2447 -0.6297  0.4392
  139MOL   H12736283   1.778   5.642   3.309  0.6448  1.7383 -0.0041
  139MOL   H12836284   1.946   5.671   3.244  0.4352 -0.3948 -0.0484
  139MOL   H12936285   1.744   5.472   3.129  0.4529  0.8883 -0.3260
  139MOL   H13036286   1.912   5.487   3.079  0.1764 -1.6335  0.2920
  139MOL   H13136287   1.892   5.424   3.228  2.0948 -0.5551 -1.1815
  139MOL   C13236288   1.649   5.930   3.107 -0.1978  0.3542 -0.7061
  139MOL   C13336289   1.524   5.837   3.108  0.6213 -0.0639  0.5078
  139MOL   O13436290   1.406   5.878   3.030 -0.2781 -0.4722  0.2293
  139MOL   C13536291   1.417   5.864   2.890 -0.2161  0.4938  0.8660
  139MOL   C13636292   1.301   5.914   2.806 -0.1912 -0.6584 -0.5674
  139MOL   H13736293   1.669   5.941   3.000  0.5054  0.1954 -0.5905
  139MOL   H13836294   1.639   6.025   3.158  1.9647  0.2715 -0.0882
  139MOL   H13936295   1.555   5.740   3.069 -1.0816 -0.7371  0.8011
  139MOL   H14036296   1.421   5.756   2.877 -0.4350  0.7380 -1.5950
  139MOL   H14136297   1.511   5.912   2.862  0.3718 -1.0896  0.0132
  139MOL   H14236298   1.297   5.876   2.704  0.0546 -0.2892 -0.7128
  139MOL   H14336299   1.210   5.881   2.856 -0.3741 -0.6081 -0.8672
  139MOL   H14436300   1.297   6.023   2.806 -0.9992 -0.6746 -2.1503
  139MOL   C14536301   1.487   5.802   3.258 -0.6732 -0.5216 -0.7753
  139MOL   C14636302   1.356   5.725   3.280  0.5641 -0.1872 -0.1826
  139MOL   O14736303   1.333   5.705   3.421  0.1964 -0.5051  0.0160
  139MOL   C14836304   1.241   5.800   3.474 -0.0389  0.2076  0.4992
  139MOL   C14936305   1.202   5.751   3.608  0.5846  0.4000 -0.0424
  139MOL   H15036306   1.482   5.892   3.319  2.2362 -0.5345 -0.4590
  139MOL   H15136307   1.577   5.761   3.305 -1.0227  0.6606  0.9870
  139MOL   H15236308   1.276   5.790   3.244 -0.3313  0.9362  3.6013
  139MOL   H15336309   1.148   5.804   3.417  0.3830  2.1400 -0.0934
  139MOL   H15436310   1.262   5.906   3.484  1.0039  0.2089 -1.5411
  139MOL   H15536311   1.141   5.661   3.615 -0.0591  0.9610  2.0133
  139MOL   H15636312   1.294   5.745   3.667 -0.5580  1.8232  1.9577
  139MOL   H15736313   1.145   5.825   3.665  0.1358 -0.1952  0.2944
  139MOL   C15836314   1.358   5.581   3.224 -0.4672 -1.2658 -0.4901
  139MOL   C15936315   1.218   5.515   3.219  0.2596 -0.6723  0.5460
  139MOL   O16036316   1.242   5.371   3.226  0.7598  0.0808  0.2549
  139MOL   C16136317   1.276   5.328   3.361 -0.0449 -0.1411  0.2372
  139MOL   C16236318   1.253   5.181   3.369 -0.4274  0.7620 -0.1344
  139MOL   H16336319   1.430   5.514   3.271 -0.1756 -1.1947 -0.8340
  139MOL   H16436320   1.396   5.582   3.122  2.5146 -0.3099  0.5761
  139MOL   H16536321   1.161   5.528   3.310 -1.0774  0.2633 -0.4074
  139MOL   H16636322   1.218   5.366   3.444  1.7890 -0.4838  1.7094
  139MOL   H16736323   1.379   5.354   3.383 -0.6736  0.2407  2.8076
  139MOL   H16836324   1.303   5.127   3.289 -1.4547 -1.0853  0.4464
  139MOL   H16936325   1.282   5.134   3.463 -0.0851  0.2180 -0.5141
  139MOL   H17036326   1.145   5.163   3.367 -0.1524 -0.9663 -0.2816
  139MOL   C17136327   1.134   5.545   3.097 -0.1875 -0.0716  0.3023
  139MOL   C17236328   1.026   5.659   3.132 -0.1220  0.3472 -0.0216
  139MOL   O17336329   0.923   5.605   3.212  0.1401  0.1439  0.3945
  139MOL   C17436330   0.878   5.681   3.322  0.7019 -1.0935 -0.9924
  139MOL   C17536331   0.726   5.665   3.335 -0.3319 -0.4808 -0.3056
  139MOL   H17636332   1.086   5.456   3.055  1.0442 -0.8624  0.5553
  139MOL   H17736333   1.202   5.582   3.021  1.1648 -2.1671  0.4682
  139MOL   H17836334   1.079   5.742   3.179  0.7213  0.0271 -0.3968
  139MOL   H17936335   0.914   5.784   3.321  1.7858 -1.3885  2.3121
  139MOL   H18036336   0.925   5.637   3.410 -1.3547  1.4149  1.4502
  139MOL   H18136337   0.666   5.735   3.278 -1.3112  0.0229  1.3333
  139MOL   H18236338   0.682   5.565   3.329  2.1158 -1.6108  0.0488
  139MOL   H18336339   0.692   5.691   3.435  0.5772 -0.0820 -0.1017
  139MOL   C18436340   0.961   5.716   3.007  0.6417  0.3645  0.4106
  139MOL   C18536341   0.910   5.621   2.895 -0.2298 -0.3588 -0.0828
  139MOL   O18636342   0.841   5.687   2.793 -0.5422 -0.1831  0.2087
  139MOL   C18736343   0.924   5.739   2.684  0.3710 -0.1755  0.0061
  139MOL   C18836344   0.910   5.891   2.673  0.2482  0.6096 -0.8219
  139MOL   H18936345   1.025   5.786   2.953  2.0451 -1.2241 -0.0124
  139MOL   H19036346   0.875   5.779   3.029 -0.4626  0.1645 -3.0382
  139MOL   H19136347   0.990   5.557   2.858 -1.8481 -3.7306  2.1002
  139MOL   H19236348   0.877   5.696   2.596  0.3937  0.9447 -0.5602
  139MOL   H19336349   1.028   5.712   2.702 -0.2520 -1.2856  2.2131
  139MOL   H19436350   0.967   5.925   2.586  0.9135 -0.3173 -0.7509
  139MOL   H19536351   0.806   5.925   2.668  0.7165  3.2601  4.8418
  139MOL   H19636352   0.959   5.941   2.756 -0.5848  0.3655 -0.1704
  139MOL   C19736353   0.807   5.522   2.948 -0.2767  0.1002 -0.4376
  139MOL   C19836354   0.737   5.429   2.837 -0.4176  0.2656 -1.0197
  139MOL   O19936355   0.643   5.333   2.884  0.0760 -0.4306  0.3645
  139MOL   C20036356   0.507   5.386   2.891 -0.4394  0.4258 -0.2697
  139MOL   C20136357   0.489   5.485   3.006 -0.0388 -0.2529  0.2478
  139MOL   H20236358   0.740   5.596   2.993  2.5972  1.6106  1.5439
  139MOL   H20336359   0.847   5.456   3.025  1.2957 -0.0729 -1.3866
  139MOL   H20436360   0.689   5.494   2.763 -1.6106  3.7489  2.6200
  139MOL   H20536361   0.451   5.295   2.914 -0.0440  0.7899  2.2407
  139MOL   H20636362   0.484   5.427   2.793  3.1834  1.3908 -0.7831
  139MOL   H20736363   0.514   5.586   2.972 -0.7666 -0.3696 -0.6476
  139MOL   H20836364   0.386   5.500   3.040  0.1799  1.5463  0.1640
  139MOL   H20936365   0.541   5.469   3.100  2.0817  1.7260 -0.5358
  139MOL   C21036366   0.850   5.338   2.772 -0.1647  0.6582 -0.3177
  139MOL   C21136367   0.801   5.236   2.658 -0.4648  0.1111 -0.0582
  139MOL   O21236368   0.920   5.193   2.597  0.5810 -0.4302  0.0971
  139MOL   C21336369   0.990   5.084   2.657  0.1069  0.2163  0.6355
  139MOL   C21436370   0.996   4.955   2.572 -0.1608  0.2370  0.2858
  139MOL   H21536371   0.909   5.288   2.848  0.6173  0.9395 -0.7293
  139MOL   H21636372   0.920   5.404   2.720  0.5682 -0.4682 -0.7931
  139MOL   H21736373   0.745   5.150   2.697  1.0168 -1.1149 -0.6117
  139MOL   H21836374   0.950   5.064   2.756 -1.6004  2.0351  0.3526
  139MOL   H21936375   1.089   5.115   2.688  0.4198 -0.4806  0.3415
  139MOL   H22036376   0.894   4.940   2.535 -0.6381  2.0502  0.8333
  139MOL   H22136377   1.068   4.974   2.492 -0.6347 -0.0094 -0.2055
  139MOL   H22236378   1.027   4.872   2.636  0.1847  1.3810  1.6116
  139MOL   C22336379   0.700   5.291   2.551  0.2411 -0.7577 -0.1360
  139MOL   C22436380   0.655   5.199   2.439 -0.2715 -0.9089 -0.3089
  139MOL   O22536381   0.560   5.262   2.344 -0.5214 -0.3947 -0.8604
  139MOL   C22636382   0.606   5.381   2.277 -0.6478 -0.2481  0.4543
  139MOL   C22736383   0.532   5.504   2.322 -0.1646 -0.2406 -0.3236
  139MOL   H22836384   0.748   5.381   2.511  1.3407 -0.8575  0.9507
  139MOL   H22936385   0.612   5.322   2.607  1.4417 -0.0551  1.3894
  139MOL   H23036386   0.746   5.167   2.388  0.9989  1.1027  0.6121
  139MOL   H23136387   0.612   5.372   2.168  2.0751 -1.3725  0.6503
  139MOL   H23236388   0.711   5.400   2.298 -0.4227  0.4197 -1.2392
  139MOL   H23336389   0.563   5.598   2.276 -0.3814 -0.4249 -0.8522
  139MOL   H23436390   0.431   5.494   2.282 -0.7526 -1.1261  1.3687
  139MOL   H23536391   0.532   5.515   2.430 -1.7774 -0.7976 -0.2564
  139MOL   C23636392   0.567   5.077   2.477 -0.6748 -0.2580  0.5632
  139MOL   C23736393   0.544   4.974   2.372 -0.0066  0.3727  0.3081
  139MOL   O23836394   0.447   4.877   2.411  0.1321 -0.3802 -0.5648
  139MOL   C23936395   0.308   4.915   2.399  0.5216  0.0029  0.0153
  139MOL   C24036396   0.232   4.789   2.430 -0.2975 -0.0310  0.1729
  139MOL   H24136397   0.475   5.122   2.513 -0.4947  0.7020 -0.1353
  139MOL   H24236398   0.612   5.029   2.563 -0.7461  2.8120  2.3963
  139MOL   H24336399   0.504   5.025   2.284 -0.1540 -1.4372 -0.6951
  139MOL   H24436400   0.276   4.947   2.300 -2.2227  3.5675  1.8761
  139MOL   H24536401   0.279   5.005   2.454  0.5982 -0.1394  0.2911
  139MOL   H24636402   0.261   4.720   2.350 -0.5132  0.1332 -0.0471
  139MOL   H24736403   0.268   4.735   2.518  2.9090  0.8625 -0.5176
  139MOL   H24836404   0.125   4.806   2.430 -0.2997 -0.0165 -0.7793
  139MOL   C24936405   0.671   4.897   2.325  0.9346 -0.3550  0.2461
  139MOL   C25036406   0.641   4.778   2.233 -0.6198 -0.0942  0.1577
  139MOL   O25136407   0.756   4.737   2.159 -0.2164  0.2826 -0.3198
  139MOL   C25236408   0.871   4.704   2.230  0.5908  1.0953 -0.6179
  139MOL   C25336409   0.966   4.652   2.122 -0.3036 -0.2095 -0.9343
  139MOL   H25436410   0.706   4.854   2.419 -0.1679 -1.1018  0.3350
  139MOL   H25536411   0.741   4.967   2.280 -1.0480 -0.1315 -2.5854
  139MOL   H25636412   0.621   4.697   2.303  0.2255 -0.5323 -0.1047
  139MOL   H25736413   0.848   4.630   2.306  1.7288  0.9313 -0.4333
  139MOL   H25836414   0.910   4.779   2.299 -1.9671  2.3479 -0.4811
  139MOL   H25936415   1.050   4.598   2.167 -0.3551  0.4430 -0.0346
  139MOL   H26036416   0.914   4.580   2.059  0.5498 -0.9130 -0.8581
  139MOL   H26136417   0.995   4.735   2.058 -0.2645  1.6002  1.3828
  139MOL   H26236418   0.561   4.800   2.164 -0.9104 -1.5195  0.0265
  140MOL     C136419   2.731   3.939   7.437 -0.0304 -0.0232  0.5445
  140MOL     C236420   2.741   4.086   7.382  0.1748  0.7730 -0.0566
  140MOL     O336421   2.729   4.156   7.499  0.3496  0.3357 -0.1590
  140MOL     C436422   2.801   4.275   7.500 -0.0040  0.5553  0.1421
  140MOL     C536423   2.783   4.355   7.634 -0.4085  0.9634  0.0088
  140MOL     H636424   2.817   3.919   7.501 -0.9296 -0.7302  1.5545
  140MOL     H736425   2.635   3.926   7.487 -0.4481 -2.8816 -0.9203
  140MOL     H836426   2.838   4.101   7.334  0.4519  0.1624  0.2988
  140MOL     H936427   2.760   4.344   7.426  2.0416  1.5338 -0.1082
  140MOL    H1036428   2.906   4.253   7.482 -0.6964 -1.2346 -1.8300
  140MOL    H1136429   2.793   4.282   7.714 -1.3509 -0.7661 -1.4328
  140MOL    H1236430   2.864   4.428   7.636  0.1275  0.3648  0.4861
  140MOL    H1336431   2.691   4.414   7.637  0.2543  2.1204 -1.8130
  140MOL    H1436432   2.742   3.864   7.359  2.9060  0.8435  0.0634
  140MOL    C1536433   2.637   4.121   7.273 -0.4636 -0.0756 -0.1479
  140MOL    C1636434   2.652   4.062   7.133 -0.6215 -0.9183  0.2346
  140MOL    O1736435   2.771   4.113   7.082 -0.9069 -0.5476  0.1754
  140MOL    C1836436   2.876   4.024   7.051 -0.1511  0.2462  0.8414
  140MOL    C1936437   2.977   4.117   6.989 -0.2940 -0.6554 -0.2768
  140MOL    H2036438   2.618   4.228   7.269 -0.1101 -0.0312 -0.7821
  140MOL    H2136439   2.542   4.083   7.309 -0.5608 -0.7667 -1.1094
  140MOL    H2236440   2.674   3.956   7.141  0.8864 -0.6161  0.3684
  140MOL    H2336441   2.840   3.952   6.977  2.1481 -1.2862  1.1456
  140MOL    H2436442   2.902   3.963   7.137  0.0397 -1.5781 -0.4760
  140MOL    H2536443   3.078   4.077   6.996  0.3683  1.3878  2.3338
  140MOL    H2636444   2.983   4.205   7.052 -0.3832 -1.3182  0.6803
  140MOL    H2736445   2.948   4.162   6.894 -0.5237 -1.1073 -0.4242
  140MOL    C2836446   2.545   4.112   7.032  0.2375  0.2860  0.1485
  140MOL    C2936447   2.408   4.026   7.030 -0.2944 -1.0843 -0.3213
  140MOL    O3036448   2.349   4.037   7.169  0.2408 -0.2743 -0.1409
  140MOL    C3136449   2.288   4.163   7.184 -0.1256  0.3215 -0.1159
  140MOL    C3236450   2.223   4.145   7.328  0.0195  0.4380  0.1864
  140MOL    H3336451   2.596   4.114   6.936  1.3899 -3.6193  0.5891
  140MOL    H3436452   2.525   4.218   7.050 -0.1855  0.1201  0.6693
  140MOL    H3536453   2.350   4.077   6.953  1.6855  1.5069 -0.1870
  140MOL    H3636454   2.222   4.184   7.100  0.9265 -0.2525 -1.1107
  140MOL    H3736455   2.368   4.237   7.179  1.5478 -1.5719 -3.2392
  140MOL    H3836456   2.306   4.115   7.392 -0.0543  4.6456  2.4364
  140MOL    H3936457   2.182   4.240   7.364 -1.6974  0.3696 -1.5330
  140MOL    H4036458   2.138   4.077   7.332 -0.5991  1.1423 -0.9447
  140MOL    C4136459   2.422   3.879   7.002  0.0868  0.0862 -0.3182
  140MOL    C4236460   2.501   3.839   6.877 -0.1034  0.3177 -0.4946
  140MOL    O4336461   2.431   3.884   6.757 -0.2445 -0.4153 -0.6504
  140MOL    C4436462   2.523   3.939   6.663  0.0957  0.8863  0.3564
  140MOL    C4536463   2.444   4.023   6.569 -0.3773  0.1869 -0.1226
  140MOL    H4636464   2.325   3.828   7.004 -0.1095  0.4584 -0.4584
  140MOL    H4736465   2.452   3.828   7.094 -3.0376  0.7392  1.1166
  140MOL    H4836466   2.604   3.873   6.889  0.9532 -2.2207 -1.9534
  140MOL    H4936467   2.563   3.853   6.609 -1.3562 -0.3451  1.2233
  140MOL    H5036468   2.606   3.990   6.714 -1.0282  2.0945  1.0056
  140MOL    H5136469   2.382   4.089   6.630  0.2178 -0.4928  1.2426
  140MOL    H5236470   2.512   4.069   6.498  0.5658 -0.8386  0.1033
  140MOL    H5336471   2.369   3.964   6.518 -1.3939  2.0590 -0.8323
  140MOL    C5436472   2.517   3.689   6.871 -0.0176 -1.0470  0.5740
  140MOL    C5536473   2.603   3.614   6.969 -0.5871  0.1769  1.0940
  140MOL    O5636474   2.739   3.632   6.927 -0.1419 -0.4889  0.0404
  140MOL    C5736475   2.835   3.643   7.036 -0.2856  0.6725  0.0978
  140MOL    C5836476   2.976   3.680   6.984  0.1713 -0.1517 -0.6147
  140MOL    H5936477   2.560   3.664   6.774 -0.4006  0.6795 -0.0607
  140MOL    H6036478   2.415   3.651   6.868 -0.0708 -0.8346 -0.5346
  140MOL    H6136479   2.586   3.664   7.064 -1.0104  0.1878  1.0167
  140MOL    H6236480   2.852   3.541   7.067 -0.3218 -0.0790 -2.2145
  140MOL    H6336481   2.805   3.713   7.114 -1.2014  0.3747  0.0114
  140MOL    H6436482   3.048   3.674   7.065 -3.7079 -1.1996  2.9355
  140MOL    H6536483   3.013   3.602   6.917  1.7104  1.1384 -1.2866
  140MOL    H6636484   2.982   3.776   6.932  1.1432  0.0390 -0.1653
  140MOL    C6736485   2.568   3.460   6.983  0.6594 -0.2053  0.4136
  140MOL    C6836486   2.454   3.430   7.078 -0.0963 -0.7200 -0.0431
  140MOL    O6936487   2.508   3.451   7.207 -0.0808  0.0378 -0.5145
  140MOL    C7036488   2.417   3.502   7.302 -0.0311 -0.5992  0.0270
  140MOL    C7136489   2.484   3.508   7.437  0.2697 -0.0060  0.0802
  140MOL    H7236490   2.659   3.409   7.017  0.3158 -1.4920 -0.5582
  140MOL    H7336491   2.558   3.432   6.878 -1.8766  1.8561  0.0609
  140MOL    H7436492   2.365   3.489   7.055  1.1127  0.2097 -2.5411
  140MOL    H7536493   2.330   3.438   7.315 -0.2063 -0.0709  1.6016
  140MOL    H7636494   2.403   3.606   7.275  0.7207 -0.4052  0.3595
  140MOL    H7736495   2.562   3.584   7.429  1.4794 -1.1437  0.8101
  140MOL    H7836496   2.420   3.546   7.517  1.1660 -0.0831  0.8500
  140MOL    H7936497   2.530   3.414   7.468 -0.9480 -0.6056  0.0558
  140MOL    C8036498   2.416   3.275   7.077  1.1598 -0.4879 -0.4051
  140MOL    C8136499   2.279   3.228   7.128  0.5662 -0.0606 -0.6803
  140MOL    O8236500   2.256   3.099   7.074 -0.2334 -0.1767  0.1062
  140MOL    C8336501   2.283   2.979   7.158  0.2650 -0.5059  0.0276
  140MOL    C8436502   2.269   2.858   7.066 -0.1560 -0.0192  0.2704
  140MOL    H8536503   2.495   3.230   7.137  1.8109  0.7836 -0.2945
  140MOL    H8636504   2.425   3.233   6.977 -2.2961 -0.3369 -0.8734
  140MOL    H8736505   2.282   3.225   7.237 -1.0374  0.3297 -0.6068
  140MOL    H8836506   2.212   2.971   7.240 -0.2300 -0.7576 -0.4166
  140MOL    H8936507   2.385   2.984   7.196 -0.5271  1.7309  1.9993
  140MOL    H9036508   2.325   2.771   7.102  1.4206  0.7664 -0.2091
  140MOL    H9136509   2.171   2.814   7.051 -0.6983  1.2009  0.1894
  140MOL    H9236510   2.308   2.871   6.965 -0.4752 -4.9024 -0.6182
  140MOL    C9336511   2.158   3.303   7.065  0.2468 -0.9398  0.5784
  140MOL    C9436512   2.020   3.251   7.089  0.3317  0.0693 -0.7388
  140MOL    O9536513   1.931   3.332   7.009 -0.3771  0.2188 -0.1704
  140MOL    C9636514   1.845   3.254   6.924 -0.3956  0.4338 -0.3911
  140MOL    C9736515   1.926   3.194   6.807  0.1430 -0.7541 -0.4133
  140MOL    H9836516   2.183   3.297   6.959 -2.7461 -1.6398 -0.1238
  140MOL    H9936517   2.165   3.408   7.093  1.7887 -0.7511 -0.4517
  140MOL   H10036518   2.014   3.143   7.075 -1.2440 -0.0425  0.5898
  140MOL   H10136519   1.762   3.315   6.889 -1.4856 -0.6738  0.2313
  140MOL   H10236520   1.808   3.180   6.995 -2.2165  2.1696  0.5186
  140MOL   H10336521   1.988   3.257   6.744  1.0171 -2.5678 -1.3804
  140MOL   H10436522   1.981   3.111   6.851  1.1009  0.1105  0.0421
  140MOL   H10536523   1.853   3.147   6.742 -0.7463 -1.9900  1.4184
  140MOL   C10636524   1.978   3.267   7.240 -0.1772 -0.0211  0.5981
  140MOL   C10736525   1.844   3.218   7.278 -0.4488 -0.2882  0.2657
  140MOL   O10836526   1.830   3.256   7.414 -0.7288  0.1165 -0.8602
  140MOL   C10936527   1.736   3.355   7.450  0.5103 -0.0925 -0.6108
  140MOL   C11036528   1.698   3.346   7.598  0.4909 -0.1759  0.2612
  140MOL   H11136529   1.980   3.375   7.251  1.4934  0.0410 -0.1106
  140MOL   H11236530   2.054   3.230   7.309 -0.5574 -0.1215  0.9686
  140MOL   H11336531   1.772   3.267   7.212 -2.1382  0.6875  2.7414
  140MOL   H11436532   1.647   3.345   7.388  0.2162  0.4947 -0.2889
  140MOL   H11536533   1.773   3.456   7.436  0.7735  0.1221  1.5120
  140MOL   H11636534   1.781   3.378   7.660  0.6989 -0.6020  0.2067
  140MOL   H11736535   1.621   3.422   7.609 -0.4649 -0.8872 -1.3254
  140MOL   H11836536   1.661   3.245   7.616 -0.7642  0.4853  1.3922
  140MOL   C11936537   1.829   3.064   7.290  0.0121 -0.7308  0.3592
  140MOL   C12036538   1.707   3.025   7.367 -0.3290 -0.3394 -0.7603
  140MOL   O12136539   1.701   2.885   7.376  0.1973  0.0725  0.2982
  140MOL   C12236540   1.758   2.823   7.489 -0.3044 -0.2019 -0.2222
  140MOL   C12336541   1.666   2.818   7.611 -0.0740 -0.4110 -0.0031
  140MOL   H12436542   1.913   3.030   7.351  0.3911  0.6509  0.6338
  140MOL   H12536543   1.837   3.021   7.190  0.9320 -3.0797  1.4011
  140MOL   H12636544   1.722   3.059   7.470 -2.8144 -0.1825 -0.4233
  140MOL   H12736545   1.854   2.866   7.518  0.0143 -1.5959  0.8462
  140MOL   H12836546   1.780   2.720   7.461  0.1309 -0.7416  2.0056
  140MOL   H12936547   1.615   2.911   7.637  0.0292 -0.1037 -0.8892
  140MOL   H13036548   1.575   2.762   7.588  0.7043 -0.7445 -2.3660
  140MOL   H13136549   1.727   2.788   7.696  1.9208 -1.4194 -1.7585
  140MOL   C13236550   1.564   3.076   7.334  0.2064 -0.3511  0.1879
  140MOL   C13336551   1.488   3.000   7.226 -0.1649 -0.4792 -0.0051
  140MOL   O13436552   1.501   3.067   7.106  0.0204  0.3397  0.2507
  140MOL   C13536553   1.507   2.977   6.997 -0.5249 -0.0590 -0.0109
  140MOL   C13636554   1.511   3.059   6.868 -0.7519  0.3554  0.2316
  140MOL   H13736555   1.555   3.180   7.306  2.1525  0.0439  0.9633
  140MOL   H13836556   1.506   3.058   7.425  0.6713 -0.2757  0.4994
  140MOL   H13936557   1.523   2.897   7.222  1.2488  0.0149 -0.5086
  140MOL   H14036558   1.419   2.914   6.990 -0.3942 -0.0788 -1.6259
  140MOL   H14136559   1.597   2.916   7.003 -2.0095 -2.1671  1.4698
  140MOL   H14236560   1.594   3.128   6.879  0.1679 -0.9946  2.1395
  140MOL   H14336561   1.540   2.994   6.785 -1.7309  1.0568 -0.6706
  140MOL   H14436562   1.421   3.111   6.835  0.2393  1.1546 -1.3041
  140MOL   C14536563   1.335   2.991   7.243  0.2312 -0.1595  0.2654
  140MOL   C14636564   1.286   2.900   7.358  0.3611 -0.1625  0.6522
  140MOL   O14736565   1.283   2.766   7.309 -0.4475 -0.4335  0.2194
  140MOL   C14836566   1.371   2.670   7.366 -0.7667 -0.4335 -0.6401
  140MOL   C14936567   1.331   2.534   7.314 -0.4269 -0.1445 -0.5617
  140MOL   H15036568   1.284   2.965   7.150  1.3911  0.6953 -0.6221
  140MOL   H15136569   1.289   3.088   7.260 -3.9798 -1.4117 -3.0496
  140MOL   H15236570   1.348   2.908   7.448 -1.3858 -1.2353  1.9895
  140MOL   H15336571   1.363   2.671   7.475  1.5090  1.1493 -0.4357
  140MOL   H15436572   1.475   2.693   7.339 -0.4503 -0.4955  0.4907
  140MOL   H15536573   1.275   2.537   7.221 -1.6584 -1.3004  0.1303
  140MOL   H15636574   1.406   2.457   7.298 -0.4734  0.0328 -1.6466
  140MOL   H15736575   1.261   2.487   7.384 -0.1382  1.9324  1.1892
  140MOL   C15836576   1.149   2.928   7.406 -1.0744  0.5182 -0.3128
  140MOL   C15936577   1.135   3.043   7.506 -0.0274  0.2976 -0.3315
  140MOL   O16036578   1.116   2.983   7.634  0.6980 -0.0003  0.1652
  140MOL   C16136579   1.225   2.988   7.720  0.3670 -0.7678 -0.7547
  140MOL   C16236580   1.181   2.925   0.007  0.1945 -0.0240 -0.2507
  140MOL   H16336581   1.110   2.835   7.446 -1.7175  1.1058  0.4349
  140MOL   H16436582   1.092   2.953   7.316 -1.9711 -0.5711 -0.0582
  140MOL   H16536583   1.216   3.116   7.503 -0.0285  0.2794 -1.0999
  140MOL   H16636584   1.253   3.090   7.747  0.7789 -0.6003 -1.8131
  140MOL   H16736585   1.317   2.951   7.674  0.6208 -0.9305 -0.1269
  140MOL   H16836586   1.256   2.943   0.084 -2.5628  2.0499  2.0643
  140MOL   H16936587   1.084   2.965   0.037  1.6494  1.6285  2.3895
  140MOL   H17036588   1.173   2.817   7.841 -1.9825 -0.1989  2.7818
  140MOL   C17136589   1.015   3.134   7.471  0.1500  0.9877 -0.0363
  140MOL   C17236590   0.984   3.256   7.567  0.7385  0.0306  0.1975
  140MOL   O17336591   1.109   3.329   7.597 -0.3922  0.0480  0.2206
  140MOL   C17436592   1.155   3.415   7.500 -0.8851  0.9300 -0.1761
  140MOL   C17536593   1.076   3.550   7.497 -0.2371 -0.5943 -0.3358
  140MOL   H17636594   0.922   3.078   7.475  0.3295  0.5234 -1.8998
  140MOL   H17736595   1.040   3.173   7.372 -0.6024  0.2571 -0.5170
  140MOL   H17836596   0.913   3.324   7.519 -0.8445 -0.6010  1.5963
  140MOL   H17936597   1.151   3.364   7.404 -0.5341 -0.2576  0.4301
  140MOL   H18036598   1.262   3.432   7.510 -0.7688  0.9584 -1.4420
  140MOL   H18136599   1.130   3.613   7.427  0.2916 -0.0569  0.5452
  140MOL   H18236600   0.971   3.547   7.467 -0.0407  0.7672 -1.1786
  140MOL   H18336601   1.078   3.596   7.596  3.1139  0.2104 -0.7260
  140MOL   C18436602   0.921   3.199   7.698 -0.2804 -0.0584 -0.8641
  140MOL   C18536603   0.864   3.310   7.796 -0.3980 -0.9462  0.0480
  140MOL   O18636604   0.855   3.251   0.088 -0.3485  0.2529 -0.3604
  140MOL   C18736605   0.973   3.284   0.158  0.2249  0.1157 -0.0938
  140MOL   C18836606   0.973   3.428   0.204 -0.2847  0.8766  0.1186
  140MOL   H18936607   0.998   3.142   7.750  1.4004  1.2308 -1.8941
  140MOL   H19036608   0.843   3.124   7.681 -2.2767  1.5181  1.1459
  140MOL   H19136609   0.923   3.402   7.791 -0.4449 -0.8827  0.6103
  140MOL   H19236610   1.061   3.273   0.095  1.3155  0.6386  1.3168
  140MOL   H19336611   0.978   3.217   0.244 -2.0670  0.2441  0.1871
  140MOL   H19436612   0.905   3.448   0.286  0.7739  1.8577  0.7784
  140MOL   H19536613   1.068   3.449   0.255 -0.0462 -0.0044  0.0475
  140MOL   H19636614   0.959   3.500   0.124 -2.8969 -0.5439 -0.7481
  140MOL   C19736615   0.717   3.360   7.757  0.0052 -0.1691 -0.0894
  140MOL   C19836616   0.665   3.483   7.839 -0.1336  0.1066 -0.4365
  140MOL   O19936617   0.525   3.494   7.823 -0.2559  0.0661  0.3115
  140MOL   C20036618   0.453   3.490   0.102  0.0008 -0.3678  0.2489
  140MOL   C20136619   0.327   3.560   0.089 -0.0641  0.4031 -0.1650
  140MOL   H20236620   0.639   3.285   7.766 -1.0677  0.8366 -0.9522
  140MOL   H20336621   0.718   3.405   7.658  1.8081  1.2659  0.5455
  140MOL   H20436622   0.697   3.463   0.097 -1.8682  0.5056  0.2036
  140MOL   H20536623   0.513   3.525   0.186  2.2235  0.9080 -1.7971
  140MOL   H20636624   0.437   3.384   0.120  1.0080 -0.3879  1.0286
  140MOL   H20736625   0.262   3.533   0.173  0.5675 -0.1894  0.1416
  140MOL   H20836626   0.343   3.667   0.080 -0.0435  0.3668 -0.5674
  140MOL   H20936627   0.278   3.524   7.842 -0.7207  1.3415 -0.1939
  140MOL   C21036628   0.722   3.620   7.798 -0.0036 -0.2772 -0.6609
  140MOL   C21136629   0.691   3.736   0.055  0.2161  0.7012 -0.6329
  140MOL   O21236630   0.735   3.852   0.005  0.4179  0.4275 -0.3824
  140MOL   C21336631   0.637   3.934   7.793 -0.5470 -0.4552 -0.2169
  140MOL   C21436632   0.707   4.068   7.764  0.7501 -0.1652  0.1452
  140MOL   H21536633   0.697   3.641   7.694  2.2980  0.5817 -1.0543
  140MOL   H21636634   0.830   3.618   7.784  0.5845 -0.7979  3.2045
  140MOL   H21736635   0.587   3.730   0.085  0.3813 -0.0382 -0.1961
  140MOL   H21836636   0.564   3.946   0.029  0.0093 -0.4441  0.2919
  140MOL   H21936637   0.598   3.888   7.702 -0.1072 -2.5323  0.6191
  140MOL   H22036638   0.765   4.098   0.008 -0.7113  1.5389  0.5625
  140MOL   H22136639   0.773   4.053   7.678 -0.4812 -0.2844 -0.7959
  140MOL   H22236640   0.635   4.148   7.743 -1.6939 -2.3617 -0.0028
  140MOL   C22336641   0.766   3.732   0.193 -0.2119 -0.0913  0.1057
  140MOL   C22436642   0.732   3.845   0.293 -0.2821  0.1530  0.4299
  140MOL   O22536643   0.854   3.869   0.366  0.3510 -0.7391 -0.1344
  140MOL   C22636644   0.912   4.001   0.363 -0.2885  0.1607  0.1824
  140MOL   C22736645   1.064   3.986   0.381 -0.3176  0.1423 -0.1487
  140MOL   H22836646   0.868   3.741   0.154 -0.9962  2.0058 -1.6054
  140MOL   H22936647   0.753   3.636   0.241 -1.0485 -0.8614 -1.6230
  140MOL   H23036648   0.704   3.929   0.230 -3.1881 -1.4375 -0.5216
  140MOL   H23136649   0.866   4.069   0.435  2.2079  1.9710  0.1118
  140MOL   H23236650   0.890   4.041   0.264  1.1385 -1.9903 -1.0275
  140MOL   H23336651   1.087   3.931   0.472 -0.7743  1.0475  0.5199
  140MOL   H23436652   1.112   3.949   0.290 -0.1914 -1.2811  0.4817
  140MOL   H23536653   1.099   4.090   0.383  1.0815 -0.3249  1.8156
  140MOL   C23636654   0.635   3.799   0.410 -0.4165  0.0372  0.1843
  140MOL   C23736655   0.615   3.918   0.503  0.9988 -0.2436  0.1596
  140MOL   O23836656   0.537   3.874   0.620  0.3565  0.4799  0.4965
  140MOL   C23936657   0.602   3.803   0.724  0.3489  0.2183  0.3206
  140MOL   C24036658   0.502   3.775   0.824 -0.2353 -0.0753  0.4077
  140MOL   H24136659   0.669   3.720   0.476 -2.2201 -0.2447  0.7924
  140MOL   H24236660   0.535   3.767   0.383 -1.1711  0.4484  2.4452
  140MOL   H24336661   0.712   3.950   0.540  0.7725 -0.5415  1.0176
  140MOL   H24436662   0.683   3.865   0.765 -1.4929  1.5734  2.0494
  140MOL   H24536663   0.652   3.713   0.690 -0.9254 -0.1405 -0.5840
  140MOL   H24636664   0.453   3.679   0.811  1.0111 -0.8126  1.1085
  140MOL   H24736665   0.547   3.781   0.923 -1.6136 -1.3778  1.1361
  140MOL   H24836666   0.428   3.855   0.831  0.8734  1.1329 -1.2456
  140MOL   C24936667   0.545   4.043   0.451  0.0190 -0.1112  0.0755
  140MOL   C25036668   0.567   4.175   0.525  0.2394 -0.5572 -0.3438
  140MOL   O25136669   0.650   4.252   0.446  0.0078  0.0866  0.2962
  140MOL   C25236670   0.664   4.388   0.489 -0.7748  0.3680  0.3834
  140MOL   C25336671   0.729   4.466   0.377 -0.2980 -0.2623 -0.6495
  140MOL   H25436672   0.440   4.012   0.454 -0.6549  2.1630  1.2421
  140MOL   H25536673   0.564   4.056   0.345 -1.5126 -1.6688 -0.4254
  140MOL   H25636674   0.473   4.229   0.525  1.9436  2.5327  0.3273
  140MOL   H25736675   0.718   4.393   0.583  1.8122  0.0198 -1.0138
  140MOL   H25836676   0.570   4.435   0.516 -1.0389 -0.5141  1.0100
  140MOL   H25936677   0.835   4.438   0.381 -0.8639 -2.5784 -1.3635
  140MOL   H26036678   0.680   4.445   0.282  0.9608  0.3390 -1.4604
  140MOL   H26136679   0.717   4.574   0.378  1.5859 -0.0149 -1.5809
  140MOL   H26236680   0.600   4.162   0.628 -1.7683  1.0588  0.5320
  141MOL     C136681   6.410   0.540   1.527 -0.6899  0.1340  0.2619
  141MOL     C236682   6.532   0.561   1.620  0.1202  0.2286  0.0043
  141MOL     O336683   6.534   0.705   1.638 -0.2324  0.5453  0.2131
  141MOL     C436684   6.643   0.752   1.712 -0.4352 -0.7733 -0.1876
  141MOL     C536685   6.623   0.900   1.747  0.0747 -0.1322  0.2341
  141MOL     H636686   6.428   0.572   1.425 -1.2477 -1.3716 -0.3262
  141MOL     H736687   6.371   0.438   1.520 -1.5974  0.6464 -2.6411
  141MOL     H836688   6.495   0.510   1.709  0.6231 -1.3018 -0.6359
  141MOL     H936689   6.741   0.738   1.666 -0.9098 -0.4326 -1.3316
  141MOL    H1036690   6.657   0.692   1.801 -0.2157 -0.8235 -0.2566
  141MOL    H1136691   6.716   0.937   1.790  1.4002 -2.0678 -0.9187
  141MOL    H1236692   6.618   0.962   1.658 -0.2753 -0.3879  0.0731
  141MOL    H1336693   6.544   0.919   1.820  0.2265  0.8931  0.1381
  141MOL    H1436694   6.322   0.594   1.562  0.4207  0.4837  2.6577
  141MOL    C1536695   6.660   0.494   1.570  0.3020  0.2616 -0.0692
  141MOL    C1636696   6.651   0.339   1.564  0.1675 -0.2618  0.1783
  141MOL    O1736697   6.679   0.286   1.697 -0.6796 -0.0949  0.3516
  141MOL    C1836698   6.651   0.153   1.717 -0.6143 -0.0289 -0.7679
  141MOL    C1936699   6.708   0.120   1.856  0.2337  0.3351  0.2633
  141MOL    H2036700   6.745   0.529   1.628  1.5258 -1.6553 -0.6665
  141MOL    H2136701   6.679   0.546   1.476  0.0040  3.4022  1.5340
  141MOL    H2236702   6.546   0.310   1.553  0.2289 -0.1381 -0.7465
  141MOL    H2336703   6.690   0.083   1.643  0.2819  1.2056 -1.4747
  141MOL    H2436704   6.542   0.148   1.711 -0.6583 -1.2264  0.7081
  141MOL    H2536705   6.811   0.151   1.874  0.2954 -0.2651  0.9289
  141MOL    H2636706   6.694   0.015   1.882 -1.0273 -0.2899 -2.6663
  141MOL    H2736707   6.650   0.161   1.938  1.0007 -0.0970  1.0185
  141MOL    C2836708   6.733   0.272   1.454 -0.0121 -0.6458 -0.3054
  141MOL    C2936709   6.688   0.301   1.308  0.3622  0.0583  0.2326
  141MOL    O3036710   6.556   0.260   1.291  0.2599  0.1757  0.2327
  141MOL    C3136711   6.480   0.335   1.196 -0.5348  0.2061  0.0331
  141MOL    C3236712   6.342   0.291   1.213 -0.0457 -0.5856  0.7960
  141MOL    H3336713   6.754   0.167   1.478 -5.0144 -1.8501 -0.7193
  141MOL    H3436714   6.832   0.318   1.464 -1.0785  1.2493  2.1952
  141MOL    H3536715   6.697   0.408   1.291 -1.1514  0.1550 -0.0347
  141MOL    H3636716   6.518   0.334   1.093  0.4810  1.0491  0.3828
  141MOL    H3736717   6.472   0.438   1.232 -2.4922 -0.2330  0.8966
  141MOL    H3836718   6.311   0.286   1.318  1.2499 -0.5764  1.1796
  141MOL    H3936719   6.270   0.345   1.152  1.6333 -0.3143 -0.9728
  141MOL    H4036720   6.330   0.187   1.182 -2.1643  0.0776 -0.7462
  141MOL    C4136721   6.772   0.225   1.203  0.5418 -0.2515  0.3005
  141MOL    C4236722   6.738   0.072   1.181  0.0210 -0.0992 -0.1043
  141MOL    O4336723   6.859   0.004   1.158 -0.2292 -0.4516  0.2833
  141MOL    C4436724   6.911   7.786   1.279  0.4975  0.0124  0.4736
  141MOL    C4536725   7.002   7.663   1.257  0.3828 -0.1522 -0.2323
  141MOL    H4636726   6.876   0.233   1.235  0.6908 -3.0607  0.7274
  141MOL    H4736727   6.772   0.277   1.108 -1.0205 -1.1108 -0.1921
  141MOL    H4836728   6.685   0.020   1.261  2.5037 -0.0162  1.6714
  141MOL    H4936729   6.834   7.742   1.343  2.5490 -2.9241  1.0188
  141MOL    H5036730   6.965   0.011   1.345  1.6171 -0.5882  0.1969
  141MOL    H5136731   6.966   7.571   1.212  1.2938 -0.1642 -0.9642
  141MOL    H5236732   7.098   7.693   1.215 -0.6017 -0.2697 -2.6168
  141MOL    H5336733   7.040   7.626   1.353 -0.8678  0.1004  0.3656
  141MOL    C5436734   6.650   0.065   1.055  0.3563  0.0445  0.4090
  141MOL    C5536735   6.648   7.767   0.999  0.1721  0.0605  0.1376
  141MOL    O5636736   6.569   7.771   0.883 -0.1662 -0.5666  0.4059
  141MOL    C5736737   6.648   7.815   0.763 -0.0398  1.2290  0.2465
  141MOL    C5836738   6.556   7.816   0.645 -0.7178 -0.1035 -1.3389
  141MOL    H5936739   6.664   0.140   0.978 -1.7557  0.3389  0.2840
  141MOL    H6036740   6.547   0.084   1.087  0.7681  0.4355  1.5133
  141MOL    H6136741   6.752   7.743   0.976  0.8559  0.9357  2.2219
  141MOL    H6236742   6.735   7.754   0.738 -0.2181  0.7337  0.8286
  141MOL    H6336743   6.680   0.073   0.786  0.5495  0.9191  0.8031
  141MOL    H6436744   6.600   7.838   0.548 -0.8725  0.8435 -1.1991
  141MOL    H6536745   6.519   7.716   0.627  2.0336 -1.3742 -0.2142
  141MOL    H6636746   6.471   0.039   0.664 -0.1859 -0.0051  0.8109
  141MOL    C6736747   6.578   7.655   1.084  0.1720  0.0481 -0.0252
  141MOL    C6836748   6.573   7.522   1.014 -0.4410  0.0304  0.6650
  141MOL    O6936749   6.493   7.439   1.097  0.0634  0.2046 -0.5964
  141MOL    C7036750   6.355   7.442   1.072  0.2440  0.2188  0.1385
  141MOL    C7136751   6.290   7.367   1.192  0.7353  0.1259 -0.1343
  141MOL    H7236752   6.480   7.688   1.118  1.4253  1.7074  2.1215
  141MOL    H7336753   6.636   7.645   1.176  2.4264  1.1453 -1.2729
  141MOL    H7436754   6.534   7.542   0.914  0.9758  1.4305  0.3678
  141MOL    H7536755   6.348   7.384   0.980 -2.5835 -1.7971  1.5264
  141MOL    H7636756   6.313   7.541   1.052  0.6056  0.3686  0.1335
  141MOL    H7736757   6.322   7.392   1.293  0.7085  1.1558 -0.3732
  141MOL    H7836758   6.182   7.360   1.178  0.6615 -1.5767  1.1923
  141MOL    H7936759   6.313   7.261   1.189  1.9508  0.4020 -0.6325
  141MOL    C8036760   6.706   7.449   0.989  0.1529 -1.1228 -0.1420
  141MOL    C8136761   6.719   7.367   0.864 -0.1808  0.0773  0.3332
  141MOL    O8236762   6.852   7.315   0.869 -0.0087  0.5485 -0.2156
  141MOL    C8336763   6.878   7.194   0.944  0.3665 -0.2337  0.3600
  141MOL    C8436764   7.005   7.125   0.895 -0.2265  0.1739 -0.1117
  141MOL    H8536765   6.740   7.389   1.074  1.4230  0.0979  0.2281
  141MOL    H8636766   6.783   7.525   0.996 -0.8906 -0.0964  0.2722
  141MOL    H8736767   6.641   7.291   0.855 -0.3097  0.2837 -0.2874
  141MOL    H8836768   6.803   7.119   0.919  0.8331 -1.7276  3.3580
  141MOL    H8936769   6.880   7.207   1.052 -0.0795  0.2655  0.3110
  141MOL    H9036770   7.092   7.170   0.943 -1.5942  1.0714  1.5633
  141MOL    H9136771   6.995   7.020   0.924  1.2388 -0.2876 -1.2431
  141MOL    H9236772   7.017   7.136   0.788  0.0867  0.1006 -0.0861
  141MOL    C9336773   6.724   7.445   0.736  0.3113  0.7376 -1.1673
  141MOL    C9436774   6.732   7.364   0.601  0.2084 -0.1018  0.4906
  141MOL    O9536775   6.726   7.442   0.482  0.0189 -0.2339 -0.3874
  141MOL    C9636776   6.848   7.508   0.446  0.2923 -0.5226 -0.0982
  141MOL    C9736777   6.817   7.659   0.424  0.2528  0.4456 -0.3503
  141MOL    H9836778   6.811   7.509   0.751 -1.4398  3.2270 -1.3914
  141MOL    H9936779   6.643   7.518   0.738  0.3492  0.7601  0.7381
  141MOL   H10036780   6.825   7.308   0.600 -0.6628 -1.5790 -1.1735
  141MOL   H10136781   6.891   7.457   0.360  0.2399 -0.9022  0.1007
  141MOL   H10236782   6.928   7.503   0.520 -0.5525 -1.2121  0.7734
  141MOL   H10336783   6.745   7.675   0.344 -1.0782  0.6247  0.8446
  141MOL   H10436784   6.785   7.706   0.517  0.7489  1.6779 -0.7868
  141MOL   H10536785   6.909   7.708   0.393  0.9376 -1.2453 -1.0480
  141MOL   C10636786   6.614   7.265   0.600 -0.0200  0.1472 -0.0623
  141MOL   C10736787   6.589   7.172   0.469  0.3600  0.3539  0.6496
  141MOL   O10836788   6.499   7.063   0.502 -0.1863  0.6302 -0.1796
  141MOL   C10936789   6.362   7.093   0.502  0.1775 -0.6078  0.7668
  141MOL   C11036790   6.284   6.966   0.511 -0.0448  0.0264 -0.4452
  141MOL   H11136791   6.520   7.313   0.625 -0.8031 -1.5367  0.2648
  141MOL   H11236792   6.634   7.201   0.686 -0.3190  0.8732  0.5490
  141MOL   H11336793   6.543   7.231   0.389 -2.6142 -2.6448  0.0086
  141MOL   H11436794   6.330   7.143   0.411  0.1869 -1.6710  0.1702
  141MOL   H11536795   6.352   7.159   0.588  1.2252 -0.5835  0.8801
  141MOL   H11636796   6.182   6.986   0.544  0.1713  0.0635  0.2176
  141MOL   H11736797   6.291   6.910   0.418  1.5459 -0.2058 -0.1879
  141MOL   H11836798   6.331   6.903   0.586 -1.0538  0.3668  0.4855
  141MOL   C11936799   6.719   7.115   0.408  0.1686 -0.9255  0.2559
  141MOL   C12036800   6.686   7.003   0.306 -0.5149 -0.2654  0.3551
  141MOL   O12136801   6.813   6.959   0.251  0.1751  0.0353 -0.3380
  141MOL   C12236802   6.863   6.848   0.317  0.2197 -0.0139  0.7551
  141MOL   C12336803   6.993   6.796   0.259  0.3037 -0.0944  0.0151
  141MOL   H12436804   6.780   7.066   0.484  1.4431  1.0502  0.5175
  141MOL   H12536805   6.786   7.192   0.371 -0.3315 -0.1406  0.9704
  141MOL   H12636806   6.628   6.920   0.346  0.6675 -1.4292 -0.2923
  141MOL   H12736807   6.789   6.769   0.305 -1.1242  1.2775  0.4809
  141MOL   H12836808   6.872   6.840   0.425 -0.1460 -1.7133  0.6842
  141MOL   H12936809   6.978   6.762   0.157 -0.1495  1.6058 -0.5086
  141MOL   H13036810   7.061   6.882   0.259  0.7283 -0.4271  0.1569
  141MOL   H13136811   7.033   6.714   0.319 -0.7051 -1.0893 -0.6558
  141MOL   C13236812   6.588   7.048   0.192  0.1286  0.5786 -0.1306
  141MOL   C13336813   6.594   6.977   0.059 -0.2202 -0.1239 -1.0957
  141MOL   O13436814   6.501   7.055   7.821  0.2837  0.9189  0.1195
  141MOL   C13536815   6.490   7.027   7.678  0.0388 -0.3627  0.3721
  141MOL   C13636816   6.608   7.092   7.598 -0.0389 -0.2779 -0.1617
  141MOL   H13736817   6.602   7.154   0.169  0.6531  1.3109  3.2246
  141MOL   H13836818   6.484   7.045   0.225  0.3895  1.0413  0.7359
  141MOL   H13936819   6.691   7.001   0.016  0.4237  0.2250  0.5395
  141MOL   H14036820   6.391   7.068   7.659 -0.2741 -1.0866  0.4351
  141MOL   H14136821   6.470   6.921   7.660  0.1310  0.0110 -2.1160
  141MOL   H14236822   6.707   7.052   7.621 -0.1733 -0.5778 -0.1050
  141MOL   H14336823   6.590   7.063   7.494 -1.6668  1.0160 -0.2526
  141MOL   H14436824   6.606   7.200   7.610 -1.1188 -0.6749  3.9403
  141MOL   C14536825   6.573   6.823   0.074  0.1941 -0.2670 -0.6536
  141MOL   C14636826   6.441   6.769   0.139  0.2026  0.0567 -0.2083
  141MOL   O14736827   6.450   6.637   0.193 -0.0658 -0.3953  0.1180
  141MOL   C14836828   6.495   6.619   0.319  0.0871  0.2395 -0.1001
  141MOL   C14936829   6.436   6.488   0.368  0.3156  0.0901  0.3356
  141MOL   H15036830   6.662   6.789   0.127 -0.4293 -0.3276  0.3602
  141MOL   H15136831   6.578   6.787   7.814 -0.1631 -0.9561 -0.4340
  141MOL   H15236832   6.391   6.843   0.201 -0.9433  0.7776 -1.9783
  141MOL   H15336833   6.460   6.702   0.381  1.6354  0.7387  0.1073
  141MOL   H15436834   6.603   6.625   0.316  0.1175  1.1685  2.1200
  141MOL   H15536835   6.467   6.475   0.471  0.7548 -1.3247  0.0372
  141MOL   H15636836   6.329   6.494   0.345  0.3343 -0.5014  0.0648
  141MOL   H15736837   6.479   6.407   0.308 -0.5130 -0.5946  0.6530
  141MOL   C15836838   6.329   6.770   0.032 -0.1427 -0.7007 -0.0037
  141MOL   C15936839   6.196   6.698   0.082  0.6781 -0.1410 -0.4061
  141MOL   O16036840   6.101   6.676   7.819 -0.3641 -0.3425 -0.0186
  141MOL   C16136841   6.099   6.541   7.764 -0.5486  0.0947 -0.2660
  141MOL   C16236842   5.978   6.534   7.672 -0.1302 -0.2086 -0.1642
  141MOL   H16336843   6.350   6.717   7.783  1.8649  0.2438 -0.1076
  141MOL   H16436844   6.301   6.871   0.003 -1.0152 -1.0296 -0.3509
  141MOL   H16536845   6.212   6.602   0.129 -0.4103  1.0693  2.5637
  141MOL   H16636846   6.082   6.471   0.002 -1.5153  1.1583  0.4575
  141MOL   H16736847   6.195   6.519   7.716 -1.0205 -0.4952 -0.9448
  141MOL   H16836848   5.888   6.500   7.723 -0.1068 -0.0429 -0.0101
  141MOL   H16936849   5.960   6.635   7.637 -1.8192 -1.1334 -2.0060
  141MOL   H17036850   5.993   6.470   7.586  3.0256  1.9226 -1.2992
  141MOL   C17136851   6.107   6.785   0.182  0.5713  0.0169  0.3183
  141MOL   C17236852   6.008   6.704   0.264  0.4825  0.7270  0.6823
  141MOL   O17336853   5.896   6.779   0.313  0.4192 -0.5244  0.4635
  141MOL   C17436854   5.809   6.824   0.204 -0.3799 -0.2005  0.2916
  141MOL   C17536855   5.667   6.854   0.268 -0.3335 -0.1320  0.2398
  141MOL   H17636856   6.062   6.869   0.129  0.4394  0.4992  1.1728
  141MOL   H17736857   6.173   6.838   0.252  1.0731 -2.1345  1.5270
  141MOL   H17836858   5.961   6.623   0.208 -1.3236  2.4194 -0.3208
  141MOL   H17936859   5.802   6.745   0.130  0.6498 -0.9879  1.0349
  141MOL   H18036860   5.851   6.912   0.154 -1.4066 -0.1495 -0.5086
  141MOL   H18136861   5.653   6.955   0.306  1.3611 -0.1981  1.0963
  141MOL   H18236862   5.605   6.848   0.178 -1.5132 -0.3007  1.0686
  141MOL   H18336863   5.652   6.777   0.343  3.4886 -0.6745  0.5401
  141MOL   C18436864   6.073   6.662   0.393 -0.4694  0.6137  0.8313
  141MOL   C18536865   6.000   6.552   0.474  0.2156 -0.1271  0.7510
  141MOL   O18636866   6.070   6.526   0.592  0.4648 -0.5165 -0.2865
  141MOL   C18736867   6.024   6.601   0.707  0.3061  1.3284  0.2428
  141MOL   C18836868   6.116   6.570   0.826 -0.0378 -0.4916 -0.1078
  141MOL   H18936869   6.081   6.751   0.456 -1.0792  0.7531  0.7170
  141MOL   H19036870   6.173   6.627   0.366 -0.8938  1.8216 -2.6471
  141MOL   H19136871   5.897   6.585   0.487  0.1173 -1.0742  2.4298
  141MOL   H19236872   5.918   6.586   0.729  0.6096  0.9771  1.4482
  141MOL   H19336873   6.029   6.706   0.676 -1.6331  0.7055 -2.4323
  141MOL   H19436874   6.108   6.649   0.900  0.8763 -0.6443  0.1621
  141MOL   H19536875   6.096   6.469   0.862  1.8365 -0.2825  1.5745
  141MOL   H19636876   6.207   6.576   0.765 -1.1954 -0.9041 -1.9206
  141MOL   C19736877   5.995   6.412   0.416 -0.2624 -0.6641  0.6282
  141MOL   C19836878   5.916   6.323   0.509 -0.4849  0.1639 -0.4932
  141MOL   O19936879   5.960   6.189   0.489  0.1785 -0.5740 -0.2926
  141MOL   C20036880   6.010   6.119   0.596  0.1721  0.4155  1.5158
  141MOL   C20136881   6.144   6.170   0.645  0.3309  0.2042 -0.0694
  141MOL   H20236882   6.095   6.370   0.403 -0.5342 -0.7141 -1.4454
  141MOL   H20336883   5.948   6.414   0.317  0.7153 -1.0629  0.1441
  141MOL   H20436884   5.924   6.363   0.610  1.4092  3.3888 -1.8262
  141MOL   H20536885   6.017   6.014   0.569  0.8964  0.5678  1.0923
  141MOL   H20636886   5.937   6.131   0.676 -1.7005 -1.9135  0.2255
  141MOL   H20736887   6.195   6.104   0.716  0.1192  0.4151  0.2762
  141MOL   H20836888   6.221   6.195   0.571  0.4056  0.3378  0.0541
  141MOL   H20936889   6.136   6.261   0.704 -0.4658 -1.0925  1.8642
  141MOL   C21036890   5.763   6.309   0.482  0.3825 -0.3410 -0.4140
  141MOL   C21136891   5.688   6.286   0.616 -0.1964  0.2489 -0.2523
  141MOL   O21236892   5.576   6.208   0.581 -0.1340 -0.5576  0.4276
  141MOL   C21336893   5.595   6.068   0.610 -0.1851  0.0168 -0.4214
  141MOL   C21436894   5.468   5.999   0.560  0.4170 -0.7625  0.0424
  141MOL   H21536895   5.744   6.231   0.408 -0.8944 -1.1466  0.7433
  141MOL   H21636896   5.721   6.396   0.430  1.3465  0.3216 -0.0836
  141MOL   H21736897   5.758   6.232   0.679 -0.5758  0.6435  0.5174
  141MOL   H21836898   5.617   6.042   0.714 -0.6368 -1.8508 -0.7755
  141MOL   H21936899   5.686   6.044   0.556  0.7551 -1.5155  1.7736
  141MOL   H22036900   5.483   5.999   0.452 -0.8745 -2.1677 -0.1357
  141MOL   H22136901   5.465   5.899   0.603 -0.0430 -0.9019 -0.3121
  141MOL   H22236902   5.370   6.043   0.577  0.5658 -0.1139 -0.7438
  141MOL   C22336903   5.635   6.417   0.687  0.7792  0.3187  0.2043
  141MOL   C22436904   5.612   6.396   0.843  0.8178  0.0994 -0.1682
  141MOL   O22536905   5.531   6.500   0.898 -0.5064 -0.3466 -0.2968
  141MOL   C22636906   5.395   6.483   0.883 -0.6983 -0.2726 -0.1464
  141MOL   C22736907   5.332   6.610   0.936 -0.0820  0.4234  0.5667
  141MOL   H22836908   5.538   6.442   0.644  0.6478 -1.2138 -0.3980
  141MOL   H22936909   5.700   6.503   0.670 -1.5819  2.5117  1.8559
  141MOL   H23036910   5.556   6.303   0.848  0.2925  0.4202 -0.0828
  141MOL   H23136911   5.363   6.407   0.954  0.7939 -0.8145 -0.0332
  141MOL   H23236912   5.378   6.463   0.777 -1.7419 -1.6683  0.2665
  141MOL   H23336913   5.376   6.703   0.900 -1.2875  1.4325  1.6796
  141MOL   H23436914   5.225   6.605   0.920  0.2689  1.4427 -2.5695
  141MOL   H23536915   5.342   6.613   1.044  0.5810  0.3541  0.5124
  141MOL   C23636916   5.741   6.388   0.928 -0.0350 -0.1530  0.6203
  141MOL   C23736917   5.726   6.324   1.061 -0.1327  0.6349 -0.2356
  141MOL   O23836918   5.846   6.344   1.144  0.6224 -0.4377  0.4915
  141MOL   C23936919   5.837   6.322   1.281 -0.1677  0.5730  0.0254
  141MOL   C24036920   5.977   6.345   1.342  0.7446 -0.2928  0.0577
  141MOL   H24136921   5.766   6.493   0.943 -2.5167  0.6730 -0.7565
  141MOL   H24236922   5.825   6.344   0.875  0.0723 -0.6249  1.1823
  141MOL   H24336923   5.644   6.375   1.112 -1.0127 -0.5852 -0.4406
  141MOL   H24436924   5.812   6.216   1.294  1.7172 -0.0495 -1.2127
  141MOL   H24536925   5.770   6.393   1.329 -1.3449 -0.4058 -0.1516
  141MOL   H24636926   5.998   6.289   1.434 -1.1131 -0.2443  0.5361
  141MOL   H24736927   6.048   6.298   1.274  2.8895  1.9056  0.7035
  141MOL   H24836928   6.000   6.451   1.343  1.4093 -0.4387  0.7724
  141MOL   C24936929   5.703   6.169   1.048 -0.9951 -0.0772 -0.2791
  141MOL   C25036930   5.833   6.105   0.998  0.9251  0.1807  0.6663
  141MOL   O25136931   5.816   5.962   0.988 -0.3189  0.0519  0.6102
  141MOL   C25236932   5.940   5.896   0.948  0.1284 -0.5154  0.2555
  141MOL   C25336933   5.921   5.836   0.807 -0.2395 -0.2223 -0.9912
  141MOL   H25436934   5.625   6.147   0.975 -1.6205  0.3025  0.2732
  141MOL   H25536935   5.667   6.126   1.141  1.1675 -0.9817  0.1752
  141MOL   H25636936   5.871   6.152   0.908  0.3304 -1.0160 -0.2202
  141MOL   H25736937   5.960   5.817   1.020  0.8140 -0.6191 -0.0526
  141MOL   H25836938   6.026   5.963   0.957  0.3743 -0.5194 -1.7685
  141MOL   H25936939   5.905   5.914   0.733 -2.4100  1.3378  1.0715
  141MOL   H26036940   6.017   5.784   0.803 -0.2258 -0.1960 -0.9963
  141MOL   H26136941   5.845   5.759   0.795 -0.0841 -0.4244 -0.6993
  141MOL   H26236942   5.905   6.122   1.078  0.2950  0.2034  1.2437
  142MOL     C136943   5.455   3.611   3.600 -0.1849 -0.5071  0.2513
  142MOL     C236944   5.593   3.588   3.659 -0.0989 -0.1019  0.0958
  142MOL     O336945   5.649   3.473   3.594  0.1389 -0.1755 -0.3851
  142MOL     C436946   5.734   3.521   3.490 -0.0379 -0.4023  0.2357
  142MOL     C536947   5.746   3.389   3.397 -0.5547  0.3484 -0.6048
  142MOL     H636948   5.383   3.544   3.648  1.1876 -2.4942 -0.3858
  142MOL     H736949   5.416   3.712   3.613  0.4784 -0.3401  0.9862
  142MOL     H836950   5.652   3.679   3.649  1.1391 -1.1516 -2.6121
  142MOL     H936951   5.835   3.544   3.525  0.4472 -0.9303 -0.7781
  142MOL    H1036952   5.699   3.604   3.430 -1.5391 -1.1273  0.0901
  142MOL    H1136953   5.791   3.314   3.463 -0.8142  1.4422  0.8224
  142MOL    H1236954   5.641   3.371   3.371 -1.1296  0.3501  1.5771
  142MOL    H1336955   5.816   3.405   3.316 -0.1809  3.0870  0.2385
  142MOL    H1436956   5.459   3.583   3.495  3.3128  0.7439 -0.0142
  142MOL    C1536957   5.589   3.544   3.807 -0.3342  0.3900  0.7873
  142MOL    C1636958   5.724   3.532   3.875  0.0734  0.2828 -0.0611
  142MOL    O1736959   5.727   3.437   3.979  0.0559 -0.1606  0.1207
  142MOL    C1836960   5.756   3.308   3.931  0.5699 -0.1917 -0.3376
  142MOL    C1936961   5.774   3.223   4.058 -0.1619  0.3155 -0.5057
  142MOL    H2036962   5.527   3.454   3.814 -0.2339  0.2526 -0.1140
  142MOL    H2136963   5.521   3.618   3.849 -0.9663 -0.7406  1.7839
  142MOL    H2236964   5.786   3.501   3.791 -0.1167  1.2009 -0.5570
  142MOL    H2336965   5.855   3.312   3.884  0.8103  2.2886  0.3197
  142MOL    H2436966   5.682   3.264   3.865  1.9194  0.0641 -2.0774
  142MOL    H2536967   5.684   3.234   4.120  1.5384  1.4825  1.8553
  142MOL    H2636968   5.845   3.266   4.129 -1.0248 -1.6109  1.5691
  142MOL    H2736969   5.790   3.117   4.040 -1.1303  0.1824 -0.6281
  142MOL    C2836970   5.783   3.672   3.919  0.1107 -0.0515  0.2925
  142MOL    C2936971   5.936   3.672   3.937  0.0037 -0.1001 -0.0609
  142MOL    O3036972   5.976   3.794   4.004  0.4032 -0.0167  0.2780
  142MOL    C3136973   5.936   3.805   4.136 -0.2563 -0.2268  0.3512
  142MOL    C3236974   6.036   3.897   4.213  0.5683  0.4459 -0.0526
  142MOL    H3336975   5.738   3.712   4.010 -0.4869  0.8597 -0.3902
  142MOL    H3436976   5.743   3.747   3.851 -0.3296 -1.6284 -1.2299
  142MOL    H3536977   5.963   3.581   3.990  0.1135  0.2633  0.5146
  142MOL    H3636978   5.944   3.705   4.180 -0.6798 -0.6524 -0.5283
  142MOL    H3736979   5.831   3.825   4.153 -0.7123 -1.0045 -1.5228
  142MOL    H3836980   6.005   3.907   4.317  2.2488 -0.7817  0.5993
  142MOL    H3936981   6.141   3.868   4.200  0.0836 -0.9037 -1.0196
  142MOL    H4036982   6.022   3.998   4.175  1.2742 -0.3362 -2.4778
  142MOL    C4136983   6.010   3.663   3.799  0.7764 -0.3337 -0.3110
  142MOL    C4236984   6.171   3.652   3.802  0.5976  0.8890 -0.0769
  142MOL    O4336985   6.215   3.707   3.684  0.1506  0.2525 -0.4805
  142MOL    C4436986   6.299   3.818   3.703 -0.2792  0.1489  0.0770
  142MOL    C4536987   6.334   3.877   3.571  0.8861 -0.0626 -0.2006
  142MOL    H4636988   5.983   3.758   3.753  1.3237 -0.0076  0.0397
  142MOL    H4736989   5.974   3.580   3.738  1.1206 -0.5840 -0.1757
  142MOL    H4836990   6.215   3.708   3.884 -1.3029 -2.3689  3.3255
  142MOL    H4936991   6.389   3.797   3.762 -0.2248  0.9825  0.2974
  142MOL    H5036992   6.256   3.900   3.761  0.9311  0.7636  0.1319
  142MOL    H5136993   6.407   3.956   3.587  1.6887 -0.8127 -0.1636
  142MOL    H5236994   6.378   3.806   3.501  0.6868 -1.8719  1.4752
  142MOL    H5336995   6.242   3.916   3.528 -0.7568 -2.0554  1.3924
  142MOL    C5436996   6.223   3.500   3.809  0.8629 -0.0469 -0.0594
  142MOL    C5536997   6.240   3.437   3.955  0.2997  1.0188 -0.5249
  142MOL    O5636998   6.346   3.512   4.015  0.2460  0.2643  0.3564
  142MOL    C5736999   6.322   3.553   4.143 -0.1586  0.1828  0.5042
  142MOL    C5837000   6.431   3.656   4.168 -0.1079  0.1358 -0.0577
  142MOL    H5937001   6.320   3.493   3.759  0.5381  0.9216 -0.8337
  142MOL    H6037002   6.168   3.430   3.747 -1.9370  1.5299  0.5672
  142MOL    H6137003   6.147   3.441   4.011 -0.4776  0.3011 -1.7542
  142MOL    H6237004   6.324   3.478   4.222  0.3525 -1.4965 -1.0409
  142MOL    H6337005   6.223   3.597   4.131  0.0197 -0.0726 -2.3077
  142MOL    H6437006   6.405   3.744   4.108 -0.9789 -0.6852 -0.9206
  142MOL    H6537007   6.427   3.698   4.268 -0.0701 -2.3945  1.0432
  142MOL    H6637008   6.533   3.620   4.156  0.2301  0.9775  0.2798
  142MOL    C6737009   6.294   3.288   3.958 -0.2847 -0.3818  0.1102
  142MOL    C6837010   6.188   3.182   3.979 -0.5835 -0.6516 -0.0212
  142MOL    O6937011   6.159   3.170   4.117 -0.1274  1.0144 -0.3343
  142MOL    C7037012   6.259   3.131   4.205 -0.4625  0.7871  0.2319
  142MOL    C7137013   6.185   3.118   4.338  0.5359  0.3133  0.0590
  142MOL    H7237014   6.378   3.277   4.027 -0.4012 -2.5879 -0.0760
  142MOL    H7337015   6.323   3.264   3.855 -1.1326 -0.8551 -0.0173
  142MOL    H7437016   6.098   3.218   3.928 -1.3399 -1.6421  0.5945
  142MOL    H7537017   6.340   3.203   4.219  1.6678 -1.5772  0.2934
  142MOL    H7637018   6.303   3.036   4.176 -0.5445  1.1802 -1.2091
  142MOL    H7737019   6.091   3.063   4.336  1.0126 -0.5455  0.9532
  142MOL    H7837020   6.251   3.060   4.402  0.0396 -0.3915 -0.0604
  142MOL    H7937021   6.175   3.212   4.393  1.0485  0.8702 -0.7912
  142MOL    C8037022   6.226   3.045   3.916 -0.2795  0.1838  0.7987
  142MOL    C8137023   6.122   2.933   3.957  0.3330  0.8695  0.6330
  142MOL    O8237024   6.179   2.804   3.949  0.0678 -0.4521  0.6298
  142MOL    C8337025   6.262   2.771   4.059 -0.2142  1.2984 -0.1278
  142MOL    C8437026   6.299   2.619   4.032 -0.0542  0.0108 -0.6834
  142MOL    H8537027   6.325   3.027   3.957  0.4538  0.4223 -0.8248
  142MOL    H8637028   6.237   3.057   3.809  0.8939  1.5067  1.0604
  142MOL    H8737029   6.091   2.935   4.061  0.4426 -0.9849  0.7213
  142MOL    H8837030   6.203   2.783   4.150 -1.4172  0.1926 -0.7358
  142MOL    H8937031   6.351   2.833   4.070 -0.3170  1.0056  2.4973
  142MOL    H9037032   6.330   2.573   4.125 -0.7105 -0.0132 -0.4734
  142MOL    H9137033   6.209   2.566   4.000 -2.6784  2.7735  1.9180
  142MOL    H9237034   6.383   2.618   3.962  0.5292 -2.0834  0.0070
  142MOL    C9337035   5.994   2.943   3.874  0.0496 -0.0252  0.1681
  142MOL    C9437036   6.000   2.917   3.719  0.5722 -0.7174 -0.2339
  142MOL    O9537037   5.862   2.923   3.671  1.2829 -0.0133 -0.5199
  142MOL    C9637038   5.827   3.053   3.633 -0.4476 -0.3029 -0.3804
  142MOL    C9737039   5.689   3.053   3.581  0.0511 -0.0613  0.1240
  142MOL    H9837040   5.950   3.042   3.882 -1.8111 -0.6277 -1.9944
  142MOL    H9937041   5.919   2.881   3.922 -0.8352 -0.4963 -1.7770
  142MOL   H10037042   6.061   2.995   3.673 -0.0671  0.1467  0.3647
  142MOL   H10137043   5.896   3.074   3.551 -0.2038 -0.7311 -0.2834
  142MOL   H10237044   5.842   3.132   3.706  1.3052 -1.6379  0.7403
  142MOL   H10337045   5.652   3.150   3.549  0.7890  0.1784 -0.0317
  142MOL   H10437046   5.677   2.998   3.488  2.5714  0.2203 -0.4312
  142MOL   H10537047   5.626   3.011   3.659  1.5299  0.1068  1.4418
  142MOL   C10637048   6.064   2.781   3.674  0.2996 -0.1926 -0.0992
  142MOL   C10737049   6.075   2.753   3.522  0.6806 -0.4314  0.8690
  142MOL   O10837050   6.116   2.875   3.468  0.1344  0.1739  0.4576
  142MOL   C10937051   6.248   2.902   3.479 -0.6777  0.2637 -0.3265
  142MOL   C11037052   6.281   3.008   3.379  0.4190 -0.7242  0.3507
  142MOL   H11137053   6.012   2.695   3.717  1.7631 -1.3891 -0.6602
  142MOL   H11237054   6.164   2.776   3.719 -0.7046  1.9380  2.4888
  142MOL   H11337055   6.148   2.677   3.495 -1.1257 -1.5023 -1.2442
  142MOL   H11437056   6.310   2.816   3.454 -2.3560 -1.3850  1.0613
  142MOL   H11537057   6.280   2.929   3.580 -1.4666  1.1290 -0.3012
  142MOL   H11637058   6.280   3.103   3.433 -0.4091 -1.7500  2.2043
  142MOL   H11737059   6.382   3.001   3.339 -0.4469 -2.1073 -1.6138
  142MOL   H11837060   6.225   3.004   3.287 -0.3587 -0.2043  0.7986
  142MOL   C11937061   5.948   2.707   3.452  0.1202 -0.2855 -0.3478
  142MOL   C12037062   5.902   2.568   3.501 -0.0381 -0.0087  0.1013
  142MOL   O12137063   5.999   2.471   3.455  0.7109  0.5766 -0.2349
  142MOL   C12237064   6.023   2.369   3.545  0.4357  0.1685  0.4707
  142MOL   C12337065   6.052   2.243   3.471  0.0832 -0.9453 -0.0245
  142MOL   H12437066   5.986   2.687   3.352 -2.5903  0.4620 -1.5800
  142MOL   H12537067   5.871   2.784   3.455  0.1100 -0.3246  0.5604
  142MOL   H12637068   5.897   2.564   3.610  1.3827  2.2944  0.2791
  142MOL   H12737069   5.936   2.336   3.602  0.2140 -0.2880 -0.1312
  142MOL   H12837070   6.100   2.392   3.619 -1.0035 -0.5964  2.2656
  142MOL   H12937071   5.998   2.216   3.381 -0.3840 -2.5314  0.7302
  142MOL   H13037072   6.157   2.248   3.439  0.5029 -1.3429  1.2645
  142MOL   H13137073   6.039   2.154   3.532  0.9290 -2.0489 -1.4367
  142MOL   C13237074   5.770   2.521   3.429 -0.5079  0.2634  0.7950
  142MOL   C13337075   5.648   2.600   3.490  0.0411 -0.3150 -0.1168
  142MOL   O13437076   5.656   2.566   3.626  0.3048  0.1491 -0.0522
  142MOL   C13537077   5.592   2.657   3.711 -0.0159  0.1758  0.8902
  142MOL   C13637078   5.622   2.605   3.849 -0.5117  0.8321 -0.9103
  142MOL   H13737079   5.749   2.415   3.446 -0.2704 -0.4925 -3.0596
  142MOL   H13837080   5.789   2.533   3.322  0.4731 -0.0790  0.9296
  142MOL   H13937081   5.650   2.705   3.463 -1.5527 -0.4385 -0.7490
  142MOL   H14037082   5.484   2.662   3.695  0.3523  2.9531 -1.1145
  142MOL   H14137083   5.639   2.754   3.696 -0.7718  0.4023 -0.1267
  142MOL   H14237084   5.575   2.507   3.863 -0.1466  0.7587 -0.2276
  142MOL   H14337085   5.730   2.602   3.865 -0.3512  0.0729 -2.0262
  142MOL   H14437086   5.582   2.669   3.927  1.4350  1.4541 -0.3956
  142MOL   C14537087   5.519   2.529   3.452  0.2695  0.2513 -0.3788
  142MOL   C14637088   5.457   2.566   3.317  0.1947 -0.1882 -0.0393
  142MOL   O14737089   5.427   2.703   3.304  0.1950 -0.2031 -0.2263
  142MOL   C14837090   5.369   2.760   3.415 -0.5713 -0.5231  0.8401
  142MOL   C14937091   5.343   2.908   3.364 -0.6598  0.0729  0.0649
  142MOL   H15037092   5.439   2.528   3.526  0.6065  2.0270  0.0328
  142MOL   H15137093   5.537   2.422   3.441 -0.2106 -0.3088  3.5508
  142MOL   H15237094   5.535   2.549   3.242 -0.3559  0.1864 -0.7064
  142MOL   H15337095   5.435   2.773   3.501  1.9923 -1.2185 -0.9695
  142MOL   H15437096   5.275   2.710   3.439 -2.4728  2.4278 -0.2043
  142MOL   H15537097   5.278   2.905   3.277 -1.9837  1.0094  1.0053
  142MOL   H15637098   5.297   2.968   3.443  0.5378 -0.5191  1.2504
  142MOL   H15737099   5.432   2.965   3.337 -0.6508  0.6772  1.3104
  142MOL   C15837100   5.336   2.481   3.272  0.1196 -0.4583  0.3551
  142MOL   C15937101   5.360   2.363   3.179  0.0978 -0.2279  0.1610
  142MOL   O16037102   5.402   2.408   3.051  0.4051 -0.2276  0.4672
  142MOL   C16137103   5.537   2.380   3.034 -0.7957 -0.4168 -0.0914
  142MOL   C16237104   5.575   2.405   2.893 -0.4410 -0.7180  1.1710
  142MOL   H16337105   5.263   2.547   3.226 -1.0019  0.3871  3.2274
  142MOL   H16437106   5.285   2.440   3.359 -0.5059 -0.9263 -0.2240
  142MOL   H16537107   5.438   2.299   3.222  0.4812 -1.2450 -1.9861
  142MOL   H16637108   5.557   2.274   3.047  0.6437 -0.7053 -3.9681
  142MOL   H16737109   5.609   2.419   3.106 -0.2726  0.3224 -0.9930
  142MOL   H16837110   5.672   2.361   2.869 -0.4775  1.2934 -2.9900
  142MOL   H16937111   5.511   2.345   2.828  0.2043  0.5832 -0.6938
  142MOL   H17037112   5.568   2.508   2.858 -0.3082 -0.9173  0.5572
  142MOL   C17137113   5.240   2.280   3.156 -0.7230  0.6405  0.1182
  142MOL   C17237114   5.268   2.126   3.179  0.7382  1.3481 -0.6676
  142MOL   O17337115   5.357   2.071   3.079 -0.3434 -0.1887 -0.0723
  142MOL   C17437116   5.320   2.084   2.950  0.0718  0.4230  0.0077
  142MOL   C17537117   5.428   2.000   2.883 -0.1478  0.3549  0.8162
  142MOL   H17637118   5.185   2.296   3.064 -2.0461  0.5845  0.8814
  142MOL   H17737119   5.155   2.301   3.221  0.3189 -1.3290  2.1961
  142MOL   H17837120   5.325   2.126   3.272  0.4792  0.5117 -0.5014
  142MOL   H17937121   5.326   2.186   2.913 -1.7758  0.6964  0.4229
  142MOL   H18037122   5.219   2.049   2.929  0.6703  0.3127 -2.8944
  142MOL   H18137123   5.433   2.009   2.775 -0.6361  0.1614  0.7754
  142MOL   H18237124   5.523   2.035   2.922  0.0994 -0.5089  0.9871
  142MOL   H18337125   5.408   1.896   2.909  1.5052  0.0291  0.8149
  142MOL   C18437126   5.148   2.037   3.197  0.4113 -0.7304 -0.3581
  142MOL   C18537127   5.170   1.885   3.185  0.1458  0.0655 -0.0309
  142MOL   O18637128   5.058   1.816   3.243 -0.3939 -0.1417  0.2356
  142MOL   C18737129   4.933   1.839   3.179 -0.3543  0.4579  0.1991
  142MOL   C18837130   4.849   1.721   3.237 -0.9673 -0.5023 -0.5113
  142MOL   H18937131   5.067   2.069   3.131  0.3540  0.1190  0.1093
  142MOL   H19037132   5.123   2.053   3.302  2.0390 -0.6145  0.0129
  142MOL   H19137133   5.183   1.863   3.079  2.3759  1.8229 -0.1693
  142MOL   H19237134   4.944   1.827   3.071 -2.1496  1.9036 -0.1772
  142MOL   H19337135   4.884   1.935   3.195 -1.3939 -0.0058 -0.1564
  142MOL   H19437136   4.745   1.734   3.209 -0.8975  1.9637  0.2164
  142MOL   H19537137   4.902   1.628   3.214  0.3276 -0.4308  1.9697
  142MOL   H19637138   4.867   1.716   3.344  0.6182 -1.7828 -0.8026
  142MOL   C19737139   5.293   1.829   3.255 -1.1623  0.6901 -0.3041
  142MOL   C19837140   5.315   1.679   3.215  0.8843 -0.5073 -0.0288
  142MOL   O19937141   5.326   1.598   3.328 -0.6334  0.0321 -0.1061
  142MOL   C20037142   5.200   1.552   3.387 -0.6958  0.5411  0.1545
  142MOL   C20137143   5.220   1.502   3.521  0.3356  0.3987 -0.2269
  142MOL   H20237144   5.285   1.843   3.363 -0.4411  2.7447 -0.5064
  142MOL   H20337145   5.386   1.883   3.235  0.1947 -0.6602  2.1232
  142MOL   H20437146   5.222   1.655   3.164  0.1127  0.8375  0.7110
  142MOL   H20537147   5.142   1.485   3.323  0.2045 -2.0587  1.9609
  142MOL   H20637148   5.153   1.649   3.395 -0.8036  0.6281 -1.3654
  142MOL   H20737149   5.277   1.583   3.567  0.4136  0.8219 -1.0643
  142MOL   H20837150   5.127   1.489   3.577  0.8196  1.0624  0.7425
  142MOL   H20937151   5.282   1.412   3.530  1.4418  0.9051 -2.5249
  142MOL   C21037152   5.447   1.653   3.134 -0.1180  0.1609 -0.8289
  142MOL   C21137153   5.446   1.514   3.061  0.1900  0.5576  0.6014
  142MOL   O21237154   5.577   1.446   3.066  0.1960  0.8047 -0.2048
  142MOL   C21337155   5.611   1.395   3.198  0.3300 -0.1659  0.9334
  142MOL   C21437156   5.727   1.291   3.182 -0.2409  0.2826  0.3192
  142MOL   H21537157   5.528   1.656   3.207 -1.4450  1.1745  0.6317
  142MOL   H21637158   5.473   1.734   3.066  2.1114  0.6280  0.5040
  142MOL   H21737159   5.374   1.455   3.118 -0.7263  1.7160  0.6756
  142MOL   H21837160   5.528   1.348   3.250 -0.8849  0.3941 -0.4663
  142MOL   H21937161   5.650   1.473   3.264  1.7522 -0.5996  0.6242
  142MOL   H22037162   5.763   1.268   3.283  0.3928  2.3205  0.5859
  142MOL   H22137163   5.703   1.199   3.129  2.4978 -0.4125  0.1882
  142MOL   H22237164   5.806   1.338   3.123 -1.5662  1.5167 -0.4682
  142MOL   C22337165   5.399   1.533   2.910 -0.5451  0.5798 -0.3244
  142MOL   C22437166   5.254   1.586   2.879 -0.1307 -0.0222  0.3720
  142MOL   O22537167   5.161   1.479   2.890 -0.3925  0.1470 -0.2299
  142MOL   C22637168   5.067   1.490   2.992  0.3995  1.1422 -0.5726
  142MOL   C22737169   4.938   1.414   2.949 -0.4342 -0.5769  0.4408
  142MOL   H22837170   5.420   1.454   2.838 -0.3976  0.8813 -0.6141
  142MOL   H22937171   5.474   1.606   2.880 -0.6599  1.2409  0.9400
  142MOL   H23037172   5.228   1.670   2.945 -1.9577  0.1404 -0.4990
  142MOL   H23137173   5.040   1.594   3.008 -0.3133  0.6792  1.4185
  142MOL   H23237174   5.112   1.455   3.085 -1.7381 -0.5058 -0.1009
  142MOL   H23337175   4.949   1.306   2.953  0.4263 -0.4288  2.4553
  142MOL   H23437176   4.839   1.448   2.980 -0.3075 -1.1116  1.4298
  142MOL   H23537177   4.942   1.429   2.841  2.2215  2.1604  0.8419
  142MOL   C23637178   5.242   1.632   2.731 -0.0476  0.6275 -0.0884
  142MOL   C23737179   5.111   1.695   2.679  0.2190 -0.1839  0.7387
  142MOL   O23837180   5.134   1.707   2.538 -0.7891  0.2260  0.1053
  142MOL   C23937181   5.023   1.669   2.462  0.2402  0.4925 -0.2377
  142MOL   C24037182   5.022   1.512   2.442 -0.0080 -0.6773 -0.7776
  142MOL   H24137183   5.249   1.542   2.669  2.6852 -0.2633  1.4367
  142MOL   H24237184   5.326   1.697   2.705 -1.2707  2.4692  0.4496
  142MOL   H24337185   5.029   1.625   2.695  1.1296 -1.2161  0.9077
  142MOL   H24437186   5.034   1.720   2.366 -0.9276  2.0382  0.4326
  142MOL   H24537187   4.927   1.710   2.491  0.8617  2.9558 -1.5116
  142MOL   H24637188   4.953   1.474   2.518 -1.9524  0.0506 -2.1294
  142MOL   H24737189   4.980   1.483   2.346 -0.2031  1.5215 -1.3870
  142MOL   H24837190   5.123   1.472   2.451  0.0375 -0.3925  0.0874
  142MOL   C24937191   5.058   1.831   2.747 -0.2515  0.4516  0.0005
  142MOL   C25037192   4.908   1.843   2.776  0.2115  0.2714 -0.2336
  142MOL   O25137193   4.864   1.973   2.830 -0.3590 -0.4130  0.2420
  142MOL   C25237194   4.828   2.070   2.744 -0.2641  0.9173 -0.1624
  142MOL   C25337195   4.822   2.205   2.821 -0.6894 -0.1449 -0.3001
  142MOL   H25437196   5.087   1.911   2.678 -0.3535  0.2550 -0.2717
  142MOL   H25537197   5.112   1.851   2.839 -0.5159 -0.7873  0.4330
  142MOL   H25637198   4.854   1.817   2.685 -0.7114  0.1825  0.3289
  142MOL   H25737199   4.733   2.039   2.699  0.0601 -1.8416  0.9528
  142MOL   H25837200   4.901   2.099   2.668  0.4291  0.1611  0.2063
  142MOL   H25937201   4.756   2.201   2.908  0.6461  0.7969  0.7757
  142MOL   H26037202   4.922   2.234   2.853 -0.8064 -1.0941  0.9756
  142MOL   H26137203   4.778   2.276   2.752  0.7883 -0.2856 -1.4100
  142MOL   H26237204   4.880   1.759   2.839  0.8101 -0.5628 -1.0604
  143MOL     C137205   1.215   4.482   7.377 -0.6694  0.0610  0.3456
  143MOL     C237206   1.332   4.417   7.303 -0.4429  0.8015 -0.2444
  143MOL     O337207   1.282   4.428   7.168 -0.2736 -0.3576  0.9583
  143MOL     C437208   1.379   4.467   7.074  0.1855 -0.3647  0.1499
  143MOL     C537209   1.322   4.486   6.936 -0.3117 -0.1111  0.6938
  143MOL     H637210   1.244   4.533   7.468  0.5252 -0.6676  0.3768
  143MOL     H737211   1.174   4.565   7.319  1.0847  2.0168  1.8474
  143MOL     H837212   1.420   4.478   7.321 -1.5328  2.7401 -1.3276
  143MOL     H937213   1.464   4.399   7.068  2.5164  2.2136  2.2378
  143MOL    H1037214   1.426   4.563   7.096 -1.3884  0.6799 -0.9350
  143MOL    H1137215   1.254   4.571   6.933 -0.3199 -0.1861 -1.7988
  143MOL    H1237216   1.405   4.510   6.871 -1.3441  1.4977 -0.0627
  143MOL    H1337217   1.264   4.402   6.898 -0.1618  0.2110 -0.2461
  143MOL    H1437218   1.136   4.407   7.381 -1.5302  0.9677  0.6446
  143MOL    C1537219   1.358   4.274   7.334 -0.3613 -0.1293 -0.3427
  143MOL    C1637220   1.379   4.241   7.484 -0.1216  0.7299 -0.0978
  143MOL    O1737221   1.478   4.330   7.531 -0.2069 -0.5224 -0.2870
  143MOL    C1837222   1.435   4.385   7.652  0.4026 -0.4939 -0.4710
  143MOL    C1937223   1.519   4.511   7.677  0.6861  0.4475 -0.2406
  143MOL    H2037224   1.452   4.253   7.283  0.6383  0.1523  1.3401
  143MOL    H2137225   1.287   4.213   7.278  0.4527 -0.7418 -0.7296
  143MOL    H2237226   1.280   4.240   7.529 -0.2950 -1.3455 -0.4823
  143MOL    H2337227   1.445   4.304   7.725  1.7792 -1.0840 -1.2813
  143MOL    H2437228   1.332   4.419   7.655  0.6820  0.5573 -2.4016
  143MOL    H2537229   1.493   4.548   7.776 -0.6052 -1.4532  0.1616
  143MOL    H2637230   1.482   4.571   7.594  0.2145  1.0284  0.3879
  143MOL    H2737231   1.628   4.507   7.677  0.6160 -2.4561 -0.1735
  143MOL    C2837232   1.438   4.104   7.518  0.0932  0.9818 -0.1345
  143MOL    C2937233   1.347   3.987   7.486  0.3586  0.2991  0.0137
  143MOL    O3037234   1.279   3.928   7.593 -0.0594  0.5480 -0.3701
  143MOL    C3137235   1.179   4.002   7.656  0.3348  0.2598 -0.1076
  143MOL    C3237236   1.108   3.917   7.756  0.2782  0.3162 -0.2856
  143MOL    H3337237   1.466   4.112   7.623  0.0945 -3.2906  0.2833
  143MOL    H3437238   1.536   4.089   7.472  1.2571  3.3598  1.4233
  143MOL    H3537239   1.264   4.022   7.424 -0.7522  0.8949  1.8090
  143MOL    H3637240   1.111   4.030   7.576 -0.1333  1.1588  0.6000
  143MOL    H3737241   1.222   4.089   7.706  0.4638  0.3963 -0.4568
  143MOL    H3837242   1.029   3.979   7.796  1.1451  0.0276  1.9676
  143MOL    H3937243   1.047   3.833   7.722  0.0054 -0.0175  1.0043
  143MOL    H4037244   1.170   3.870   7.833  0.6667 -0.1209 -0.8566
  143MOL    C4137245   1.405   3.871   7.408  0.6195 -0.3926  0.9776
  143MOL    C4237246   1.495   3.788   7.494  0.0939  0.2292  0.2190
  143MOL    O4337247   1.621   3.854   7.512 -0.7206  0.1157  0.0964
  143MOL    C4437248   1.692   3.815   7.626 -0.1874  0.2489 -0.0575
  143MOL    C4537249   1.845   3.815   7.601 -0.2902 -0.2737  0.5516
  143MOL    H4637250   1.460   3.904   7.319  1.0863  0.1692  1.4697
  143MOL    H4737251   1.319   3.812   7.377  1.2066 -0.8578  0.1947
  143MOL    H4837252   1.445   3.767   7.589 -2.2166 -0.4388 -1.1226
  143MOL    H4937253   1.653   3.726   7.676  1.4738 -0.9475 -0.8505
  143MOL    H5037254   1.679   3.896   7.697 -2.4613 -0.5884  0.5460
  143MOL    H5137255   1.865   3.723   7.546  0.1444 -0.8661  1.6837
  143MOL    H5237256   1.874   3.900   7.540 -0.3817 -1.4970 -1.2347
  143MOL    H5337257   1.902   3.817   7.694  1.8335  0.6608 -0.7704
  143MOL    C5437258   1.532   3.658   7.430  0.9762  0.3300 -0.2993
  143MOL    C5537259   1.571   3.647   7.281 -0.1612 -0.1402 -0.6072
  143MOL    O5637260   1.545   3.519   7.224  0.2626  0.3508 -0.6716
  143MOL    C5737261   1.407   3.497   7.187  1.0907  1.1493  0.2792
  143MOL    C5837262   1.406   3.386   7.073  0.0418 -0.7652 -0.1045
  143MOL    H5937263   1.439   3.604   7.449  1.2198  0.1067  0.2780
  143MOL    H6037264   1.611   3.617   7.494  0.7230 -2.4267 -1.7000
  143MOL    H6137265   1.509   3.715   7.222 -1.0280 -1.4302 -1.2142
  143MOL    H6237266   1.356   3.581   7.139 -0.4792  0.3481  0.5152
  143MOL    H6337267   1.344   3.463   7.269 -0.3433  3.6215  0.2694
  143MOL    H6437268   1.467   3.299   7.095 -2.1280 -1.9609  1.2845
  143MOL    H6537269   1.305   3.360   7.042 -0.5168  0.7939  0.3298
  143MOL    H6637270   1.445   3.442   6.987 -1.2323  1.3115  0.6156
  143MOL    C6737271   1.719   3.673   7.247  0.5736  0.5681  0.2552
  143MOL    C6837272   1.737   3.749   7.113 -0.4177  0.2627  0.0968
  143MOL    O6937273   1.650   3.860   7.106  0.1383  0.1714  0.3200
  143MOL    C7037274   1.708   3.976   7.168  0.2947 -0.0067  0.1022
  143MOL    C7137275   1.614   4.094   7.130 -0.5212  0.2454 -0.0140
  143MOL    H7237276   1.776   3.580   7.241  1.8109  1.4850 -2.6768
  143MOL    H7337277   1.765   3.737   7.323 -0.3237 -0.9755  2.1580
  143MOL    H7437278   1.841   3.783   7.119  0.2942 -1.9623  1.5865
  143MOL    H7537279   1.808   3.994   7.128  0.3229 -0.2534  0.0651
  143MOL    H7637280   1.714   3.954   7.275 -1.3317 -0.7119  0.0656
  143MOL    H7737281   1.612   4.127   7.027 -2.9172  0.3507  0.0336
  143MOL    H7837282   1.513   4.070   7.165 -0.6953  0.6723 -0.2335
  143MOL    H7937283   1.657   4.176   7.187  1.9717 -0.3310 -0.9764
  143MOL    C8037284   1.716   3.667   6.986 -0.4267 -0.0327 -0.7114
  143MOL    C8137285   1.757   3.732   6.851  0.0078  0.6642 -0.5599
  143MOL    O8237286   1.895   3.758   6.852  1.0414 -0.7163 -0.2818
  143MOL    C8337287   1.984   3.648   6.839 -0.0747  0.9946  0.1088
  143MOL    C8437288   2.137   3.678   6.838 -0.2378 -0.4545 -0.6223
  143MOL    H8537289   1.608   3.652   6.977 -1.4035  4.7726  1.3721
  143MOL    H8637290   1.756   3.566   6.998 -1.0253  0.0913  2.7971
  143MOL    H8737291   1.738   3.661   6.770  0.1012 -0.0266  0.0215
  143MOL    H8837292   1.951   3.603   6.745  0.6415 -0.7548  0.6694
  143MOL    H8937293   1.960   3.585   6.925 -1.1366  1.8229  0.4142
  143MOL    H9037294   2.191   3.587   6.811  1.8529  0.7957 -0.7191
  143MOL    H9137295   2.166   3.749   6.761 -1.2528  2.2849  1.4629
  143MOL    H9237296   2.172   3.710   6.936 -3.4403 -1.0235  0.7759
  143MOL    C9337297   1.697   3.865   6.808 -0.8029  0.0742 -0.0940
  143MOL    C9437298   1.547   3.873   6.801  0.2455 -0.5168 -0.1828
  143MOL    O9537299   1.504   3.774   6.703 -0.1508  0.0229 -0.7264
  143MOL    C9637300   1.381   3.713   6.718 -0.2408  0.6073 -0.4840
  143MOL    C9737301   1.402   3.577   6.662  0.0983 -1.4382 -0.0084
  143MOL    H9837302   1.743   3.896   6.715  2.0995 -3.9221 -0.1387
  143MOL    H9937303   1.729   3.936   6.884  0.7281 -0.6179 -0.0637
  143MOL   H10037304   1.510   3.834   6.896  1.8002  0.2475  0.7426
  143MOL   H10137305   1.305   3.775   6.670  0.5451  0.5306 -1.8604
  143MOL   H10237306   1.348   3.681   6.816  0.3730 -1.0328 -0.7953
  143MOL   H10337307   1.393   3.502   6.741  1.5067 -2.1399 -0.4946
  143MOL   H10437308   1.328   3.550   6.586  0.7639 -0.9406 -0.8439
  143MOL   H10537309   1.504   3.562   6.627 -0.2907 -1.6695 -1.0531
  143MOL   C10637310   1.496   4.014   6.768 -0.0357 -0.2294 -0.4923
  143MOL   C10737311   1.348   4.047   6.798  0.1037  0.4675  0.9840
  143MOL   O10837312   1.305   4.171   6.744  0.0811 -0.4292  0.2280
  143MOL   C10937313   1.249   4.160   6.613 -0.4514 -0.1656 -0.1739
  143MOL   C11037314   1.229   4.299   6.557 -0.2875  0.2823  0.2642
  143MOL   H11137315   1.509   4.020   6.660  0.5790  0.2296 -0.3992
  143MOL   H11237316   1.553   4.090   6.822 -0.6012 -1.0701  1.3082
  143MOL   H11337317   1.290   3.968   6.752 -0.4790 -0.0160  2.5292
  143MOL   H11437318   1.149   4.120   6.628  0.6215 -3.5601 -1.5858
  143MOL   H11537319   1.302   4.097   6.542  0.2156  1.4127 -1.1047
  143MOL   H11637320   1.140   4.293   6.495  0.6596  0.2606 -1.1206
  143MOL   H11737321   1.203   4.373   6.633 -3.5432  1.7174 -2.1126
  143MOL   H11837322   1.313   4.341   6.502  0.5270 -1.3768  0.2113
  143MOL   C11937323   1.320   4.054   6.951  0.1185  0.0890 -0.1297
  143MOL   C12037324   1.175   4.019   7.002 -0.6257  0.3135 -0.0965
  143MOL   O12137325   1.138   3.887   6.978  0.3172  0.5809  0.2424
  143MOL   C12237326   1.201   3.783   7.052  0.2690  0.2326 -0.8116
  143MOL   C12337327   1.109   3.658   7.042  0.4380 -0.6925  0.5204
  143MOL   H12437328   1.358   4.152   6.979 -0.4704  1.2351 -3.1216
  143MOL   H12537329   1.375   3.979   7.007 -0.2787  1.7735  2.6329
  143MOL   H12637330   1.191   4.036   7.109 -1.0889 -1.2402  0.2329
  143MOL   H12737331   1.199   3.809   7.157 -0.4483 -0.1923 -0.7139
  143MOL   H12837332   1.302   3.759   7.018  0.7457 -2.2751  2.1650
  143MOL   H12937333   1.094   3.618   6.942 -0.5906 -1.2836  0.9005
  143MOL   H13037334   1.144   3.589   7.119 -0.2338 -1.0872  0.4758
  143MOL   H13137335   1.009   3.689   7.072  0.7742 -0.0536  0.9939
  143MOL   C13237336   1.070   4.110   6.951  0.6552  0.1231  0.2146
  143MOL   C13337337   0.930   4.078   7.006  0.6852 -0.0957  0.4761
  143MOL   O13437338   0.840   4.168   6.962 -0.0939  0.2652 -0.4210
  143MOL   C13537339   0.782   4.125   6.838  0.7648 -0.3013  0.1213
  143MOL   C13637340   0.766   4.246   6.745  0.1892 -0.0854 -0.1634
  143MOL   H13737341   1.072   4.118   6.843 -1.3187 -1.2444  0.0499
  143MOL   H13837342   1.101   4.211   6.981  2.0409  0.2339 -1.5387
  143MOL   H13937343   0.902   3.974   6.986 -1.0715  0.2656  0.9868
  143MOL   H14037344   0.683   4.083   6.854 -0.0767  1.3133 -0.7185
  143MOL   H14137345   0.849   4.049   6.797  2.0891  0.5026  0.7244
  143MOL   H14237346   0.862   4.294   6.724  0.5977 -0.3288  1.0662
  143MOL   H14337347   0.723   4.229   6.647  0.9725 -1.6057 -0.2526
  143MOL   H14437348   0.694   4.320   6.780  1.0905  1.0269 -0.6071
  143MOL   C14537349   0.921   4.096   7.160  0.1450 -0.3416 -0.4798
  143MOL   C14637350   0.778   4.074   7.224  0.4900 -0.1863 -0.5304
  143MOL   O14737351   0.769   4.122   7.358 -0.2416 -0.3371 -0.2753
  143MOL   C14837352   0.744   4.262   7.371  0.5358 -0.4964 -0.2121
  143MOL   C14937353   0.775   4.300   7.513 -0.4887 -0.0303 -0.2524
  143MOL   H15037354   0.955   4.200   7.166 -0.1555 -0.3440  1.5443
  143MOL   H15137355   0.987   4.021   7.202 -0.1782 -0.0071  0.6418
  143MOL   H15237356   0.701   4.125   7.166 -1.4175 -1.3873  0.8658
  143MOL   H15337357   0.643   4.291   7.342  1.2849  1.1877 -1.2434
  143MOL   H15437358   0.805   4.322   7.303  1.5310  0.2997  1.3315
  143MOL   H15537359   0.693   4.279   7.582 -0.2696 -3.1968 -0.9056
  143MOL   H15637360   0.866   4.246   7.538  0.4488  0.7181 -1.9632
  143MOL   H15737361   0.796   4.406   7.528 -0.8199 -0.0558  0.4419
  143MOL   C15837362   0.734   3.923   7.221 -0.2430 -0.9440 -0.4084
  143MOL   C15937363   0.586   3.904   7.282 -0.2285  0.8086  0.5760
  143MOL   O16037364   0.568   3.766   7.311  0.4471 -0.8216 -0.0179
  143MOL   C16137365   0.568   3.747   7.452  0.4287 -0.1676 -0.1151
  143MOL   C16237366   0.521   3.607   7.488  0.6874 -0.0211 -0.0651
  143MOL   H16337367   0.798   3.864   7.286  1.1696  0.9228 -0.0710
  143MOL   H16437368   0.738   3.885   7.119  0.9586 -1.6036 -0.1237
  143MOL   H16537369   0.562   3.973   7.363 -0.8474  0.4046  0.7400
  143MOL   H16637370   0.491   3.812   7.495 -0.9154 -2.1987  0.6294
  143MOL   H16737371   0.658   3.778   7.506 -0.0088 -0.3465  0.7286
  143MOL   H16837372   0.444   3.577   7.417  0.3440  0.9677 -0.1155
  143MOL   H16937373   0.602   3.534   7.486 -0.1845 -1.0318  1.1495
  143MOL   H17037374   0.476   3.604   7.587 -2.5464 -2.0776 -1.5168
  143MOL   C17137375   0.485   3.918   7.171  0.7878 -0.2080 -0.2247
  143MOL   C17237376   0.332   3.913   7.217 -0.1382  0.0397 -0.1336
  143MOL   O17337377   0.260   3.823   7.130  0.6093 -0.3961 -0.4313
  143MOL   C17437378   0.244   3.688   7.175  0.4014 -0.1451  0.1861
  143MOL   C17537379   0.151   3.617   7.076 -0.7952  1.3196  0.1262
  143MOL   H17637380   0.502   3.849   7.089 -0.7034 -0.1186 -0.6218
  143MOL   H17737381   0.501   4.016   7.125  0.2323 -0.3468 -0.7182
  143MOL   H17837382   0.333   3.874   7.318 -1.1093  1.5626  0.4756
  143MOL   H17937383   0.202   3.682   7.276  0.2522  0.0613  0.1378
  143MOL   H18037384   0.344   3.645   7.166 -0.1372 -0.8556 -3.0782
  143MOL   H18137385   0.186   3.631   6.974  0.3364  1.7673  0.5702
  143MOL   H18237386   0.126   3.515   7.107  1.2341  0.6072 -0.4631
  143MOL   H18337387   0.054   3.667   7.076 -1.8973 -0.7232  1.8072
  143MOL   C18437388   0.277   4.061   7.208 -0.1004  0.8449 -0.3954
  143MOL   C18537389   0.165   4.092   7.314  0.2998  0.3022 -0.4177
  143MOL   O18637390   0.238   4.082   7.434  0.6123  0.3428 -0.2630
  143MOL   C18737391   0.292   4.203   7.477 -0.8619 -0.8395  0.0706
  143MOL   C18837392   0.362   4.186   7.617 -0.5112 -0.2566  0.7050
  143MOL   H18937393   0.240   4.068   7.106 -1.1632 -2.1449 -0.2686
  143MOL   H19037394   0.355   4.137   7.215 -1.1613  1.8990  0.2582
  143MOL   H19137395   0.143   4.198   7.301  1.2802  0.6010  0.3320
  143MOL   H19237396   0.220   4.284   7.478 -0.9904 -0.9464 -0.7126
  143MOL   H19337397   0.370   4.247   7.414  0.0117 -1.1543  0.9200
  143MOL   H19437398   0.294   4.154   7.696 -1.0641 -1.2856 -0.1684
  143MOL   H19537399   0.451   4.123   7.613  1.0716  1.8567  2.0753
  143MOL   H19637400   0.410   4.281   7.642  2.2414 -1.5710  0.6465
  143MOL   C19737401   0.052   3.992   7.323 -0.0260 -0.5036  1.1899
  143MOL   C19837402   7.773   4.025   7.406 -0.4065  0.0201  0.6750
  143MOL   O19937403   7.705   4.138   7.349 -0.1558 -0.1424 -0.3266
  143MOL   C20037404   7.640   4.109   7.222 -0.0068 -0.3855 -0.2948
  143MOL   C20137405   7.559   4.238   7.182  0.5892  0.0840  0.4542
  143MOL   H20237406   0.081   3.894   7.359 -0.2411 -0.9246  0.2290
  143MOL   H20337407   0.018   3.966   7.223 -0.5347  0.2744  1.1566
  143MOL   H20437408   7.712   3.935   7.407 -2.6105  1.4702  1.2227
  143MOL   H20537409   7.577   4.019   7.226 -1.7920  0.6983 -2.9888
  143MOL   H20637410   7.713   4.081   7.147  1.5362  0.6537  0.8082
  143MOL   H20737411   7.500   4.278   7.264  0.1447 -1.9424  1.1487
  143MOL   H20837412   7.629   4.316   7.152 -0.2572  0.5570 -0.3016
  143MOL   H20937413   7.489   4.224   7.100 -0.1293  1.1257  0.8850
  143MOL   C21037414   7.793   4.053   7.554  0.0175  0.7374  0.3915
  143MOL   C21137415   7.668   4.082   7.634 -0.1581 -0.5993 -0.1118
  143MOL   O21237416   7.690   4.159   7.754 -0.1941  0.0344 -0.5998
  143MOL   C21337417   7.730   4.299   7.737  0.2302 -0.2399  0.2869
  143MOL   C21437418   0.001   4.339   7.831 -0.6579  0.4992  0.1717
  143MOL   H21537419   0.018   4.137   7.559 -0.2280  0.9398  0.3270
  143MOL   H21637420   0.001   3.965   7.594 -1.3012  0.7067  2.0840
  143MOL   H21737421   7.602   4.150   7.580  0.8994 -0.6008 -1.4251
  143MOL   H21837422   7.639   4.354   7.761  0.0792  0.9448 -2.7447
  143MOL   H21937423   7.749   4.311   7.630 -0.3997 -0.6281  0.1285
  143MOL   H22037424   0.082   4.271   7.807 -1.6953 -1.3565  1.7764
  143MOL   H22137425   0.024   4.446   7.824 -2.1949  0.9529  1.6694
  143MOL   H22237426   7.811   4.325   0.091  1.0995 -1.7102  0.4837
  143MOL   C22337427   7.580   3.960   7.668  0.2790 -0.1714 -0.0239
  143MOL   C22437428   7.431   3.988   7.697 -0.3003  0.4231 -0.6003
  143MOL   O22537429   7.376   3.864   7.747  0.7182  0.5173  0.4230
  143MOL   C22637430   7.398   3.834   0.041 -0.7906 -0.1469 -0.5640
  143MOL   C22737431   7.356   3.686   0.066 -0.3637  0.1376 -0.1555
  143MOL   H22837432   7.623   3.925   7.762  0.5384  0.9438  0.2764
  143MOL   H22937433   7.598   3.878   7.598  1.1297  1.0506 -1.2486
  143MOL   H23037434   7.425   4.064   7.775  0.1223  0.8522 -0.9838
  143MOL   H23137435   7.328   3.903   0.088  0.7559  0.2373  1.2232
  143MOL   H23237436   7.500   3.842   0.078 -0.9612 -0.2470 -0.0685
  143MOL   H23337437   7.362   3.634   0.162 -0.1015  0.7098  0.1416
  143MOL   H23437438   7.251   3.688   0.038 -0.1069 -0.6972 -1.1998
  143MOL   H23537439   7.409   3.623   7.838  1.5905  2.6655 -0.9728
  143MOL   C23637440   7.356   4.025   7.569  0.4350  0.5099 -0.1403
  143MOL   C23737441   7.206   4.063   7.578 -0.5232 -0.7155 -0.2018
  143MOL   O23837442   7.150   4.099   7.453 -0.0449 -0.3492 -0.1959
  143MOL   C23937443   7.117   3.984   7.374  0.2722 -0.4477  0.3988
  143MOL   C24037444   7.072   4.017   7.239 -0.0359  0.6372 -0.6686
  143MOL   H24137445   7.366   3.944   7.496 -2.8664  0.2501 -0.3806
  143MOL   H24237446   7.409   4.108   7.521  0.6243  0.8276  0.6225
  143MOL   H24337447   7.167   3.970   7.619 -1.0444 -0.5063 -0.2105
  143MOL   H24437448   7.042   3.929   7.431 -1.9800  1.6245 -0.4842
  143MOL   H24537449   7.199   3.913   7.357 -1.1093 -1.8228 -0.6608
  143MOL   H24637450   7.025   3.934   7.185 -1.3770 -0.6599  2.3518
  143MOL   H24737451   6.991   4.090   7.241 -1.3864 -0.8490  0.6895
  143MOL   H24837452   7.158   4.058   7.187 -0.7627  0.8034 -1.7696
  143MOL   C24937453   7.171   4.159   7.688 -0.3504 -0.0770  0.0951
  143MOL   C25037454   7.219   4.295   7.656 -0.2384 -0.0591 -0.3422
  143MOL   O25137455   7.186   4.394   7.751  0.2258 -0.0600 -0.1807
  143MOL   C25237456   7.249   4.521   7.732  0.0747 -0.0634  0.0467
  143MOL   C25337457   7.220   4.607   0.001  1.0008  0.2779 -0.1318
  143MOL   H25437458   7.198   4.117   7.784  1.7786 -0.0976 -0.4705
  143MOL   H25537459   7.063   4.172   7.689 -0.2100  1.2475 -0.2340
  143MOL   H25637460   7.326   4.290   7.634 -0.1699  3.7710 -1.2238
  143MOL   H25737461   7.211   4.571   7.642 -0.8297  0.5737  0.7673
  143MOL   H25837462   7.358   4.517   7.732  0.0876 -0.0648 -1.5986
  143MOL   H25937463   7.275   4.701   0.006  1.9785 -0.3562  1.4863
  143MOL   H26037464   7.113   4.628   0.004  0.6468 -1.4179 -0.4339
  143MOL   H26137465   7.265   4.571   0.094  0.1751  0.2299  0.2537
  143MOL   H26237466   7.168   4.324   7.564 -1.5288 -0.5073  0.2238
  144MOL     C137467   7.562   3.931   1.131  0.3347  0.4002  0.3655
  144MOL     C237468   7.570   3.816   1.039 -0.5367 -0.5085  0.9395
  144MOL     O337469   7.601   3.873   0.913 -0.4281 -0.5134  0.8512
  144MOL     C437470   7.694   3.809   0.824 -0.0371 -1.0585  0.2525
  144MOL     C537471   7.841   3.833   0.855 -0.0807 -0.2714 -0.8384
  144MOL     H637472   7.478   3.990   1.094  0.6561  1.3786  1.1752
  144MOL     H737473   7.544   3.901   1.234 -0.5214 -0.8957 -0.1483
  144MOL     H837474   7.652   3.750   1.068  1.0228  1.4000  1.0581
  144MOL     H937475   7.671   3.842   0.723  3.0433 -1.1026 -0.5099
  144MOL    H1037476   7.662   3.705   0.826  1.0042 -1.5387 -3.8822
  144MOL    H1137477   0.014   3.937   0.882 -0.8847 -0.5833  0.9455
  144MOL    H1237478   0.024   3.770   0.940  0.7442  1.3483  0.1382
  144MOL    H1337479   0.064   3.803   0.775 -0.3038 -1.1362 -0.7022
  144MOL    H1437480   7.644   4.001   1.120  0.3341  0.2930 -0.3151
  144MOL    C1537481   7.443   3.729   1.037 -0.4708  0.2673  0.4217
  144MOL    C1637482   7.396   3.672   1.177  0.5163  0.1785 -0.6273
  144MOL    O1737483   7.502   3.625   1.245 -0.0222  0.6314  0.4565
  144MOL    C1837484   7.485   3.646   1.386  0.0070 -0.6453  0.6560
  144MOL    C1937485   7.623   3.613   1.434  0.2938  0.2501  0.8200
  144MOL    H2037486   7.468   3.639   0.979  0.9494  0.7832  0.2006
  144MOL    H2137487   7.369   3.780   0.975  0.3177 -0.9570 -1.5706
  144MOL    H2237488   7.358   3.764   1.223 -0.8538 -0.6413 -0.1003
  144MOL    H2337489   7.418   3.573   1.432  0.3548 -1.1710  0.3298
  144MOL    H2437490   7.458   3.751   1.395  0.2214 -0.4290 -1.0859
  144MOL    H2537491   7.639   3.631   1.540 -1.8724  2.6622  0.7697
  144MOL    H2637492   7.702   3.677   1.395  0.5348 -0.2952  0.4048
  144MOL    H2737493   7.666   3.519   1.400 -0.7555  0.0966 -0.1115
  144MOL    C2837494   7.284   3.577   1.157 -0.0145 -0.2236  0.6885
  144MOL    C2937495   7.150   3.639   1.117  0.1605 -0.3226  0.5436
  144MOL    O3037496   7.102   3.722   1.222  0.2171  0.0478 -0.3004
  144MOL    C3137497   7.109   3.856   1.184  0.1177 -0.2645 -0.7207
  144MOL    C3237498   7.079   3.934   1.311 -0.6524 -0.4457 -0.2658
  144MOL    H3337499   7.275   3.516   1.247  2.1146  1.2278  1.9496
  144MOL    H3437500   7.305   3.507   1.077 -0.0425  0.3897  0.1382
  144MOL    H3537501   7.165   3.698   1.027  1.3639 -0.4070  0.6831
  144MOL    H3637502   7.028   3.863   1.111 -0.7249  1.6494  0.3709
  144MOL    H3737503   7.200   3.892   1.136  1.1038 -0.7524  0.7466
  144MOL    H3837504   7.087   4.042   1.298 -3.1148  0.0726  2.1781
  144MOL    H3937505   6.981   3.902   1.347 -0.0089 -0.8060  1.2025
  144MOL    H4037506   7.160   3.904   1.378 -0.0143  0.2286 -0.7223
  144MOL    C4137507   7.045   3.529   1.089 -1.0897  0.5164  0.5463
  144MOL    C4237508   6.914   3.586   1.026 -0.2215  0.1803 -0.1463
  144MOL    O4337509   6.833   3.483   0.991  0.5295 -0.2939  0.1400
  144MOL    C4437510   6.760   3.411   1.090  0.3391 -0.6899 -0.3211
  144MOL    C4537511   6.667   3.295   1.036  0.0950  0.1518 -0.0283
  144MOL    H4637512   7.020   3.462   1.172  2.0770  0.2833  1.3855
  144MOL    H4737513   7.080   3.470   1.004 -2.1256  1.2287 -0.3927
  144MOL    H4837514   6.858   3.640   1.102 -0.8850  0.9686 -1.1819
  144MOL    H4937515   6.705   3.497   1.128  2.2993 -0.2144  1.5012
  144MOL    H5037516   6.817   3.368   1.173  0.6987 -1.0592 -0.7543
  144MOL    H5137517   6.606   3.337   0.957  0.1615  0.1246 -0.0941
  144MOL    H5237518   6.711   3.205   0.991  0.2170 -0.0965  0.5771
  144MOL    H5337519   6.596   3.264   1.112  0.8135 -0.6755  0.3152
  144MOL    C5437520   6.939   3.663   0.904 -0.0475  0.1825  0.7943
  144MOL    C5537521   6.815   3.713   0.821 -0.2048 -0.5329 -0.2064
  144MOL    O5637522   6.852   3.799   0.720 -0.7575  0.5502 -0.5214
  144MOL    C5737523   6.805   3.768   0.589  0.2386  0.3625  0.4911
  144MOL    C5837524   6.866   3.875   0.503  0.5561 -0.2180 -0.2483
  144MOL    H5937525   7.002   3.607   0.836 -0.2645  0.6622  0.1944
  144MOL    H6037526   6.991   3.758   0.921 -0.2068  0.3225  0.5112
  144MOL    H6137527   6.778   3.618   0.782 -0.5055 -0.4043 -0.2339
  144MOL    H6237528   6.696   3.764   0.586  0.2575  0.0629  0.1301
  144MOL    H6337529   6.830   3.667   0.556 -2.1713  0.0900 -0.5905
  144MOL    H6437530   6.962   3.903   0.546 -0.2315  0.8158  0.8693
  144MOL    H6537531   6.876   3.841   0.400  0.0641  0.5105 -0.5368
  144MOL    H6637532   6.803   3.964   0.500 -0.3552 -0.7321  2.2700
  144MOL    C6737533   6.699   3.778   0.892  0.4948  0.6924 -0.5142
  144MOL    C6837534   6.729   3.908   0.969  0.2370 -0.1136  0.6725
  144MOL    O6937535   6.631   3.935   1.073 -0.1035  0.2957 -0.6974
  144MOL    C7037536   6.669   3.863   1.195  0.2129 -0.6025  0.6115
  144MOL    C7137537   6.622   3.969   1.298  0.3926  0.5950  0.0742
  144MOL    H7237538   6.661   3.702   0.960  3.3253  0.5952  1.0491
  144MOL    H7337539   6.615   3.783   0.822  0.6143 -0.9628 -0.7875
  144MOL    H7437540   6.831   3.905   1.008 -0.0247  1.1169  1.4683
  144MOL    H7537541   6.776   3.866   1.212 -0.0426  1.9364  2.0418
  144MOL    H7637542   6.627   3.763   1.206 -0.7798 -0.4362 -1.3630
  144MOL    H7737543   6.518   4.000   1.286  0.3917  0.3830 -0.4774
  144MOL    H7837544   6.646   3.930   1.396 -1.0342  0.3270  0.3343
  144MOL    H7937545   6.698   4.047   1.289  3.0672 -2.0222 -0.6163
  144MOL    C8037546   6.724   4.038   0.876  0.1608  0.2183 -0.4594
  144MOL    C8137547   6.754   4.167   0.950 -0.1304 -0.3431  0.3638
  144MOL    O8237548   6.735   4.286   0.879 -0.0222 -0.5274  0.3166
  144MOL    C8337549   6.599   4.325   0.866  0.4430 -0.1317  0.2098
  144MOL    C8437550   6.584   4.467   0.811 -0.1170  0.1899  0.3382
  144MOL    H8537551   6.631   4.044   0.818 -0.1571  0.1591  0.0419
  144MOL    H8637552   6.789   4.017   0.791  1.7281  1.9782  0.3001
  144MOL    H8737553   6.695   4.177   1.041  2.4181  0.8374  1.9523
  144MOL    H8837554   6.553   4.330   0.964  0.7888  0.9305  0.3221
  144MOL    H8937555   6.540   4.256   0.807 -2.9697  0.7262  2.5102
  144MOL    H9037556   6.484   4.500   0.783  0.0546 -1.2304 -2.0025
  144MOL    H9137557   6.631   4.534   0.884 -1.4884  2.6635 -0.9892
  144MOL    H9237558   6.635   4.480   0.716 -1.2780  1.3940 -0.1331
  144MOL    C9337559   6.897   4.159   1.013 -0.5602 -0.4341  0.1245
  144MOL    C9437560   6.952   4.290   1.068 -0.1489  0.4112 -0.1607
  144MOL    O9537561   7.086   4.258   1.104 -0.0670  0.1650 -0.1484
  144MOL    C9637562   7.188   4.356   1.074 -0.1582  0.0920  0.8259
  144MOL    C9737563   7.306   4.316   1.159 -0.3542 -0.2627  0.3606
  144MOL    H9837564   6.960   4.124   0.932  0.4641  0.5598  0.4770
  144MOL    H9937565   6.893   4.086   1.094  0.7872 -0.9051 -0.2254
  144MOL   H10037566   6.946   4.365   0.989 -0.4385 -0.2202 -0.7443
  144MOL   H10137567   7.161   4.458   1.101  0.3288  0.4681 -0.1000
  144MOL   H10237568   7.211   4.368   0.968  1.1550  1.0904  1.2013
  144MOL   H10337569   7.387   4.389   1.158  0.4087 -1.1038 -2.1832
  144MOL   H10437570   7.267   4.317   1.261 -3.7256 -0.4417 -0.8633
  144MOL   H10537571   7.343   4.218   1.130 -0.3312 -0.9321  2.5496
  144MOL   C10637572   6.886   4.327   1.194 -0.3913  0.6467  0.6034
  144MOL   C10737573   6.771   4.428   1.176 -0.3134 -0.7156  0.3101
  144MOL   O10837574   6.812   4.557   1.215  0.2052  0.5266 -0.8461
  144MOL   C10937575   6.852   4.643   1.107  0.3028 -0.3098  0.0320
  144MOL   C11037576   6.914   4.762   1.169  0.0187  0.5440  0.7951
  144MOL   H11137577   6.947   4.354   1.281 -0.3991 -1.6360  1.3554
  144MOL   H11237578   6.850   4.232   1.236  1.6305  0.2972  1.5945
  144MOL   H11337579   6.750   4.437   1.070  0.0114 -2.6835  0.0602
  144MOL   H11437580   6.761   4.665   1.050  0.3369 -0.5007 -0.0968
  144MOL   H11537581   6.926   4.605   1.036 -1.1570 -1.0866 -1.0999
  144MOL   H11637582   6.998   4.721   1.226  1.3955  0.9349 -0.9087
  144MOL   H11737583   6.944   4.827   1.087 -0.4215 -0.1836  0.0459
  144MOL   H11837584   6.843   4.807   1.239 -2.5009  0.2610 -1.5216
  144MOL   C11937585   6.642   4.402   1.247  0.3029  0.0931 -0.0538
  144MOL   C12037586   6.632   4.392   1.398  0.2970 -0.1917 -0.4626
  144MOL   O12137587   6.677   4.258   1.430  0.3105 -0.3276  0.2761
  144MOL   C12237588   6.747   4.244   1.549 -0.2838  0.0814 -0.2388
  144MOL   C12337589   6.787   4.105   1.584 -0.0392 -0.0365  0.6133
  144MOL   H12437590   6.590   4.315   1.206 -1.2061  0.9294  0.0186
  144MOL   H12537591   6.583   4.486   1.212 -0.2603 -0.1377  0.3220
  144MOL   H12637592   6.694   4.469   1.444 -1.1918  0.5962  0.2749
  144MOL   H12737593   6.689   4.288   1.631  2.2080  1.4584  0.8415
  144MOL   H12837594   6.829   4.313   1.534 -0.4201  0.4138  0.4798
  144MOL   H12937595   6.842   4.059   1.502 -0.2726 -0.5665  0.7546
  144MOL   H13037596   6.864   4.101   1.662  1.0699 -3.8124 -0.5543
  144MOL   H13137597   6.702   4.040   1.604  0.3602 -0.8708 -0.3778
  144MOL   C13237598   6.487   4.415   1.438 -0.4711  0.3026 -0.3372
  144MOL   C13337599   6.457   4.563   1.449  0.3411 -0.0569 -0.4171
  144MOL   O13437600   6.549   4.628   1.547  0.4024  0.3862 -0.1787
  144MOL   C13537601   6.638   4.725   1.480 -0.2003  0.1814  0.0694
  144MOL   C13637602   6.716   4.810   1.585 -0.0764 -0.1203 -0.9764
  144MOL   H13737603   6.464   4.365   1.532 -2.0647  1.4838 -0.0707
  144MOL   H13837604   6.417   4.370   1.368 -1.2207 -1.2456  1.3549
  144MOL   H13937605   6.465   4.611   1.351  0.5945  1.3817  0.2967
  144MOL   H14037606   6.570   4.788   1.423 -1.9086 -1.1665  0.5647
  144MOL   H14137607   6.708   4.682   1.407 -1.2562  1.5464 -1.7900
  144MOL   H14237608   6.784   4.752   1.647  0.7549  0.1727 -1.6055
  144MOL   H14337609   6.769   4.891   1.535  0.8267  0.2117  0.4617
  144MOL   H14437610   6.645   4.854   1.655  1.9508  2.9580 -0.7228
  144MOL   C14537611   6.320   4.591   1.502 -0.0707 -0.1270  0.1711
  144MOL   C14637612   6.207   4.603   1.398 -0.0088 -0.3950  0.1061
  144MOL   O14737613   6.228   4.726   1.326  0.3036 -0.0594  0.4298
  144MOL   C14837614   6.165   4.744   1.191 -0.4783 -0.4013 -0.9020
  144MOL   C14937615   6.242   4.647   1.091  0.4984 -0.0854 -0.6146
  144MOL   H15037616   6.325   4.679   1.566  0.3007  0.7579 -1.0532
  144MOL   H15137617   6.295   4.516   1.576 -2.6437 -0.2390 -0.7738
  144MOL   H15237618   6.212   4.511   1.340 -0.7020 -0.8156  0.7097
  144MOL   H15337619   6.176   4.847   1.159 -1.5653 -0.1693 -0.5605
  144MOL   H15437620   6.058   4.723   1.185 -0.3953 -0.9252 -0.5763
  144MOL   H15537621   6.192   4.657   0.994  2.3038 -0.3268 -1.5933
  144MOL   H15637622   6.342   4.686   1.075  0.2501  1.2069  0.8615
  144MOL   H15737623   6.249   4.543   1.124 -0.3442  0.0347 -0.0229
  144MOL   C15837624   6.063   4.630   1.468 -0.4755  0.5069  0.1455
  144MOL   C15937625   6.015   4.523   1.568 -0.6162  0.2233 -0.3111
  144MOL   O16037626   6.038   4.400   1.511  0.1928 -0.4917  0.3510
  144MOL   C16137627   6.087   4.300   1.605  0.0110  0.3167 -1.2174
  144MOL   C16237628   6.138   4.176   1.528  0.4092  0.4067 -0.4193
  144MOL   H16337629   5.991   4.646   1.388 -1.3271 -0.1552  0.7663
  144MOL   H16437630   6.080   4.724   1.519  1.9081 -0.5705  1.4267
  144MOL   H16537631   6.081   4.527   1.654 -1.0846  0.1144  0.0575
  144MOL   H16637632   6.007   4.269   1.672  0.6735 -2.1030 -1.4935
  144MOL   H16737633   6.177   4.329   1.660 -0.8303  0.2343  0.2160
  144MOL   H16837634   6.178   4.196   1.429  0.3809  0.6517 -0.3809
  144MOL   H16937635   6.224   4.125   1.572 -0.6638 -0.5282  0.6268
  144MOL   H17037636   6.053   4.109   1.516  1.3937 -1.1447  0.9427
  144MOL   C17137637   5.870   4.539   1.614  0.0848 -0.6570  0.0813
  144MOL   C17237638   5.834   4.675   1.680  0.1932  0.2521  0.0344
  144MOL   O17337639   5.920   4.686   1.797  0.8211  0.6478  0.0935
  144MOL   C17437640   5.963   4.813   1.843  0.3684 -0.0243  0.0487
  144MOL   C17537641   5.993   4.782   1.987 -0.1142 -0.1662  0.7349
  144MOL   H17637642   5.847   4.460   1.685 -0.1948 -1.7543 -1.2116
  144MOL   H17737643   5.804   4.530   1.528 -0.9278  1.2593  0.6233
  144MOL   H17837644   5.874   4.762   1.627  0.4448  0.2984  0.2973
  144MOL   H17937645   5.893   4.897   1.836  2.5279  2.0939  2.7021
  144MOL   H18037646   6.053   4.838   1.788 -1.4035  1.2023 -2.3894
  144MOL   H18137647   5.899   4.762   2.039  0.2014 -0.2863  1.2612
  144MOL   H18237648   6.049   4.689   1.985  1.9746  1.0610 -0.2019
  144MOL   H18337649   6.046   4.862   2.040  0.2354  0.3097 -0.3165
  144MOL   C18437650   5.686   4.690   1.733 -0.2775  0.0802  0.6062
  144MOL   C18537651   5.577   4.729   1.631 -0.1562  0.2443  0.0557
  144MOL   O18637652   5.596   4.864   1.588  0.3695 -0.0748  0.1329
  144MOL   C18737653   5.550   4.966   1.677  0.1405 -0.1147  0.5643
  144MOL   C18837654   5.557   5.093   1.599 -0.0316 -0.2996 -1.2039
  144MOL   H18937655   5.694   4.757   1.818 -1.5341  0.5007  0.3921
  144MOL   H19037656   5.669   4.591   1.775  0.4820 -0.3042  0.0348
  144MOL   H19137657   5.603   4.667   1.545  0.9944 -2.3908  2.2200
  144MOL   H19237658   5.625   4.965   1.756  1.7861  0.3791 -0.9442
  144MOL   H19337659   5.457   4.950   1.731  0.6602 -0.3953  1.3911
  144MOL   H19437660   5.552   5.180   1.664 -0.1450 -0.1473 -1.4162
  144MOL   H19537661   5.649   5.098   1.542  0.3204 -0.5818 -0.6661
  144MOL   H19637662   5.468   5.113   1.539 -0.7614  2.6754  0.7882
  144MOL   C19737663   5.431   4.707   1.679 -0.3737 -0.3173 -0.2191
  144MOL   C19837664   5.373   4.565   1.697  0.3527 -0.8472  0.6384
  144MOL   O19937665   5.356   4.508   1.569  0.0211 -0.1702  0.6778
  144MOL   C20037666   5.423   4.377   1.564 -0.3306 -0.2768 -0.3366
  144MOL   C20137667   5.440   4.337   1.411  0.1420 -0.5712  0.0138
  144MOL   H20237668   5.366   4.771   1.618 -2.5070 -1.4997  0.7446
  144MOL   H20337669   5.426   4.755   1.776 -0.7025  1.5070 -1.1154
  144MOL   H20437670   5.446   4.531   1.771 -1.0011 -0.4032  2.2296
  144MOL   H20537671   5.358   4.305   1.615  0.6795  0.8351  2.5968
  144MOL   H20637672   5.523   4.379   1.607  0.3647 -0.3943 -1.9151
  144MOL   H20737673   5.524   4.386   1.361  0.5189  0.5675  1.7256
  144MOL   H20837674   5.447   4.228   1.400 -4.3300 -0.9686  0.4380
  144MOL   H20937675   5.351   4.361   1.353  1.2417  0.6128 -1.2041
  144MOL   C21037676   5.229   4.572   1.751  0.2487  0.3147 -0.3464
  144MOL   C21137677   5.167   4.434   1.785  0.4109  0.1717 -0.8351
  144MOL   O21237678   5.039   4.465   1.833 -0.1475  0.0157 -0.3846
  144MOL   C21337679   4.937   4.359   1.810  0.6275 -0.1050 -0.1957
  144MOL   C21437680   4.800   4.402   1.855 -0.5645  0.4108  0.0969
  144MOL   H21537681   5.154   4.611   1.683  0.6177 -0.1902 -1.0514
  144MOL   H21637682   5.246   4.631   1.841  3.5548  1.0049 -1.3393
  144MOL   H21737683   5.152   4.382   1.690 -0.4384 -1.3893  0.1292
  144MOL   H21837684   4.971   4.277   1.874 -1.6339  1.0969  2.6393
  144MOL   H21937685   4.923   4.322   1.709  1.5363 -0.6784 -0.1202
  144MOL   H22037686   4.807   4.452   1.951 -0.1449 -0.0278  0.2920
  144MOL   H22137687   4.761   4.476   1.785 -0.8854 -2.0191 -2.4330
  144MOL   H22237688   4.737   4.313   1.860  0.4411 -0.3004  0.2403
  144MOL   C22337689   5.255   4.354   1.893 -0.4635 -0.2754  0.3171
  144MOL   C22437690   5.275   4.414   2.036  0.6711  0.2797 -0.2244
  144MOL   O22537691   5.367   4.528   2.032  0.0963 -0.2850  0.3158
  144MOL   C22637692   5.344   4.619   2.137 -0.0907 -0.0498  0.5917
  144MOL   C22737693   5.416   4.752   2.105 -0.0774  0.1712  0.1206
  144MOL   H22837694   5.351   4.322   1.854 -0.6553 -3.9132  2.6428
  144MOL   H22937695   5.207   4.259   1.914 -0.6770 -0.2433 -0.0233
  144MOL   H23037696   5.177   4.430   2.079 -0.2115 -0.7082 -1.8332
  144MOL   H23137697   5.371   4.585   2.237 -1.4597 -0.5159  0.8162
  144MOL   H23237698   5.238   4.635   2.155 -0.7629 -1.7889 -1.5677
  144MOL   H23337699   5.395   4.790   2.005  1.3525  1.0681  0.1354
  144MOL   H23437700   5.400   4.830   2.180 -0.2196 -1.0120  1.3407
  144MOL   H23537701   5.524   4.733   2.107 -0.0060  0.1552 -2.3477
  144MOL   C23637702   5.350   4.308   2.127 -0.2992  0.2208  0.2450
  144MOL   C23737703   5.304   4.299   2.272  0.2312  0.4131 -0.0168
  144MOL   O23837704   5.385   4.204   2.348  0.3134 -1.0924  0.4070
  144MOL   C23937705   5.514   4.258   2.386 -0.3392 -0.1155  0.1697
  144MOL   C24037706   5.587   4.154   2.472 -0.1504  0.1160  0.1011
  144MOL   H24137707   5.456   4.334   2.121 -0.0485 -1.0517 -0.9575
  144MOL   H24237708   5.343   4.210   2.080  0.8330  0.7597 -1.0729
  144MOL   H24337709   5.313   4.398   2.317 -1.1334  1.0649 -1.1512
  144MOL   H24437710   5.492   4.347   2.445  1.0418  0.8976 -0.8339
  144MOL   H24537711   5.568   4.291   2.298 -1.2486  0.3905 -0.2081
  144MOL   H24637712   5.679   4.185   2.523  0.6183 -1.7356 -0.1311
  144MOL   H24737713   5.525   4.138   2.561  2.8103 -1.5623  1.9500
  144MOL   H24837714   5.593   4.054   2.429  2.0933 -0.3981  1.4798
  144MOL   C24937715   5.162   4.245   2.278 -0.0839  0.0827 -0.2560
  144MOL   C25037716   5.122   4.250   2.424  0.2012 -0.1099  0.0450
  144MOL   O25137717   5.001   4.183   2.439 -0.5159 -0.4034  0.3272
  144MOL   C25237718   4.950   4.196   2.574  0.4586 -0.8454 -0.2214
  144MOL   C25337719   4.885   4.068   2.632 -0.5506 -0.1275 -0.0146
  144MOL   H25437720   5.156   4.145   2.236  3.2466 -0.8011  1.2330
  144MOL   H25537721   5.101   4.321   2.229 -0.0509 -0.0854 -0.5583
  144MOL   H25637722   5.200   4.195   2.476  0.7763 -2.3264 -2.9475
  144MOL   H25737723   4.872   4.272   2.587  1.1109 -0.0004 -1.1877
  144MOL   H25837724   5.033   4.215   2.641  0.6205  1.1926 -0.9517
  144MOL   H25937725   4.880   4.062   2.740  1.0418 -2.7894 -0.0388
  144MOL   H26037726   4.783   4.062   2.595 -1.6974  0.5744  2.9787
  144MOL   H26137727   4.942   3.984   2.590  0.2912  0.8357 -0.8363
  144MOL   H26237728   5.119   4.353   2.459  2.5468 -0.0947  0.2896
  145MOL     C137729   6.071   1.844   0.488 -0.8480 -0.0548 -0.1685
  145MOL     C237730   6.153   1.865   0.619  0.2186  0.6498  0.3819
  145MOL     O337731   6.261   1.770   0.617 -0.0422 -0.4698 -0.4608
  145MOL     C437732   6.372   1.799   0.707 -0.4205 -0.3066 -0.6881
  145MOL     C537733   6.492   1.771   0.625 -0.0598 -0.2977  0.4983
  145MOL     H637734   5.990   1.917   0.481  1.0871  2.1346 -0.4117
  145MOL     H737735   6.136   1.857   0.401  1.3047  1.5651  1.6138
  145MOL     H837736   6.185   1.970   0.617 -0.6303  0.9064 -1.7068
  145MOL     H937737   6.365   1.719   0.781  1.8594  0.6793  0.6444
  145MOL    H1037738   6.360   1.899   0.749  2.2811 -0.0172 -0.5382
  145MOL    H1137739   6.493   1.845   0.545  0.1186  1.6996  2.3077
  145MOL    H1237740   6.586   1.778   0.680  0.5811  1.5894 -0.8172
  145MOL    H1337741   6.484   1.674   0.576  0.8712 -0.6181  0.9671
  145MOL    H1437742   6.028   1.744   0.481 -1.2469  0.0609  0.5737
  145MOL    C1537743   6.070   1.830   0.750  0.3817  0.0395 -0.3117
  145MOL    C1637744   5.962   1.930   0.778  0.4875 -0.2163  0.3616
  145MOL    O1737745   6.036   2.043   0.830 -0.8643  0.3198  0.1017
  145MOL    C1837746   6.014   2.164   0.757 -0.3287  0.9926 -1.0687
  145MOL    C1937747   6.032   2.287   0.864  0.0114  0.4021 -0.3727
  145MOL    H2037748   6.136   1.822   0.836  0.0402  0.0425 -0.0472
  145MOL    H2137749   6.027   1.730   0.744  1.4562 -0.4065 -0.6588
  145MOL    H2237750   5.918   1.953   0.681 -1.1629  0.3687  1.2336
  145MOL    H2337751   5.910   2.171   0.725 -0.9000  2.3062  0.9653
  145MOL    H2437752   6.083   2.177   0.674  1.4839  1.1978  0.4345
  145MOL    H2537753   5.951   2.295   0.936 -0.3545  1.0960 -0.8463
  145MOL    H2637754   6.047   2.383   0.813 -0.8697  0.1062 -1.2083
  145MOL    H2737755   6.131   2.275   0.906 -0.8069 -0.9741  1.1816
  145MOL    C2837756   5.857   1.889   0.889 -1.2063 -0.3405 -0.3760
  145MOL    C2937757   5.751   1.790   0.844  0.8129  0.7199 -0.6734
  145MOL    O3037758   5.685   1.855   0.738  0.0031  0.0471 -0.3285
  145MOL    C3137759   5.620   1.760   0.652  0.3933 -0.3923  0.0388
  145MOL    C3237760   5.556   1.846   0.538  0.3556 -0.1592 -0.6567
  145MOL    H3337761   5.807   1.980   0.922 -0.3804 -0.0230 -0.0045
  145MOL    H3437762   5.908   1.862   0.981 -2.8857  1.0454  1.0145
  145MOL    H3537763   5.802   1.699   0.812  2.7584  0.2345  3.5704
  145MOL    H3637764   5.547   1.696   0.701  0.9254  0.3913  1.9071
  145MOL    H3737765   5.694   1.694   0.608  1.1977 -0.5355  1.5527
  145MOL    H3837766   5.509   1.775   0.470 -1.9759 -1.5314  2.2747
  145MOL    H3937767   5.479   1.918   0.565 -0.4352 -0.4727 -2.0228
  145MOL    H4037768   5.637   1.891   0.480  1.1577 -0.2981  0.3376
  145MOL    C4137769   5.643   1.766   0.950  0.6358  0.4418 -0.8218
  145MOL    C4237770   5.673   1.653   1.058  0.5794 -0.0063  0.3476
  145MOL    O4337771   5.664   1.529   0.986  0.1732  0.2424 -0.2471
  145MOL    C4437772   5.782   1.457   0.975  0.4879 -0.4568  0.4997
  145MOL    C4537773   5.780   1.313   0.934  0.1743 -0.1759 -0.4037
  145MOL    H4637774   5.550   1.729   0.906 -0.1910  1.0229  0.4088
  145MOL    H4737775   5.613   1.853   1.007 -1.7091  0.1672 -1.5580
  145MOL    H4837776   5.772   1.667   1.101  0.4947  1.2248  0.1797
  145MOL    H4937777   5.825   1.455   1.075 -1.1990  2.0931  1.3299
  145MOL    H5037778   5.848   1.521   0.914 -0.1527  1.0830  1.3909
  145MOL    H5137779   5.819   1.298   0.834  2.0968  0.4595  0.2191
  145MOL    H5237780   5.865   1.269   0.988  0.5078  0.6516 -0.2558
  145MOL    H5337781   5.688   1.260   0.960 -0.3004  0.6623 -0.3849
  145MOL    C5437782   5.570   1.650   1.175 -0.7384 -0.2110  0.5673
  145MOL    C5537783   5.573   1.531   1.281 -0.3354 -0.0511 -0.2042
  145MOL    O5637784   5.705   1.533   1.341 -0.4385 -0.0713 -0.2913
  145MOL    C5737785   5.704   1.605   1.468  0.2585  0.8380  0.5365
  145MOL    C5837786   5.845   1.654   1.500 -0.5707 -0.5470  0.3627
  145MOL    H5937787   5.471   1.665   1.132 -1.4740 -1.0695  1.9263
  145MOL    H6037788   5.588   1.746   1.223 -1.6187  0.9916 -1.4688
  145MOL    H6137789   5.495   1.561   1.351  0.4208  1.3668  0.0491
  145MOL    H6237790   5.675   1.542   1.553  2.0124 -0.2076  0.3871
  145MOL    H6337791   5.640   1.692   1.482  2.2230  2.1891  1.3214
  145MOL    H6437792   5.870   1.725   1.421 -3.2815  0.3400  0.2740
  145MOL    H6537793   5.857   1.708   1.594 -0.1401 -1.3871  0.8000
  145MOL    H6637794   5.924   1.579   1.498  1.7623  1.8202  0.8084
  145MOL    C6737795   5.532   1.396   1.230 -0.2871  0.3500  0.0271
  145MOL    C6837796   5.507   1.284   1.333  0.4466 -0.5432 -0.1520
  145MOL    O6937797   5.453   1.166   1.268  0.0454 -0.8294  0.7680
  145MOL    C7037798   5.535   1.118   1.166 -0.5911 -0.2768 -0.4248
  145MOL    C7137799   5.468   0.990   1.112 -0.1359  0.7755  0.0476
  145MOL    H7237800   5.623   1.363   1.180 -0.2763  2.9753 -1.7820
  145MOL    H7337801   5.441   1.403   1.169  0.0384 -1.1459 -0.6546
  145MOL    H7437802   5.604   1.262   1.377  1.4851 -1.9644 -3.0777
  145MOL    H7537803   5.633   1.105   1.212  0.0531  0.7521 -1.4700
  145MOL    H7637804   5.555   1.185   1.082  0.2855  0.9400  0.7205
  145MOL    H7737805   5.516   0.940   1.029  0.0858 -0.9316  1.1711
  145MOL    H7837806   5.444   0.926   1.197  1.6151  1.0811  0.7868
  145MOL    H7937807   5.369   1.016   1.073  0.5598  1.7794 -1.0678
  145MOL    C8037808   5.414   1.317   1.445  0.6654  0.5323 -0.1643
  145MOL    C8137809   5.376   1.196   1.528 -0.8542  0.6533 -0.2028
  145MOL    O8237810   5.272   1.243   1.615 -0.0750 -0.0323 -0.3325
  145MOL    C8337811   5.183   1.141   1.672  0.7351  0.3285 -0.4324
  145MOL    C8437812   5.069   1.217   1.745 -0.6667  0.4626  0.0823
  145MOL    H8537813   5.317   1.339   1.401  1.1636  4.0305  0.3350
  145MOL    H8637814   5.435   1.399   1.513  1.3640 -0.8636  1.3483
  145MOL    H8737815   5.330   1.116   1.471  1.3520  0.8242 -2.2460
  145MOL    H8837816   5.234   1.074   1.742  4.5558  1.4278 -2.0390
  145MOL    H8937817   5.138   1.079   1.594 -0.6600 -0.4334  0.9667
  145MOL    H9037818   5.115   1.278   1.822  3.7027 -0.2197 -1.8478
  145MOL    H9137819   5.021   1.284   1.673 -0.4451 -0.1760 -0.6661
  145MOL    H9237820   4.998   1.145   1.786  0.9076 -1.0849  0.1718
  145MOL    C9337821   5.501   1.140   1.610  0.7583 -0.0277  0.5235
  145MOL    C9437822   5.523   0.995   1.561  0.4083  0.1020 -0.8434
  145MOL    O9537823   5.436   0.907   1.627 -0.0892  0.6576  0.2357
  145MOL    C9637824   5.368   0.802   1.542 -0.4371  0.6495 -0.4929
  145MOL    C9737825   5.277   0.730   1.635  0.3177  0.1972 -0.3330
  145MOL    H9837826   5.473   1.133   1.715 -2.0547  3.4214  0.0926
  145MOL    H9937827   5.586   1.207   1.595  0.5682 -0.3897 -2.3758
  145MOL   H10037828   5.514   0.989   1.453  2.1620  1.4797 -1.1005
  145MOL   H10137829   5.445   0.737   1.501 -0.5177  1.4096 -1.8765
  145MOL   H10237830   5.323   0.838   1.449  0.5037 -1.1539 -1.6847
  145MOL   H10337831   5.199   0.792   1.678 -0.0221 -0.8121  0.5288
  145MOL   H10437832   5.224   0.645   1.590 -0.8695  0.6354  0.2214
  145MOL   H10537833   5.324   0.690   1.725 -0.1249  2.0471  0.7458
  145MOL   C10637834   5.664   0.958   1.608  0.1728 -0.0576 -0.3034
  145MOL   C10737835   5.772   0.989   1.508 -0.5599 -0.5934  0.1074
  145MOL   O10837836   5.780   0.882   1.414 -0.5736 -0.5612  0.0361
  145MOL   C10937837   5.846   0.908   1.288 -0.2696  0.8273  0.0272
  145MOL   C11037838   5.789   0.805   1.174 -0.0749 -0.4108 -0.7843
  145MOL   H11137839   5.672   0.849   1.614 -0.2402 -0.0891 -0.2886
  145MOL   H11237840   5.678   0.995   1.710  0.4092  0.9931 -0.7127
  145MOL   H11337841   5.736   1.076   1.454  3.1648  1.2111  0.3718
  145MOL   H11437842   5.953   0.900   1.306 -0.4929  2.4744  2.2996
  145MOL   H11537843   5.827   1.012   1.261 -1.3530  0.9970  1.3726
  145MOL   H11637844   5.805   0.836   1.071 -0.8050 -1.2858 -1.1766
  145MOL   H11737845   5.834   0.706   1.186 -1.2512 -0.7294  1.2723
  145MOL   H11837846   5.682   0.799   1.198 -0.4792 -0.9708 -2.6046
  145MOL   C11937847   5.912   1.015   1.573 -0.5299 -0.2123 -1.0146
  145MOL   C12037848   5.935   1.157   1.638  0.0365  0.6355  0.1878
  145MOL   O12137849   5.828   1.197   1.718 -0.2003 -0.3364  0.4828
  145MOL   C12237850   5.842   1.162   1.858  0.2536 -1.0527 -0.1657
  145MOL   C12337851   5.714   1.214   1.936 -0.3438 -0.5731  0.5971
  145MOL   H12437852   5.990   0.999   1.499  1.3803 -2.6522  1.4296
  145MOL   H12537853   5.924   0.938   1.649 -2.1833 -2.3878 -2.8975
  145MOL   H12637854   6.024   1.150   1.701  0.9735 -1.9760 -1.2943
  145MOL   H12737855   5.930   1.205   1.906 -1.4163  2.5611 -0.2057
  145MOL   H12837856   5.848   1.055   1.877 -0.5917 -1.3992 -1.7452
  145MOL   H12937857   5.695   1.321   1.935 -2.0140 -0.8419 -2.5364
  145MOL   H13037858   5.617   1.181   1.898 -0.1337  1.5517 -1.8786
  145MOL   H13137859   5.723   1.188   2.042 -1.6178 -2.5401  0.2459
  145MOL   C13237860   5.953   1.273   1.538  0.0222 -0.3246 -0.2463
  145MOL   C13337861   6.076   1.255   1.452  0.0815  0.2589  0.1058
  145MOL   O13437862   6.194   1.273   1.531  0.0341  0.6055  0.7987
  145MOL   C13537863   6.294   1.171   1.511 -0.4066 -0.6608  0.0024
  145MOL   C13637864   6.258   1.046   1.594  0.0894  0.4268  0.0434
  145MOL   H13737865   5.948   1.373   1.583 -2.0920 -1.3199  1.8754
  145MOL   H13837866   5.867   1.267   1.471  0.5705 -1.9483 -0.8245
  145MOL   H13937867   6.078   1.155   1.407  0.6092  1.3141 -2.2799
  145MOL   H14037868   6.391   1.202   1.548 -1.0283  0.6049  0.6030
  145MOL   H14137869   6.315   1.159   1.404  1.1459 -0.6135  0.2894
  145MOL   H14237870   6.216   1.054   1.694 -2.7996 -1.6536 -0.9419
  145MOL   H14337871   6.192   0.980   1.538 -1.3998  1.9670 -0.0436
  145MOL   H14437872   6.349   0.987   1.610  0.9396  1.8993  0.7607
  145MOL   C14537873   6.079   1.348   1.324  1.0910  0.9240  0.3074
  145MOL   C14637874   6.184   1.322   1.212  0.3505  0.0885  0.1713
  145MOL   O14737875   6.157   1.426   1.115  0.1606 -0.0390  0.2173
  145MOL   C14837876   6.234   1.541   1.138  0.4040 -0.4989 -0.1001
  145MOL   C14937877   6.196   1.645   1.033 -0.5630  0.7248 -0.0836
  145MOL   H15037878   6.092   1.445   1.373 -0.9739  0.5973  1.5597
  145MOL   H15137879   5.980   1.360   1.280  0.5692  0.6081  1.3841
  145MOL   H15237880   6.290   1.320   1.239  0.4747 -0.1026 -0.3296
  145MOL   H15337881   6.340   1.518   1.127  1.0488  2.7660 -1.2532
  145MOL   H15437882   6.226   1.591   1.235  2.3615 -3.3604  1.6057
  145MOL   H15537883   6.093   1.678   1.051 -0.5589  0.4955  0.3678
  145MOL   H15637884   6.256   1.736   1.029 -0.0589  0.3719 -0.4964
  145MOL   H15737885   6.211   1.591   0.940  1.5027  0.7162  0.2345
  145MOL   C15837886   6.160   1.183   1.147  0.4378 -0.5306  0.7992
  145MOL   C15937887   6.222   1.163   1.008 -0.4497 -0.1577 -0.0750
  145MOL   O16037888   6.185   1.042   0.947  0.2924 -0.1837  0.5303
  145MOL   C16137889   6.060   1.031   0.888  1.3344 -0.0379  0.0671
  145MOL   C16237890   6.042   0.889   0.849  0.4838  0.7641  0.0093
  145MOL   H16337891   6.055   1.163   1.129 -0.2878  1.7771  2.3609
  145MOL   H16437892   6.187   1.096   1.207 -3.0702 -0.3282  2.7331
  145MOL   H16537893   6.186   1.237   0.937 -1.7230 -1.2858 -0.6398
  145MOL   H16637894   6.034   1.096   0.805 -1.8444 -2.2942 -0.8069
  145MOL   H16737895   5.979   1.048   0.959  1.4800  3.0159 -0.4239
  145MOL   H16837896   5.942   0.878   0.807  0.2785 -0.2500  0.7508
  145MOL   H16937897   6.119   0.870   0.774  1.8010  1.4857  1.1672
  145MOL   H17037898   6.047   0.819   0.932 -2.2110 -0.4921 -0.8284
  145MOL   C17137899   6.378   1.155   1.000 -0.2918 -0.1558  0.0184
  145MOL   C17237900   6.441   1.175   0.862  0.2045  0.2240  0.1599
  145MOL   O17337901   6.565   1.099   0.848  0.2435  0.1960  0.2884
  145MOL   C17437902   6.555   0.989   0.756 -0.1092 -0.8835 -0.3580
  145MOL   C17537903   6.687   0.916   0.737 -0.1039  0.1293 -0.4265
  145MOL   H17637904   6.414   1.065   1.052  2.2417  0.3122 -0.8515
  145MOL   H17737905   6.409   1.240   1.061  0.1434 -0.9358  0.9020
  145MOL   H17837906   6.370   1.138   0.789  1.8247 -0.2653 -1.2021
  145MOL   H17937907   6.533   1.036   0.661  0.8050  0.5897  0.1328
  145MOL   H18037908   6.476   0.923   0.791 -0.3867 -0.4267 -0.1217
  145MOL   H18137909   6.720   0.880   0.835 -2.1983  1.4411  0.7909
  145MOL   H18237910   6.680   0.825   0.678  1.7129 -0.1159 -0.3009
  145MOL   H18337911   6.774   0.969   0.698 -0.0186  0.0436 -0.3550
  145MOL   C18437912   6.476   1.323   0.834 -0.3218  0.0984  1.1865
  145MOL   C18537913   6.534   1.339   0.690 -0.2701  0.7833 -0.9212
  145MOL   O18637914   6.614   1.463   0.679 -0.2150  0.2893  0.1894
  145MOL   C18737915   6.743   1.451   0.746 -0.3410  0.3319  0.2801
  145MOL   C18837916   6.828   1.563   0.694  0.4672 -0.1985 -0.4129
  145MOL   H18937917   6.554   1.346   0.907 -0.6992  0.8518  1.3561
  145MOL   H19037918   6.390   1.385   0.856 -2.5364 -2.3928 -0.1935
  145MOL   H19137919   6.588   1.251   0.657 -2.6913 -0.3695 -1.9183
  145MOL   H19237920   6.801   1.362   0.721  0.9470  0.9792  0.9072
  145MOL   H19337921   6.735   1.441   0.855  3.3272 -0.5837  0.5309
  145MOL   H19437922   6.930   1.524   0.695  0.0905 -1.2680 -1.9398
  145MOL   H19537923   6.790   1.582   0.594 -1.0737 -1.1560 -0.0229
  145MOL   H19637924   6.817   1.652   0.757 -3.4147 -1.7954  1.3665
  145MOL   C19737925   6.426   1.362   0.591  0.6263 -0.4015  0.3786
  145MOL   C19837926   6.474   1.404   0.446  0.0449  0.5053  0.7509
  145MOL   O19937927   6.360   1.420   0.368 -0.4397 -0.1458 -0.2702
  145MOL   C20037928   6.325   1.548   0.326  0.4410  0.0460 -0.5832
  145MOL   C20137929   6.209   1.536   0.216  0.2695  0.4553  0.0444
  145MOL   H20237930   6.359   1.444   0.617  1.1960  0.0403  0.4733
  145MOL   H20337931   6.373   1.267   0.583 -0.0956  0.2121 -3.2736
  145MOL   H20437932   6.535   1.494   0.448  1.0677 -0.2003  1.6633
  145MOL   H20537933   6.419   1.584   0.285 -0.2935 -0.9017 -3.1957
  145MOL   H20637934   6.295   1.612   0.408  3.5212  2.1791 -1.0343
  145MOL   H20737935   6.202   1.632   0.165  0.0503  0.5916  0.3301
  145MOL   H20837936   6.236   1.459   0.143  1.6523  2.6429 -1.8003
  145MOL   H20937937   6.118   1.517   0.272  0.3178  0.5783  0.1639
  145MOL   C21037938   6.556   1.292   0.374 -0.1024 -0.1113 -0.2142
  145MOL   C21137939   6.608   1.327   0.234 -0.4790  0.8552  0.0113
  145MOL   O21237940   6.661   1.206   0.179  0.0271  0.0910 -0.1706
  145MOL   C21337941   6.563   1.127   0.113  0.4471  0.1106  0.3755
  145MOL   C21437942   6.618   1.062   7.828  0.3104 -0.2115  0.1003
  145MOL   H21537943   6.481   1.213   0.374 -1.6436  1.3571 -0.2830
  145MOL   H21637944   6.640   1.263   0.438 -1.3591 -0.0230  1.5205
  145MOL   H21737945   6.530   1.376   0.175 -0.5454  0.2233 -0.4203
  145MOL   H21837946   6.472   1.185   0.100  1.5380  1.8492  0.3550
  145MOL   H21937947   6.532   1.048   0.182  0.6243  0.3541  0.7362
  145MOL   H22037948   6.687   0.978   7.843  0.4505 -0.2109 -0.4984
  145MOL   H22137949   6.534   1.028   7.767 -0.5330  0.1438  1.0732
  145MOL   H22237950   6.669   1.133   7.763 -0.2677 -0.2559 -0.3990
  145MOL   C22337951   6.735   1.418   0.229  0.1605  0.0558  0.5864
  145MOL   C22437952   6.756   1.489   0.090 -0.1403  0.1055  0.4943
  145MOL   O22537953   6.892   1.517   0.064 -0.0725  0.1284  0.6003
  145MOL   C22637954   6.973   1.405   0.053  0.9608 -0.8921 -0.5934
  145MOL   C22737955   7.104   1.450   7.838  0.0319 -0.3289 -0.3639
  145MOL   H22837956   6.815   1.347   0.248 -0.1289 -0.2290  0.7453
  145MOL   H22937957   6.740   1.493   0.309 -1.0702  0.2506  0.4871
  145MOL   H23037958   6.718   1.422   0.013  0.2687  1.1354 -0.6269
  145MOL   H23137959   6.939   1.340   7.817  0.2861 -0.5101 -0.6167
  145MOL   H23237960   6.986   1.335   0.136  3.2003 -0.2283 -0.3393
  145MOL   H23337961   7.174   1.367   7.832 -1.3189 -1.3735 -2.2004
  145MOL   H23437962   7.080   1.475   7.734 -1.0737  1.4197  0.2859
  145MOL   H23537963   7.147   1.538   0.042 -0.5018  0.6593 -1.6809
  145MOL   C23637964   6.678   1.615   0.072  0.5409  0.2319  0.5957
  145MOL   C23737965   6.668   1.664   7.770  0.4833  0.0017 -0.2159
  145MOL   O23837966   6.578   1.781   7.771  0.9077 -0.3067 -0.7261
  145MOL   C23937967   6.596   1.879   7.675  0.0269  0.4611 -0.1289
  145MOL   C24037968   6.734   1.943   7.705  0.0044 -0.1797 -0.3138
  145MOL   H24137969   6.726   1.687   0.139  0.9639  1.0887 -0.6089
  145MOL   H24237970   6.581   1.600   0.119  0.5077  1.1642  0.8396
  145MOL   H24337971   6.771   1.681   7.737  0.2781  0.5572 -0.5622
  145MOL   H24437972   6.511   1.947   7.672  0.3008  0.7799 -0.6677
  145MOL   H24537973   6.595   1.845   7.571  2.1006  2.6086 -0.8924
  145MOL   H24637974   6.748   2.029   7.639  1.0016  0.2319  0.4188
  145MOL   H24737975   6.757   1.989   7.801 -1.5082  3.0795 -1.4214
  145MOL   H24837976   6.813   1.882   7.663 -1.2606 -0.9640 -1.5863
  145MOL   C24937977   6.589   1.566   7.681  0.4911  0.2006 -0.0390
  145MOL   C25037978   6.457   1.505   7.735 -0.2320 -0.6503  0.4166
  145MOL   O25137979   6.373   1.428   7.652  0.1312  0.3633  0.1274
  145MOL   C25237980   6.391   1.287   7.654 -0.1582  0.4684  0.2466
  145MOL   C25337981   6.328   1.210   7.530 -0.8496  0.3905  0.6808
  145MOL   H25437982   6.656   1.485   7.651 -1.9987 -1.1544 -2.2306
  145MOL   H25537983   6.573   1.616   7.585  1.7885  0.6097 -0.0495
  145MOL   H25637984   6.492   1.439   7.813  0.8731  0.0996  0.5737
  145MOL   H25737985   6.327   1.247   7.733 -0.1572 -0.5977 -0.2792
  145MOL   H25837986   6.495   1.260   7.672 -0.0368  1.1598  0.5893
  145MOL   H25937987   6.373   1.244   7.437  2.9944  1.1899  2.7417
  145MOL   H26037988   6.358   1.106   7.519 -2.0527  0.3093 -2.1551
  145MOL   H26137989   6.219   1.221   7.531 -1.1426 -2.2395  2.2104
  145MOL   H26237990   6.390   1.576   7.784 -1.2933 -1.9406  0.8695
  146MOL     C137991   0.805   6.894   3.323  0.2148 -0.0035  0.1061
  146MOL     C237992   0.711   6.913   3.447  0.6621 -0.2852  0.1313
  146MOL     O337993   0.680   7.055   3.434  0.2346  0.2841 -0.1695
  146MOL     C437994   0.557   7.098   3.481 -0.2269 -0.6113 -0.0597
  146MOL     C537995   0.546   7.247   3.451  0.3956  0.6961  0.0022
  146MOL     H637996   0.835   6.789   3.327  0.5025  0.0878  0.4290
  146MOL     H737997   0.750   6.910   3.230  0.2888  2.2522  0.4237
  146MOL     H837998   0.619   6.856   3.434  1.6872 -1.4797 -2.3326
  146MOL     H937999   0.560   7.079   3.588  1.3469 -0.2636 -0.0343
  146MOL    H1038000   0.479   7.037   3.434  1.2546 -5.7829  3.6582
  146MOL    H1138001   0.626   7.309   3.491  2.1496 -1.1954 -0.5219
  146MOL    H1238002   0.538   7.267   3.344  0.5043 -0.8309 -0.2948
  146MOL    H1338003   0.459   7.290   3.502  0.3358  1.8713 -1.0485
  146MOL    H1438004   0.896   6.953   3.333 -1.0382  1.5402  2.8219
  146MOL    C1538005   0.764   6.878   3.587 -1.0373  0.1177  0.6836
  146MOL    C1638006   0.805   6.725   3.605  0.3875 -0.6863 -0.5989
  146MOL    O1738007   0.692   6.646   3.577 -0.1282  0.0700  0.3834
  146MOL    C1838008   0.717   6.523   3.517  0.1138 -1.0005 -0.3452
  146MOL    C1938009   0.588   6.463   3.459 -0.0778 -0.5639 -0.2950
  146MOL    H2038010   0.681   6.917   3.645 -0.8137  1.7268 -0.0449
  146MOL    H2138011   0.848   6.946   3.605  0.2785 -1.5756  1.0879
  146MOL    H2238012   0.883   6.695   3.536  1.5923  0.7669  0.1040
  146MOL    H2338013   0.750   6.456   3.595 -0.3399 -0.7182  0.0931
  146MOL    H2438014   0.794   6.528   3.440 -0.3866  2.8142 -0.7040
  146MOL    H2538015   0.538   6.517   3.378 -1.9585 -0.2717  1.0233
  146MOL    H2638016   0.507   6.457   3.531  0.0087 -0.8591 -0.2231
  146MOL    H2738017   0.623   6.367   3.422 -1.6068 -1.2449 -0.0276
  146MOL    C2838018   0.838   6.689   3.745 -0.0792 -0.3238  0.0886
  146MOL    C2938019   0.978   6.734   3.795 -0.1036 -0.5513 -0.0938
  146MOL    O3038020   1.073   6.672   3.704 -0.3537 -0.1128  0.1233
  146MOL    C3138021   1.174   6.759   3.657 -0.5306 -0.2987 -0.7652
  146MOL    C3238022   1.261   6.685   3.555  0.2860  0.4342 -0.5933
  146MOL    H3338023   0.836   6.580   3.755 -0.6820 -0.3451 -0.2432
  146MOL    H3438024   0.753   6.722   3.805 -1.3879 -1.2392 -1.2419
  146MOL    H3538025   0.989   6.842   3.797  2.4908 -0.7907  0.3036
  146MOL    H3638026   1.235   6.787   3.742 -1.2469  1.9114 -0.9461
  146MOL    H3738027   1.147   6.854   3.611  1.3062 -0.1359 -1.5705
  146MOL    H3838028   1.346   6.751   3.537 -0.0817  0.8806 -0.7036
  146MOL    H3938029   1.290   6.591   3.600 -1.1171  0.1777 -0.2052
  146MOL    H4038030   1.201   6.665   3.466  0.5222 -0.9436 -0.4417
  146MOL    C4138031   1.009   6.678   3.938 -0.1406 -0.2413  0.4344
  146MOL    C4238032   0.925   6.739   4.054  0.0221 -0.3712  0.6683
  146MOL    O4338033   0.945   6.880   4.049 -0.1945  0.2568  0.4461
  146MOL    C4438034   0.828   6.954   4.014  1.0016 -0.5291 -0.2313
  146MOL    C4538035   0.780   7.020   4.143 -0.3225  0.4141 -0.1536
  146MOL    H4638036   1.109   6.716   3.955 -0.1689 -0.2108  0.5321
  146MOL    H4738037   1.009   6.569   3.940 -2.1076 -0.2630  0.5146
  146MOL    H4838038   0.821   6.718   4.030 -0.5179  1.3862  1.3551
  146MOL    H4938039   0.751   6.902   3.956  2.1044 -1.3915 -0.9445
  146MOL    H5038040   0.861   7.035   3.949  2.3682 -1.1813 -0.3700
  146MOL    H5138041   0.855   7.090   4.179 -0.6681  2.2716 -2.8397
  146MOL    H5238042   0.694   7.086   4.128  0.2531  1.6753  1.9785
  146MOL    H5338043   0.758   6.950   4.223  0.0104  0.8244  0.3023
  146MOL    C5438044   0.970   6.681   4.192  0.0459  0.2223 -0.6247
  146MOL    C5538045   0.918   6.536   4.213  0.0575  0.3635 -0.2794
  146MOL    O5638046   0.775   6.547   4.218  0.4592 -0.4264 -0.1486
  146MOL    C5738047   0.704   6.438   4.152 -0.4595  1.0420 -0.1516
  146MOL    C5838048   0.559   6.465   4.174 -0.1174 -0.4535  0.1749
  146MOL    H5938049   0.936   6.754   4.266 -2.4425 -0.3412 -1.1853
  146MOL    H6038050   1.079   6.689   4.195  0.1250 -0.8183 -0.7083
  146MOL    H6138051   0.945   6.473   4.127 -3.7870 -0.3593 -1.0266
  146MOL    H6238052   0.731   6.337   4.183 -0.4499  0.7547 -1.0746
  146MOL    H6338053   0.710   6.445   4.044  0.9451  0.0597 -0.1485
  146MOL    H6438054   0.530   6.555   4.120 -0.2260 -0.2479  0.5707
  146MOL    H6538055   0.504   6.379   4.135 -0.0797  0.5307 -2.0717
  146MOL    H6638056   0.528   6.485   4.277 -1.6746 -0.1163 -0.3491
  146MOL    C6738057   0.974   6.473   4.344 -0.1071  0.0457 -0.2902
  146MOL    C6838058   1.127   6.442   4.347 -0.0339 -0.5500 -0.2538
  146MOL    O6938059   1.147   6.342   4.250 -0.2865  0.2376 -0.9823
  146MOL    C7038060   1.271   6.356   4.178  0.0483 -0.2802 -0.2468
  146MOL    C7138061   1.258   6.263   4.062  0.0011  0.2008 -0.4600
  146MOL    H7238062   0.928   6.376   4.360 -0.6928  0.0838 -1.6734
  146MOL    H7338063   0.950   6.534   4.431  1.1385  1.5889 -0.9896
  146MOL    H7438064   1.187   6.533   4.336  0.6364 -0.7085  2.0325
  146MOL    H7538065   1.351   6.331   4.248  0.2896 -0.9401 -0.7445
  146MOL    H7638066   1.286   6.456   4.137 -1.6078 -0.2296 -0.7368
  146MOL    H7738067   1.309   6.305   3.975  1.2493 -1.9666 -0.8311
  146MOL    H7838068   1.311   6.169   4.080 -0.1272  0.2505  0.1683
  146MOL    H7938069   1.155   6.237   4.040 -0.5874  1.9430  0.1516
  146MOL    C8038070   1.165   6.376   4.481  0.4554 -0.7856 -0.9353
  146MOL    C8138071   1.157   6.472   4.604  0.0783 -0.5950 -0.1834
  146MOL    O8238072   1.283   6.545   4.605  0.1335  0.3216  0.0329
  146MOL    C8338073   1.268   6.681   4.637 -0.1932 -0.1304  0.0789
  146MOL    C8438074   1.403   6.735   4.675  0.2203  0.5351 -0.1228
  146MOL    H8538075   1.250   6.309   4.469 -0.3128 -1.9515 -0.0075
  146MOL    H8638076   1.094   6.297   4.506  1.5741 -1.7195 -0.6962
  146MOL    H8738077   1.080   6.549   4.592  1.5038  0.7779 -0.7472
  146MOL    H8838078   1.208   6.681   4.728  0.9946  0.6413  0.8745
  146MOL    H8938079   1.231   6.747   4.558 -0.7544 -0.0669  0.3919
  146MOL    H9038080   1.470   6.705   4.594 -1.0689 -1.0952 -0.6037
  146MOL    H9138081   1.412   6.843   4.663  0.5456  0.5318  0.1021
  146MOL    H9238082   1.438   6.709   4.775 -2.1982 -1.0449  0.3487
  146MOL    C9338083   1.145   6.397   4.739  0.1258  0.4466 -0.4431
  146MOL    C9438084   1.243   6.269   4.766  0.5308  0.5180 -0.1472
  146MOL    O9538085   1.213   6.203   4.894  0.5905  0.3324  0.4836
  146MOL    C9638086   1.159   6.074   4.891 -0.2481 -0.2986  0.1895
  146MOL    C9738087   1.059   6.051   5.004 -0.3549  0.9779 -0.0113
  146MOL    H9838088   1.044   6.357   4.743  0.8000 -1.1245  2.4601
  146MOL    H9938089   1.159   6.476   4.813  0.8876 -1.0143  1.0095
  146MOL   H10038090   1.235   6.201   4.681  1.1415 -1.6974  1.5275
  146MOL   H10138091   1.240   6.002   4.898 -0.1609 -0.4236 -1.7357
  146MOL   H10238092   1.108   6.064   4.795 -0.1026 -1.3548  0.2189
  146MOL   H10338093   1.116   6.071   5.095  2.1981  2.6633 -1.8941
  146MOL   H10438094   0.981   6.125   4.985 -1.2094 -0.3126 -1.5755
  146MOL   H10538095   1.021   5.949   4.998  0.1051  1.0091 -4.8127
  146MOL   C10638096   1.391   6.319   4.768 -0.7512 -0.4837  0.1972
  146MOL   C10738097   1.487   6.213   4.810 -0.3943  0.2184 -0.7386
  146MOL   O10838098   1.622   6.274   4.804 -0.4315 -0.0103 -0.1510
  146MOL   C10938099   1.650   6.347   4.923 -0.1793  0.1836 -0.1232
  146MOL   C11038100   1.783   6.415   4.913  0.3902 -0.2768 -0.0525
  146MOL   H11138101   1.391   6.409   4.830 -1.2112 -0.6742  0.4768
  146MOL   H11238102   1.415   6.349   4.667 -1.8375  1.0528  0.3850
  146MOL   H11338103   1.451   6.188   4.910  0.5016  3.7513  0.5412
  146MOL   H11438104   1.667   6.278   5.006 -0.4023 -1.2077 -1.2113
  146MOL   H11538105   1.568   6.414   4.948 -1.7847 -1.3582 -1.1125
  146MOL   H11638106   1.804   6.493   4.986  0.7889 -0.5315  0.1072
  146MOL   H11738107   1.864   6.342   4.920 -0.8872 -1.8613 -1.4645
  146MOL   H11838108   1.783   6.462   4.815 -0.8880  0.9926  0.5306
  146MOL   C11938109   1.498   6.092   4.712  0.5967 -0.6550  0.4929
  146MOL   C12038110   1.525   6.106   4.562  0.1691  0.3088  0.3264
  146MOL   O12138111   1.502   5.983   4.496  0.3242  0.0431  0.6476
  146MOL   C12238112   1.368   5.951   4.460 -0.1022 -0.7657 -0.2906
  146MOL   C12338113   1.362   5.817   4.384 -0.0237  0.3070 -0.0176
  146MOL   H12438114   1.407   6.033   4.723  1.1813 -1.6016  0.2355
  146MOL   H12538115   1.570   6.026   4.761  2.0921  0.9978  0.5771
  146MOL   H12638116   1.454   6.175   4.516 -1.4961  0.7445  3.3457
  146MOL   H12738117   1.321   6.031   4.403 -2.7903 -1.0833  1.3862
  146MOL   H12838118   1.312   5.936   4.552  0.2858 -3.4689 -0.4716
  146MOL   H12938119   1.421   5.820   4.292  0.2377 -0.4759  0.1188
  146MOL   H13038120   1.409   5.738   4.442  1.9668  1.1119 -0.4879
  146MOL   H13138121   1.260   5.787   4.361  1.0143 -2.0660 -1.6976
  146MOL   C13238122   1.664   6.138   4.514  0.1674 -0.4169  0.7361
  146MOL   C13338123   1.659   6.194   4.368 -0.5265  0.6162 -0.0593
  146MOL   O13438124   1.653   6.084   4.278  0.1309 -0.0621  0.0877
  146MOL   C13538125   1.547   6.088   4.191  0.2659 -0.8484 -0.7060
  146MOL   C13638126   1.567   5.984   4.078 -0.0961  0.3722 -0.2733
  146MOL   H13738127   1.733   6.054   4.521  1.1352 -0.1158 -3.5134
  146MOL   H13838128   1.696   6.217   4.582  0.7592  1.2830 -1.4620
  146MOL   H13938129   1.579   6.266   4.350  0.0424  0.8331 -1.7534
  146MOL   H14038130   1.540   6.187   4.145  2.1669 -1.7975 -3.1260
  146MOL   H14138131   1.454   6.071   4.245  1.7192 -0.0829  2.1239
  146MOL   H14238132   1.669   5.999   4.042 -0.5265 -0.5409 -1.8951
  146MOL   H14338133   1.562   5.877   4.098 -0.5612 -0.0206 -2.3332
  146MOL   H14438134   1.518   6.015   3.986  1.2888 -1.4041 -1.6606
  146MOL   C14538135   1.791   6.275   4.342  0.0029  1.0337 -0.6641
  146MOL   C14638136   1.796   6.424   4.382  0.2349 -0.7248 -0.0939
  146MOL   O14738137   1.701   6.489   4.299 -0.5086  0.1831  0.1868
  146MOL   C14838138   1.608   6.572   4.370 -0.5253  0.0921  0.7553
  146MOL   C14938139   1.523   6.614   4.256  0.3140  0.5841  0.1086
  146MOL   H15038140   1.832   6.249   4.244 -0.6546 -2.4086 -0.0774
  146MOL   H15138141   1.869   6.234   4.406  0.8540  1.0582 -1.6544
  146MOL   H15238142   1.776   6.441   4.488  0.3039 -0.2982 -0.1466
  146MOL   H15338143   1.664   6.654   4.415  2.3624 -2.9835  3.0210
  146MOL   H15438144   1.561   6.513   4.449  1.0955 -1.1363  0.8425
  146MOL   H15538145   1.586   6.678   4.195  0.0139  1.6517  0.8878
  146MOL   H15638146   1.490   6.531   4.193  0.3669 -0.3134  1.2375
  146MOL   H15738147   1.437   6.673   4.290  0.9284  0.8554  1.2277
  146MOL   C15838148   1.936   6.477   4.355  0.1564 -0.2743  0.3053
  146MOL   C15938149   1.953   6.624   4.395 -0.2585 -0.0856 -0.1902
  146MOL   O16038150   2.071   6.680   4.335  0.4847  0.2038  0.6359
  146MOL   C16138151   2.073   6.668   4.190  0.4752  0.4557 -0.1208
  146MOL   C16238152   2.152   6.790   4.147  0.1753  0.6578  0.1343
  146MOL   H16338153   1.960   6.449   4.252  0.3223 -0.9436  0.5258
  146MOL   H16438154   2.010   6.424   4.415 -0.2517 -0.4105  0.6929
  146MOL   H16538155   1.876   6.687   4.351 -0.5190 -0.6711 -0.5671
  146MOL   H16638156   1.973   6.677   4.148 -0.5248  0.6889  2.2332
  146MOL   H16738157   2.130   6.584   4.151  0.8745  1.2900 -1.3611
  146MOL   H16838158   2.142   6.817   4.042 -0.5317  1.3552  0.3740
  146MOL   H16938159   2.122   6.881   4.198  1.2311  1.4753 -0.6655
  146MOL   H17038160   2.257   6.776   4.173  0.4900  2.9689  0.2331
  146MOL   C17138161   1.966   6.641   4.544 -0.3208 -0.2283 -0.0017
  146MOL   C17238162   2.021   6.772   4.595 -0.4651 -0.0475 -0.0509
  146MOL   O17338163   2.028   6.758   4.737  0.3205  0.0256  0.0874
  146MOL   C17438164   2.151   6.709   4.780  1.0152 -0.2596 -0.3529
  146MOL   C17538165   2.170   6.721   4.932 -0.1702  0.1671 -0.0897
  146MOL   H17638166   2.023   6.562   4.593  0.8063  1.2778  1.1712
  146MOL   H17738167   1.868   6.634   4.590 -0.6730 -0.4428 -0.7864
  146MOL   H17838168   2.112   6.778   4.535 -1.8934  3.3495 -2.0248
  146MOL   H17938169   2.226   6.766   4.725 -0.2942  0.9353 -0.9506
  146MOL   H18038170   2.163   6.605   4.750  1.1318 -0.4680  0.4082
  146MOL   H18138171   2.134   6.815   4.974 -1.1733 -0.9905  1.7063
  146MOL   H18238172   2.111   6.649   4.990 -1.0321 -1.8012 -3.2570
  146MOL   H18338173   2.278   6.716   4.942 -0.2852  0.3514  1.3465
  146MOL   C18438174   1.919   6.887   4.571  0.3027  0.2646 -0.6633
  146MOL   C18538175   1.951   7.031   4.620 -0.6238  0.9662 -0.9145
  146MOL   O18638176   2.072   7.095   4.580 -0.1234 -0.0245  0.8559
  146MOL   C18738177   2.084   7.131   4.439  0.4153  0.6600  0.2512
  146MOL   C18838178   2.226   7.174   4.433  0.2802 -0.0191 -0.2662
  146MOL   H18938179   1.827   6.848   4.615  0.6470 -2.2226 -2.0403
  146MOL   H19038180   1.901   6.899   4.464  1.6940  0.3460 -0.8895
  146MOL   H19138181   1.864   7.088   4.589 -0.8419  1.9150  1.3015
  146MOL   H19238182   2.021   7.218   4.419  0.1085  0.8334  1.9141
  146MOL   H19338183   2.062   7.056   4.363  1.6081 -0.2514  0.7911
  146MOL   H19438184   2.228   7.268   4.488 -0.1519  0.2954 -0.7817
  146MOL   H19538185   2.287   7.102   4.488 -0.1685 -0.6533 -0.5907
  146MOL   H19638186   2.278   7.191   4.339  0.1766  0.1584 -0.2917
  146MOL   C19738187   1.957   7.051   4.778 -0.1268 -0.0940 -0.6228
  146MOL   C19838188   1.831   7.004   4.855  0.0741  0.1965 -0.3235
  146MOL   O19938189   1.746   7.117   4.843 -0.9898  0.1058  0.2137
  146MOL   C20038190   1.633   7.104   4.757 -0.1146 -0.3965 -0.2002
  146MOL   C20138191   1.563   7.242   4.735 -0.1563  0.3224  0.2200
  146MOL   H20238192   1.964   7.158   4.799  0.8162  0.2074 -2.3886
  146MOL   H20338193   2.041   7.002   4.826  0.6071  0.5422 -1.2336
  146MOL   H20438194   1.788   6.916   4.809  0.2039 -0.7142  1.2565
  146MOL   H20538195   1.559   7.037   4.802 -1.4491  2.0643  1.3842
  146MOL   H20638196   1.674   7.069   4.662 -0.2069  1.1925 -0.8325
  146MOL   H20738197   1.614   7.299   4.657  0.8838 -1.0677 -0.1211
  146MOL   H20838198   1.459   7.231   4.705  0.3717  0.3717 -1.6635
  146MOL   H20938199   1.572   7.302   4.826  1.2481  2.0090 -0.9972
  146MOL   C21038200   1.862   6.984   5.013  0.2658  0.4682  0.7895
  146MOL   C21138201   1.746   6.927   5.095 -0.5069 -0.2670  0.4220
  146MOL   O21238202   1.768   6.952   5.230  0.1039 -0.5045  0.8522
  146MOL   C21338203   1.699   7.058   5.282  0.6526  0.8558 -0.0227
  146MOL   C21438204   1.711   7.057   5.433  0.0032 -0.3951 -0.8892
  146MOL   H21538205   1.884   7.087   5.041  0.3388  0.6563  0.0515
  146MOL   H21638206   1.955   6.929   5.027 -0.4559 -0.4498  2.0618
  146MOL   H21738207   1.657   6.979   5.061  1.3613  3.3473  0.8929
  146MOL   H21838208   1.593   7.042   5.263 -0.2886  2.8493  3.1115
  146MOL   H21938209   1.739   7.153   5.248  1.7658  0.1137 -0.8211
  146MOL   H22038210   1.654   7.141   5.472 -2.5066 -1.8663 -1.3177
  146MOL   H22138211   1.667   6.973   5.486  0.4212 -0.2970 -0.3778
  146MOL   H22238212   1.810   7.073   5.476 -1.7262 -0.1626  3.1729
  146MOL   C22338213   1.732   6.770   5.087  0.2325 -0.0656  0.0835
  146MOL   C22438214   1.607   6.721   5.158  0.5932 -0.1448 -0.3275
  146MOL   O22538215   1.634   6.584   5.177  0.3404 -0.2228  0.6163
  146MOL   C22638216   1.698   6.545   5.296  0.4673 -0.5552 -0.4221
  146MOL   C22738217   1.701   6.392   5.299  0.3005 -0.3950  0.2774
  146MOL   H22838218   1.827   6.723   5.112  0.6676  1.3788  1.1883
  146MOL   H22938219   1.713   6.755   4.981  1.5133 -0.9886 -0.0278
  146MOL   H23038220   1.589   6.757   5.260  0.0379  1.0907 -0.8512
  146MOL   H23138221   1.649   6.568   5.391  1.5349 -0.7145  0.1776
  146MOL   H23238222   1.797   6.591   5.300  0.1295  0.0334  1.6298
  146MOL   H23338223   1.756   6.349   5.216  1.6795 -1.5777  1.7607
  146MOL   H23438224   1.745   6.353   5.391 -0.2465  0.3426  0.8557
  146MOL   H23538225   1.600   6.351   5.297 -0.0031  0.3970 -1.2439
  146MOL   C23638226   1.474   6.744   5.080  0.2527  0.4069  0.1143
  146MOL   C23738227   1.344   6.716   5.156  0.7992  1.1000  0.0272
  146MOL   O23838228   1.304   6.577   5.137  0.3130  0.0335  0.1570
  146MOL   C23938229   1.249   6.510   5.242 -0.3021 -0.0961 -0.1072
  146MOL   C24038230   1.236   6.366   5.202 -0.6533  0.4874 -0.2252
  146MOL   H24138231   1.480   6.678   4.994 -0.1000 -0.5856  0.8483
  146MOL   H24238232   1.484   6.844   5.037  0.6839 -0.0333 -0.8406
  146MOL   H24338233   1.367   6.727   5.262  1.3046 -0.4586  0.1034
  146MOL   H24438234   1.144   6.530   5.262 -0.0491  0.5597  0.5791
  146MOL   H24538235   1.312   6.507   5.331 -1.3711  0.1559  0.6626
  146MOL   H24638236   1.189   6.352   5.104 -1.3229  2.4140 -0.1934
  146MOL   H24738237   1.335   6.323   5.187 -0.6471 -0.0091  1.1928
  146MOL   H24838238   1.196   6.310   5.286 -1.4369  1.3561 -0.0127
  146MOL   C24938239   1.226   6.801   5.109  0.5976  0.2371  0.8658
  146MOL   C25038240   1.213   6.948   5.174  0.3118 -0.1167 -0.1853
  146MOL   O25138241   1.301   7.033   5.100 -0.5554 -0.1931 -0.4168
  146MOL   C25238242   1.286   7.169   5.144  0.0420  0.0098 -0.2535
  146MOL   C25338243   1.361   7.263   5.052  0.8229  0.1118 -0.0557
  146MOL   H25438244   1.136   6.751   5.146 -0.2392  0.1479 -1.1985
  146MOL   H25538245   1.235   6.806   5.000 -1.3032  1.1734  0.7273
  146MOL   H25638246   1.113   6.990   5.162  0.5862  1.2252  2.0020
  146MOL   H25738247   1.318   7.189   5.246  4.1215  2.7498 -1.9682
  146MOL   H25838248   1.178   7.184   5.143 -0.0748 -0.7889 -0.3703
  146MOL   H25938249   1.469   7.266   5.066  0.6636  1.7576  0.9762
  146MOL   H26038250   1.347   7.226   4.950 -1.0373 -4.3625  1.7356
  146MOL   H26138251   1.326   7.367   5.049  0.9861  0.1807  0.4761
  146MOL   H26238252   1.235   6.961   5.280 -0.9771  0.9437 -0.0420
  147MOL     C138253   6.331   5.493   4.901  0.6207 -0.3930  0.5082
  147MOL     C238254   6.194   5.466   4.844  0.0047  0.5205 -0.0434
  147MOL     O338255   6.181   5.554   4.736  0.1721  0.1504  0.6595
  147MOL     C438256   6.125   5.507   4.615 -0.4870  0.3622 -0.3604
  147MOL     C538257   6.104   5.631   4.526  0.6094 -0.4658 -0.1605
  147MOL     H638258   6.383   5.416   4.959  0.0795 -2.1219 -1.2621
  147MOL     H738259   6.407   5.505   4.824  2.0501  1.7866  2.1777
  147MOL     H838260   6.189   5.363   4.809 -1.4172  0.5781 -0.0581
  147MOL     H938261   6.036   5.447   4.627 -1.0046  0.9116 -1.4476
  147MOL    H1038262   6.193   5.440   4.563  1.2244  1.8174 -0.0723
  147MOL    H1138263   6.026   5.692   4.571 -0.5469 -0.0451 -2.6492
  147MOL    H1238264   6.189   5.698   4.511  1.5715 -1.4613  0.7096
  147MOL    H1338265   6.064   5.612   4.426 -0.9698  0.3707  0.2861
  147MOL    H1438266   6.329   5.588   4.954 -1.2603  1.1224 -2.2082
  147MOL    C1538267   6.075   5.490   4.945  0.6577  0.1188 -0.9305
  147MOL    C1638268   6.091   5.426   5.079 -0.2247 -0.2803  0.2523
  147MOL    O1738269   6.092   5.284   5.045 -0.0390 -0.4186 -0.3174
  147MOL    C1838270   6.164   5.210   5.137 -0.2048  0.1967 -0.7749
  147MOL    C1938271   6.090   5.080   5.163 -0.2305  0.2040  0.0587
  147MOL    H2038272   5.984   5.453   4.897 -0.4575 -0.5320  1.5536
  147MOL    H2138273   6.061   5.597   4.958  0.0732 -0.0410 -0.1741
  147MOL    H2238274   6.179   5.461   5.131 -1.1417  1.9274  0.3710
  147MOL    H2338275   6.192   5.266   5.225 -1.3534 -0.0354 -0.2493
  147MOL    H2438276   6.260   5.183   5.091 -0.2443 -0.4663 -0.4835
  147MOL    H2538277   6.037   5.035   5.078 -2.2518 -2.8594  2.8155
  147MOL    H2638278   6.021   5.088   5.247 -2.5026 -2.8519 -1.3922
  147MOL    H2738279   6.167   5.010   5.195 -0.9489 -0.4505  0.3825
  147MOL    C2838280   5.964   5.446   5.165 -0.6095 -0.2609 -0.0252
  147MOL    C2938281   5.926   5.594   5.202 -0.5262  0.3110  0.1223
  147MOL    O3038282   6.051   5.642   5.255 -0.3777  0.0760 -0.0219
  147MOL    C3138283   6.056   5.781   5.256 -0.0261 -0.2348 -0.1658
  147MOL    C3238284   6.199   5.825   5.271 -0.0075 -0.1035  0.2681
  147MOL    H3338285   5.970   5.388   5.256  0.7885  0.6199  0.4670
  147MOL    H3438286   5.875   5.412   5.112 -1.2016 -0.1327  0.8876
  147MOL    H3538287   5.897   5.636   5.106  0.4866  1.6763  0.3951
  147MOL    H3638288   6.005   5.823   5.342  1.1222 -1.2249  1.0091
  147MOL    H3738289   6.009   5.819   5.165  0.0220 -2.9714 -1.3756
  147MOL    H3838290   6.212   5.933   5.275 -4.4556  0.5006  0.5672
  147MOL    H3938291   6.232   5.789   5.368  2.3502 -0.1927 -0.5086
  147MOL    H4038292   6.266   5.769   5.204 -0.8120  0.0713 -0.6974
  147MOL    C4138293   5.816   5.601   5.311 -0.4827 -0.0318  0.2736
  147MOL    C4238294   5.679   5.525   5.279  0.0542 -0.2394 -0.4669
  147MOL    O4338295   5.618   5.589   5.175  0.0623 -0.2946  0.0784
  147MOL    C4438296   5.547   5.519   5.081  0.0031  0.1706  0.2011
  147MOL    C4538297   5.534   5.616   4.962  0.5453 -0.3827 -0.0328
  147MOL    H4638298   5.787   5.701   5.345  0.6534 -0.0932  1.4699
  147MOL    H4738299   5.863   5.554   5.397  0.0504 -1.3077 -0.7051
  147MOL    H4838300   5.709   5.424   5.251 -1.0781 -0.6367 -0.2646
  147MOL    H4938301   5.445   5.505   5.117  0.3925 -0.8007  0.9251
  147MOL    H5038302   5.592   5.421   5.066  0.3462  0.3083  0.3310
  147MOL    H5138303   5.511   5.716   5.000  1.4022 -1.0445  2.3067
  147MOL    H5238304   5.628   5.625   4.907 -0.4965  0.2915 -1.7471
  147MOL    H5338305   5.464   5.582   4.885 -0.2314 -2.4684  1.5706
  147MOL    C5438306   5.583   5.522   5.396  0.0532  0.3713 -0.8304
  147MOL    C5538307   5.640   5.455   5.520  0.6248 -0.2610  0.3842
  147MOL    O5638308   5.704   5.332   5.472 -0.1696  0.0420  0.5512
  147MOL    C5738309   5.800   5.283   5.560  0.5235  0.3298  0.1911
  147MOL    C5838310   5.865   5.149   5.507  0.5595 -0.1342 -0.2604
  147MOL    H5938311   5.501   5.465   5.354 -1.9924  2.0836  0.6966
  147MOL    H6038312   5.555   5.626   5.418 -1.6077  0.1989 -2.0232
  147MOL    H6138313   5.698   5.524   5.580 -1.6662  0.0939  2.2492
  147MOL    H6238314   5.753   5.257   5.655  0.0052  0.4228 -0.0385
  147MOL    H6338315   5.878   5.357   5.576  0.0019  0.7174  0.9816
  147MOL    H6438316   5.905   5.182   5.411 -1.4621  1.5404 -0.5772
  147MOL    H6538317   5.955   5.121   5.560 -0.7428  0.7439  2.5213
  147MOL    H6638318   5.794   5.069   5.486  0.6742  0.1564 -1.8131
  147MOL    C6738319   5.529   5.405   5.617 -0.4165 -0.3081  0.0129
  147MOL    C6838320   5.501   5.508   5.726  0.0541  0.5674 -0.3835
  147MOL    O6938321   5.607   5.514   5.827 -0.2030  0.1234  0.0550
  147MOL    C7038322   5.641   5.650   5.854 -0.3014 -0.8037 -0.4755
  147MOL    C7138323   5.686   5.671   6.000 -0.3278  0.4956 -0.0202
  147MOL    H7238324   5.537   5.302   5.652  1.1505 -0.5573 -1.0460
  147MOL    H7338325   5.440   5.397   5.555  0.2438  1.0568 -1.1373
  147MOL    H7438326   5.489   5.607   5.683  0.1499 -0.6770 -3.4081
  147MOL    H7538327   5.569   5.728   5.829  1.0348  0.4213 -0.5651
  147MOL    H7638328   5.729   5.667   5.792 -2.0882  1.8970 -2.3815
  147MOL    H7738329   5.696   5.777   6.026 -0.7906 -0.1837  3.2431
  147MOL    H7838330   5.618   5.627   6.073  1.4074 -3.0576 -0.4345
  147MOL    H7938331   5.777   5.614   6.018 -0.4779 -0.2691 -1.6105
  147MOL    C8038332   5.380   5.463   5.811 -0.4319 -0.6455 -0.0301
  147MOL    C8138333   5.247   5.484   5.737 -0.2111  0.2541 -0.3320
  147MOL    O8238334   5.249   5.625   5.709 -0.0894  0.3321 -0.1805
  147MOL    C8338335   5.227   5.650   5.574 -0.3882  0.2701  0.2202
  147MOL    C8438336   5.212   5.798   5.547  0.5717 -0.1331 -0.6307
  147MOL    H8538337   5.386   5.525   5.901  0.3978 -2.7781  1.4322
  147MOL    H8638338   5.394   5.365   5.858  1.1083 -0.6855 -0.5567
  147MOL    H8738339   5.227   5.419   5.651 -1.6246  0.0949  0.0991
  147MOL    H8838340   5.137   5.603   5.533 -0.8018 -0.2479  1.6761
  147MOL    H8938341   5.310   5.609   5.516 -1.2971  3.8361 -3.8558
  147MOL    H9038342   5.302   5.858   5.565 -1.8964  2.9240  2.2210
  147MOL    H9138343   5.178   5.818   5.445  1.7618 -3.8732 -1.8557
  147MOL    H9238344   5.127   5.837   5.603 -0.3011 -0.4131 -1.7349
  147MOL    C9338345   5.116   5.459   5.825 -0.7787 -0.2650  0.6189
  147MOL    C9438346   5.100   5.307   5.856  0.3233 -0.6491 -0.0944
  147MOL    O9538347   5.001   5.254   5.766  0.2177  0.1788  0.1810
  147MOL    C9638348   5.065   5.182   5.665 -1.0254  0.1517  0.1889
  147MOL    C9738349   4.956   5.135   5.567  0.0932  0.0108 -0.6153
  147MOL    H9838350   5.027   5.486   5.767 -0.4115 -0.7948 -0.1934
  147MOL    H9938351   5.122   5.524   5.912  1.2486  1.6018 -0.8540
  147MOL   H10038352   5.196   5.258   5.843 -0.2112 -2.7131  3.2153
  147MOL   H10138353   5.125   5.102   5.709  0.9751  0.9108 -1.0589
  147MOL   H10238354   5.139   5.241   5.611  0.1425 -1.9155 -0.5350
  147MOL   H10338355   4.900   5.225   5.542 -1.9186 -0.9883  0.2394
  147MOL   H10438356   4.989   5.080   5.479  0.0624 -0.1460 -0.5281
  147MOL   H10538357   4.882   5.077   5.621 -0.2801  1.8371  0.8859
  147MOL   C10638358   5.054   5.289   6.000 -0.1234  0.9714 -0.1817
  147MOL   C10738359   5.034   5.141   6.044 -0.3015  0.1230 -0.5028
  147MOL   O10838360   4.926   5.146   6.145  0.2546  1.0619 -0.0610
  147MOL   C10938361   4.789   5.119   6.095  0.7387 -0.4565  0.4902
  147MOL   C11038362   4.687   5.107   6.213  0.4005  0.2056  0.8609
  147MOL   H11138363   4.966   5.351   6.012  0.7211  2.1717 -0.0772
  147MOL   H11238364   5.130   5.332   6.065 -0.3266 -0.5664  1.1013
  147MOL   H11338365   5.000   5.096   5.951  3.6191  0.0853 -1.9917
  147MOL   H11438366   4.796   5.024   6.043  2.4996  0.0988 -0.3413
  147MOL   H11538367   4.752   5.193   6.024 -1.6229 -2.0219  0.0611
  147MOL   H11638368   4.591   5.070   6.176  0.9830 -0.7745  0.2879
  147MOL   H11738369   4.713   5.032   6.287  0.6051 -0.0754  0.5073
  147MOL   H11838370   4.690   5.199   6.271  1.4420  0.1018  0.9804
  147MOL   C11938371   5.160   5.073   6.099 -0.4559  0.4782  0.3486
  147MOL   C12038372   5.141   4.927   6.136  0.0406  0.0561 -1.2347
  147MOL   O12138373   5.256   4.862   6.192 -0.4440 -0.4125 -0.1000
  147MOL   C12238374   5.300   4.899   6.320  0.1859 -0.3082 -0.3739
  147MOL   C12338375   5.422   4.821   6.359  0.5336 -0.2233  0.3460
  147MOL   H12438376   5.196   5.132   6.184  2.8020 -0.4881 -0.3103
  147MOL   H12538377   5.246   5.079   6.033 -1.5159 -1.5568 -1.2554
  147MOL   H12638378   5.056   4.916   6.204  1.7259 -3.6145  0.3871
  147MOL   H12738379   5.216   4.873   6.385 -0.1396  0.1296 -0.6132
  147MOL   H12838380   5.310   5.007   6.330 -1.4585 -0.1911  0.2263
  147MOL   H12938381   5.405   4.720   6.320 -0.8564  0.5295 -1.0640
  147MOL   H13038382   5.502   4.868   6.302 -1.7262  1.4237 -1.5802
  147MOL   H13138383   5.446   4.823   6.465 -1.7796 -1.1558  0.9220
  147MOL   C13238384   5.102   4.845   6.014 -0.0948  0.4636  0.1857
  147MOL   C13338385   5.190   4.853   5.880 -0.4134 -0.1002  0.3745
  147MOL   O13438386   5.110   4.783   5.788  0.3445 -0.5839  0.0497
  147MOL   C13538387   5.145   4.801   5.653  0.1022  0.3243  0.0538
  147MOL   C13638388   5.029   4.741   5.578 -0.6573  0.4834  0.0584
  147MOL   H13738389   5.003   4.879   5.983  0.3405  0.3210 -1.4405
  147MOL   H13838390   5.083   4.740   6.036  0.1301  0.1772 -0.9268
  147MOL   H13938391   5.210   4.958   5.859 -0.8762  0.0731  0.7912
  147MOL   H14038392   5.233   4.741   5.630 -0.9360 -1.6267  0.9782
  147MOL   H14138393   5.177   4.899   5.619  1.5446 -0.8376 -2.0884
  147MOL   H14238394   4.938   4.800   5.595 -0.4627  0.4710  1.1798
  147MOL   H14338395   5.046   4.742   5.471  0.0725 -0.2730  0.1679
  147MOL   H14438396   5.012   4.637   5.607 -2.3039  0.6136 -0.3881
  147MOL   C14538397   5.332   4.793   5.882  0.1969 -0.5164 -0.2752
  147MOL   C14638398   5.443   4.888   5.837  1.2775  0.4518  0.2125
  147MOL   O14738399   5.425   4.893   5.697 -0.0157  0.2825 -0.2759
  147MOL   C14838400   5.465   5.017   5.639 -0.3692  0.4050 -0.1983
  147MOL   C14938401   5.488   4.987   5.493 -0.7488 -0.4515  0.5641
  147MOL   H15038402   5.343   4.708   5.815 -0.8651  1.4872 -3.0969
  147MOL   H15138403   5.350   4.762   5.985 -0.9841 -0.8512 -0.1633
  147MOL   H15238404   5.423   4.987   5.878  0.0446  0.1670  0.2891
  147MOL   H15338405   5.554   5.068   5.677 -2.2628  1.9724  2.3710
  147MOL   H15438406   5.381   5.087   5.650  0.0311  0.9225 -0.3977
  147MOL   H15538407   5.487   5.073   5.426  0.8368 -2.5481 -2.2651
  147MOL   H15638408   5.584   4.938   5.481 -0.6664 -0.5931  1.7191
  147MOL   H15738409   5.415   4.919   5.448 -0.3576 -1.5201  1.5184
  147MOL   C15838410   5.588   4.835   5.874  0.4265  0.1187 -0.5441
  147MOL   C15938411   5.614   4.685   5.857 -0.0010 -0.2104  0.0193
  147MOL   O16038412   5.562   4.626   5.973 -1.0618  0.2676  0.3289
  147MOL   C16138413   5.490   4.507   5.950  0.2257  0.5481  0.6331
  147MOL   C16238414   5.431   4.462   6.082  0.8798 -0.7089 -0.5259
  147MOL   H16338415   5.588   4.862   5.980 -2.0609 -1.6791 -0.0529
  147MOL   H16438416   5.670   4.888   5.826  0.7263  0.4605  0.3249
  147MOL   H16538417   5.559   4.642   5.773 -0.9688 -0.4091  0.7467
  147MOL   H16638418   5.558   4.433   5.907  1.5945  2.1748 -0.0601
  147MOL   H16738419   5.416   4.524   5.872  1.4238  0.9113 -0.4422
  147MOL   H16838420   5.393   4.360   6.076  0.4643 -0.6634  1.0484
  147MOL   H16938421   5.515   4.451   6.152  1.1722 -3.6871 -1.2483
  147MOL   H17038422   5.354   4.529   6.118  0.0074 -1.9159 -0.1240
  147MOL   C17138423   5.761   4.649   5.841 -0.9588  0.2237 -0.2919
  147MOL   C17238424   5.840   4.666   5.702 -0.0516  0.7001 -0.2575
  147MOL   O17338425   5.790   4.575   5.605 -0.0483  0.2428  0.4631
  147MOL   C17438426   5.799   4.622   5.472  0.1249 -0.1120  0.0272
  147MOL   C17538427   5.789   4.508   5.366 -0.6132 -0.3334  0.2288
  147MOL   H17638428   5.783   4.546   5.873 -2.4200 -1.0595 -3.2310
  147MOL   H17738429   5.815   4.709   5.914 -0.6721 -1.3016  0.7854
  147MOL   H17838430   5.818   4.768   5.669  0.7408  1.2628  0.9152
  147MOL   H17938431   5.898   4.665   5.457  0.0618 -0.6537 -2.0410
  147MOL   H18038432   5.724   4.698   5.448  0.8041  0.4445 -0.3664
  147MOL   H18138433   5.860   4.427   5.382  0.6930  0.4531 -1.5003
  147MOL   H18238434   5.690   4.465   5.349 -1.0576  0.5332  0.5798
  147MOL   H18338435   5.813   4.555   5.271 -1.8205  1.2151  0.6612
  147MOL   C18438436   5.994   4.647   5.732  0.4898 -0.5228 -0.0513
  147MOL   C18538437   6.042   4.507   5.782  0.8075  0.2592  0.4614
  147MOL   O18638438   6.183   4.512   5.798  0.0326 -0.2269  0.4641
  147MOL   C18738439   6.230   4.485   5.932  0.2122 -0.3607  0.4546
  147MOL   C18838440   6.204   4.607   6.026  0.2486  0.3403  0.3772
  147MOL   H18938441   6.029   4.712   5.813  1.6113  0.3614 -1.2318
  147MOL   H19038442   6.046   4.692   5.648  0.9157 -0.0232  0.4671
  147MOL   H19138443   5.999   4.481   5.879 -2.2169  0.4024 -0.7774
  147MOL   H19238444   6.337   4.466   5.927  0.0722 -1.4773  1.5754
  147MOL   H19338445   6.193   4.394   5.980  0.0504 -0.9843 -0.8393
  147MOL   H19438446   6.271   4.592   6.110  1.3335  0.7142 -0.4124
  147MOL   H19538447   6.236   4.702   5.982  2.7340 -1.1761 -1.1671
  147MOL   H19638448   6.101   4.612   6.061  0.1515 -3.1828  0.7491
  147MOL   C19738449   6.017   4.392   5.683  0.2497  0.3501 -0.2541
  147MOL   C19838450   6.079   4.256   5.719 -0.1218  0.1848 -0.6044
  147MOL   O19938451   6.046   4.185   5.600 -0.6354 -0.3524 -0.1413
  147MOL   C20038452   6.123   4.205   5.480  0.3596 -0.1085  0.8811
  147MOL   C20138453   6.264   4.157   5.500 -0.2995  0.4199 -0.6290
  147MOL   H20238454   6.065   4.428   5.592 -2.3320 -0.3846 -1.9777
  147MOL   H20338455   5.910   4.371   5.671 -0.0248  1.2572  0.6054
  147MOL   H20438456   6.187   4.270   5.725 -0.3798  1.6734  1.0852
  147MOL   H20538457   6.121   4.309   5.448 -1.7774 -0.1897  0.6272
  147MOL   H20638458   6.085   4.137   5.402  1.9570 -0.2975  0.2496
  147MOL   H20738459   6.325   4.155   5.409  0.9241  1.1887  0.1462
  147MOL   H20838460   6.322   4.207   5.578 -2.5484 -0.4484  1.6421
  147MOL   H20938461   6.252   4.055   5.538 -0.8103  0.8909  0.5000
  147MOL   C21038462   6.010   4.189   5.839  0.1984 -0.0251 -0.3278
  147MOL   C21138463   6.099   4.082   5.910 -0.2208 -0.3035  0.2412
  147MOL   O21238464   6.218   4.156   5.947  0.2696  0.0911 -0.3650
  147MOL   C21338465   6.292   4.114   6.060  0.5029 -0.2382  0.4706
  147MOL   C21438466   6.216   4.152   6.188  0.1017  0.0551  0.0487
  147MOL   H21538467   5.918   4.140   5.807  0.8997 -0.8272 -1.1351
  147MOL   H21638468   5.968   4.262   5.909 -0.3669  1.4031 -2.0883
  147MOL   H21738469   6.046   4.042   5.996 -0.0831 -1.7692 -0.3377
  147MOL   H21838470   6.381   4.177   6.048  1.0698 -0.7604  1.8610
  147MOL   H21938471   6.327   4.011   6.062  2.0927  0.2871  0.8022
  147MOL   H22038472   6.236   4.257   6.209  3.4391 -0.0188 -2.3416
  147MOL   H22138473   6.108   4.135   6.187  0.1492 -0.3173  0.8234
  147MOL   H22238474   6.256   4.097   6.274  0.8925 -1.2608 -1.1347
  147MOL   C22338475   6.123   3.965   5.815  0.2889 -0.0830  0.2970
  147MOL   C22438476   6.016   3.856   5.810  0.5459  0.1870 -0.1036
  147MOL   O22538477   5.998   3.798   5.937 -0.1830 -0.1686  0.2443
  147MOL   C22638478   5.863   3.783   5.981 -0.3262  0.2849  0.0563
  147MOL   C22738479   5.862   3.647   6.056  0.0426 -0.3589 -0.6896
  147MOL   H22838480   6.219   3.927   5.851 -0.2583 -0.3628  1.4905
  147MOL   H22938481   6.143   3.995   5.712 -3.5002 -0.1529 -0.5429
  147MOL   H23038482   5.923   3.907   5.783  1.6779  1.8188 -0.9742
  147MOL   H23138483   5.787   3.778   5.903 -2.2188 -1.5707  1.9386
  147MOL   H23238484   5.839   3.864   6.049  0.2509  2.4415 -2.2248
  147MOL   H23338485   5.757   3.623   6.077 -0.2181 -0.0202 -1.5788
  147MOL   H23438486   5.902   3.574   5.987  0.5575  0.4981 -1.2990
  147MOL   H23538487   5.925   3.648   6.145  0.2335 -1.2672 -0.8091
  147MOL   C23638488   6.048   3.749   5.709  0.2152 -0.3868  0.0681
  147MOL   C23738489   6.061   3.797   5.563 -0.3986 -0.2113  0.3805
  147MOL   O23838490   5.960   3.744   5.478 -0.5170  0.0578  0.2008
  147MOL   C23938491   5.847   3.830   5.481  0.2833  0.0247 -0.2854
  147MOL   C24038492   5.748   3.791   5.372  0.1072  0.0289  0.5214
  147MOL   H24138493   5.967   3.677   5.719  0.0342  0.0440  1.9541
  147MOL   H24238494   6.142   3.702   5.739 -0.6968 -0.6920  2.6330
  147MOL   H24338495   6.046   3.905   5.561 -0.1341 -0.1825 -1.5942
  147MOL   H24438496   5.880   3.932   5.460  0.1131  0.1489  0.0535
  147MOL   H24538497   5.795   3.820   5.576 -0.5190 -1.6364 -0.8885
  147MOL   H24638498   5.697   3.699   5.402 -4.2213  2.0293 -0.2299
  147MOL   H24738499   5.669   3.866   5.368 -1.5401 -1.7509 -1.8523
  147MOL   H24838500   5.790   3.772   5.273  0.5675 -0.3301  0.7856
  147MOL   C24938501   6.194   3.758   5.496 -0.3301 -0.3852 -0.5998
  147MOL   C25038502   6.215   3.807   5.344  0.2246  0.3215 -0.4786
  147MOL   O25138503   6.349   3.786   5.311 -0.0406  0.1845  0.5150
  147MOL   C25238504   6.391   3.665   5.254 -0.3770 -0.4589  0.7081
  147MOL   C25338505   6.528   3.645   5.313 -0.3722 -0.3990  0.4027
  147MOL   H25438506   6.213   3.652   5.505 -1.0571 -0.3918  1.1015
  147MOL   H25538507   6.273   3.805   5.555  0.5645  0.3843 -2.3562
  147MOL   H25638508   6.141   3.765   5.276  0.3497  1.8355 -1.5952
  147MOL   H25738509   6.398   3.672   5.145 -0.9952 -0.9237  0.6363
  147MOL   H25838510   6.328   3.579   5.275  0.2688 -0.9089  0.7931
  147MOL   H25938511   6.560   3.541   5.307  1.4207  0.2350 -1.9991
  147MOL   H26038512   6.597   3.711   5.260 -1.9643 -0.6959 -2.1297
  147MOL   H26138513   6.534   3.677   5.417 -1.1639  0.1092  0.2941
  147MOL   H26238514   6.193   3.913   5.327  0.2981  0.0616 -2.3701
  148MOL     C138515   6.022   3.306   7.598 -0.7157 -0.0781  0.3957
  148MOL     C238516   6.014   3.175   7.515  0.5272  0.3450  0.7400
  148MOL     O338517   5.959   3.198   7.382 -0.0232 -0.2549  0.1730
  148MOL     C438518   6.030   3.289   7.305  0.0818  0.1691  0.3949
  148MOL     C538519   5.979   3.291   7.163 -0.8871 -0.0274  0.0320
  148MOL     H638520   6.017   3.291   7.705  0.5915  1.1708  0.6430
  148MOL     H738521   6.103   3.375   7.577  0.6396 -1.4082  1.2091
  148MOL     H838522   6.113   3.136   7.492  1.1115  0.2319  3.2859
  148MOL     H938523   6.131   3.253   7.283  0.5643  0.3008  2.2846
  148MOL    H1038524   6.034   3.385   7.356 -1.3621 -0.3883  1.5797
  148MOL    H1138525   5.987   3.193   7.115 -0.9486  0.6587 -1.4221
  148MOL    H1238526   5.877   3.329   7.153 -1.3497 -1.1062  0.6298
  148MOL    H1338527   6.051   3.358   7.115  1.0211 -0.9746  1.5313
  148MOL    H1438528   5.936   3.373   7.587 -1.0912 -0.8532 -1.6956
  148MOL    C1538529   5.917   3.075   7.585 -0.4485 -0.0165 -0.9788
  148MOL    C1638530   5.767   3.110   7.591 -0.3610  0.9596 -0.1483
  148MOL    O1738531   5.708   3.055   7.714 -0.1096 -0.1590 -0.7936
  148MOL    C1838532   5.722   3.119   7.841 -0.0820 -0.4129 -0.0787
  148MOL    C1938533   5.675   3.037   0.113  0.5478  0.7093 -0.5285
  148MOL    H2038534   5.945   3.060   7.689  0.6395 -1.8465 -1.5102
  148MOL    H2138535   5.940   2.982   7.534  1.9102 -0.3494  0.5995
  148MOL    H2238536   5.758   3.219   7.593  0.4656  1.0169  0.3646
  148MOL    H2338537   5.660   3.209   7.832 -1.3001 -1.3441 -1.2246
  148MOL    H2438538   5.828   3.141   0.009 -0.1130  1.7413 -3.1579
  148MOL    H2538539   5.571   3.002   0.117  1.3312 -1.4673  1.9796
  148MOL    H2638540   5.691   3.092   0.205 -1.3328  2.3673 -1.1416
  148MOL    H2738541   5.736   2.947   0.114 -1.5434 -0.8135 -3.2609
  148MOL    C2838542   5.691   3.071   7.460 -0.2067  0.3662  0.5023
  148MOL    C2938543   5.546   3.121   7.448  0.7177 -0.3028  0.0912
  148MOL    O3038544   5.467   3.042   7.360  0.4996  0.1849  0.4707
  148MOL    C3138545   5.435   2.914   7.409  0.1650 -0.1595  0.0562
  148MOL    C3238546   5.301   2.884   7.351  0.1502  0.2724  0.1832
  148MOL    H3338547   5.692   2.962   7.450  0.5511  0.2739  1.5093
  148MOL    H3438548   5.742   3.101   7.369 -4.1328 -1.2789 -2.4030
  148MOL    H3538549   5.494   3.124   7.543  1.0173  1.2437  0.2249
  148MOL    H3638550   5.421   2.915   7.517  1.4749 -0.8598  0.2412
  148MOL    H3738551   5.501   2.828   7.395  0.3413 -0.4863  2.5846
  148MOL    H3838552   5.236   2.970   7.333 -0.3748 -0.1830 -0.1141
  148MOL    H3938553   5.306   2.857   7.245 -0.7267 -0.3019  0.2784
  148MOL    H4038554   5.257   2.804   7.410 -1.2640  2.7780  2.6400
  148MOL    C4138555   5.544   3.262   7.385 -0.4882  0.3075 -0.1098
  148MOL    C4238556   5.417   3.349   7.381  0.3107  0.4299 -0.4296
  148MOL    O4338557   5.390   3.391   7.516  0.0148  0.4129 -0.0633
  148MOL    C4438558   5.311   3.514   7.517 -0.5418 -0.6042 -0.4913
  148MOL    C4538559   5.291   3.558   7.656  0.1865  0.1634 -0.3800
  148MOL    H4638560   5.580   3.250   7.283  1.4995  0.6173  0.5176
  148MOL    H4738561   5.618   3.330   7.427 -0.8193  1.4211 -1.3042
  148MOL    H4838562   5.432   3.444   7.331 -0.1231  1.2296  0.9277
  148MOL    H4938563   5.215   3.510   7.467  0.4282 -1.8994 -2.3443
  148MOL    H5038564   5.357   3.600   7.468  0.4418  0.2275  1.8205
  148MOL    H5138565   5.247   3.468   7.699  2.5613 -0.1732  1.4974
  148MOL    H5238566   5.383   3.569   7.713 -1.7267 -1.1796  3.1180
  148MOL    H5338567   5.218   3.638   7.673 -1.2528 -0.8813 -1.5705
  148MOL    C5438568   5.293   3.286   7.309 -0.3437 -0.3989  0.5762
  148MOL    C5538569   5.319   3.272   7.158 -0.2978  0.0515 -0.3555
  148MOL    O5638570   5.348   3.393   7.093 -0.0315  0.5306 -0.4706
  148MOL    C5738571   5.485   3.405   7.054  0.0506 -0.0559 -0.0003
  148MOL    C5838572   5.505   3.521   6.957  0.1056 -0.3866  0.0080
  148MOL    H5938573   5.203   3.345   7.327  0.4902  1.0967 -0.0592
  148MOL    H6038574   5.276   3.187   7.351  3.1670 -1.5941 -0.6499
  148MOL    H6138575   5.403   3.204   7.145 -0.9977 -1.3908  2.2331
  148MOL    H6238576   5.508   3.319   6.992  0.5517  0.4151 -0.4725
  148MOL    H6338577   5.555   3.422   7.137 -0.5306  0.9260  0.3000
  148MOL    H6438578   5.610   3.527   6.929 -0.1912 -2.6761 -1.7139
  148MOL    H6538579   5.448   3.503   6.866 -0.3747  4.0811 -0.6994
  148MOL    H6638580   5.471   3.612   7.006  1.2300  0.4285 -0.6870
  148MOL    C6738581   5.196   3.211   7.082 -0.8905 -0.2521 -0.2106
  148MOL    C6838582   5.225   3.167   6.940  0.5061 -0.0687  1.0470
  148MOL    O6938583   5.103   3.148   6.861 -0.0382  0.3960 -0.3527
  148MOL    C7038584   5.023   3.261   6.827 -0.1550 -0.0266 -0.3657
  148MOL    C7138585   4.953   3.224   6.690 -0.2770  0.0509 -0.6878
  148MOL    H7238586   5.127   3.295   7.073 -0.3527  0.2263  0.0990
  148MOL    H7338587   5.153   3.131   7.142 -0.8046  0.2743  0.5637
  148MOL    H7438588   5.286   3.244   6.893  2.0338 -1.3925  0.7989
  148MOL    H7538589   5.094   3.343   6.812  0.6821 -0.9893 -1.7841
  148MOL    H7638590   4.952   3.292   6.903  0.0721  0.5638 -0.3841
  148MOL    H7738591   4.897   3.310   6.656  0.1459  0.7753  0.4324
  148MOL    H7838592   5.033   3.214   6.617  0.6380 -0.2672  0.3387
  148MOL    H7938593   4.884   3.140   6.698 -0.3912  0.4029  2.6788
  148MOL    C8038594   5.306   3.030   6.934 -0.4928  1.0457  0.0612
  148MOL    C8138595   5.403   3.013   6.816  0.3975  0.7049  0.1027
  148MOL    O8238596   5.506   3.104   6.841  0.6227  0.4879 -0.5144
  148MOL    C8338597   5.633   3.044   6.830 -0.0113  0.0508  0.0459
  148MOL    C8438598   5.736   3.150   6.858  0.3705  0.1226  0.2123
  148MOL    H8538599   5.238   2.945   6.938 -1.0308  1.4983  0.8787
  148MOL    H8638600   5.380   3.021   7.013 -0.8343 -0.9823  0.1772
  148MOL    H8738601   5.430   2.908   6.832 -0.6006  0.3326 -0.6162
  148MOL    H8838602   5.655   2.993   6.736 -1.2492 -1.2702  0.4531
  148MOL    H8938603   5.631   2.972   6.912  0.8025 -1.4510 -1.2261
  148MOL    H9038604   5.746   3.220   6.775  1.4301 -2.8071 -2.2308
  148MOL    H9138605   5.727   3.200   6.955  2.9444 -1.4892  1.3410
  148MOL    H9238606   5.830   3.098   6.875 -0.4299 -0.8719  1.7218
  148MOL    C9338607   5.339   3.027   6.671 -0.3690  0.5063  0.0613
  148MOL    C9438608   5.277   2.893   6.619  0.3658  0.1900  0.2492
  148MOL    O9538609   5.367   2.826   6.535 -0.0562 -0.1034 -0.4111
  148MOL    C9638610   5.425   2.706   6.570 -0.1534 -0.0126 -0.0420
  148MOL    C9738611   5.514   2.644   6.471  0.1311  0.1242 -0.2006
  148MOL    H9838612   5.422   3.046   6.603  1.0242 -0.5531  1.4331
  148MOL    H9938613   5.272   3.114   6.676 -0.1334  0.7092 -0.3063
  148MOL   H10038614   5.247   2.832   6.704  0.5869  0.7656  0.7508
  148MOL   H10138615   5.343   2.635   6.581 -0.7922  0.9803  1.8486
  148MOL   H10238616   5.476   2.723   6.665  1.1409 -0.9593 -0.5588
  148MOL   H10338617   5.467   2.653   6.373 -0.4652  1.5587  0.2121
  148MOL   H10438618   5.612   2.691   6.467  0.1575  0.2088  1.2068
  148MOL   H10538619   5.520   2.535   6.477  2.0837  0.0383 -2.7789
  148MOL   C10638620   5.149   2.917   6.530  0.4122  0.5101 -0.2727
  148MOL   C10738621   5.049   2.803   6.512 -0.0475  0.3394  0.3300
  148MOL   O10838622   5.039   2.737   6.634 -0.2337  0.0070  0.2936
  148MOL   C10938623   4.956   2.800   6.730 -0.2168  0.1867 -0.0610
  148MOL   C11038624   4.801   2.793   6.692 -1.0235 -0.4366 -0.0974
  148MOL   H11138625   5.189   2.948   6.433  1.8420 -0.9417 -0.1784
  148MOL   H11238626   5.103   3.007   6.572  0.0393 -0.6007  1.7445
  148MOL   H11338627   4.957   2.842   6.468  0.5389  0.3605 -0.8901
  148MOL   H11438628   4.984   2.905   6.734 -2.3017  0.7651  0.2418
  148MOL   H11538629   4.966   2.751   6.827  0.6001 -1.2312 -0.8333
  148MOL   H11638630   4.773   2.836   6.595 -0.8122  0.5870  0.2823
  148MOL   H11738631   4.779   2.687   6.691 -0.4036 -0.5762 -1.4638
  148MOL   H11838632   4.742   2.855   6.760 -0.4540 -1.3838  1.2829
  148MOL   C11938633   5.103   2.709   6.400  0.6251 -0.3326  0.7085
  148MOL   C12038634   5.006   2.608   6.340 -0.0522  0.4665  0.0300
  148MOL   O12138635   4.919   2.668   6.249  0.4251 -0.8575 -0.1157
  148MOL   C12238636   4.912   2.601   6.126 -0.0806  0.9165 -0.2260
  148MOL   C12338637   4.784   2.647   6.055 -0.6496  0.1272  0.2180
  148MOL   H12438638   5.179   2.640   6.436  0.2009 -1.1308  0.0791
  148MOL   H12538639   5.143   2.759   6.311  0.7305 -1.3031  0.2074
  148MOL   H12638640   5.071   2.529   6.300  2.5646  1.8375  1.4750
  148MOL   H12738641   4.890   2.498   6.154  0.0074 -0.1203 -3.6528
  148MOL   H12838642   5.003   2.600   6.066  1.8094 -0.1505  2.5572
  148MOL   H12938643   4.795   2.753   6.033  1.2010  0.6001  3.0849
  148MOL   H13038644   4.744   2.589   5.973  1.2946  1.2184 -1.5631
  148MOL   H13138645   4.712   2.661   6.136 -0.6557  0.9665  0.0743
  148MOL   C13238646   4.921   2.518   6.439  0.2716 -0.5324 -0.0717
  148MOL   C13338647   5.004   2.434   6.545 -0.4275 -0.2263 -0.0203
  148MOL   O13438648   5.078   2.333   6.480 -0.6737 -0.2963 -0.6555
  148MOL   C13538649   5.221   2.352   6.469  0.0042 -0.1696  0.2712
  148MOL   C13638650   5.271   2.240   6.375  0.3393  0.1459 -0.4852
  148MOL   H13738651   4.863   2.442   6.386 -0.4718  0.4900 -0.7237
  148MOL   H13838652   4.859   2.591   6.491  1.4928 -0.8304  1.8645
  148MOL   H13938653   5.056   2.509   6.606 -0.9472  1.0110 -1.0737
  148MOL   H14038654   5.259   2.352   6.571  0.6694  2.6046  0.0560
  148MOL   H14138655   5.249   2.445   6.420 -0.4291  0.4660  1.2011
  148MOL   H14238656   5.219   2.147   6.399 -0.6161  1.0107  0.9426
  148MOL   H14338657   5.233   2.273   6.278  0.0804 -0.4682 -0.5991
  148MOL   H14438658   5.380   2.238   6.375  0.3643 -0.8047  2.5851
  148MOL   C14538659   4.916   2.369   6.648 -0.2497  0.2840  0.1838
  148MOL   C14638660   4.983   2.316   6.784 -0.9878 -0.2155 -0.7481
  148MOL   O14738661   5.080   2.218   6.751  0.0856 -0.3881 -0.0083
  148MOL   C14838662   5.187   2.219   6.842 -0.1225  0.2379  0.1110
  148MOL   C14938663   5.305   2.127   6.794  0.4172  0.0069 -0.1589
  148MOL   H15038664   4.860   2.288   6.602 -0.0427  0.5798 -0.5849
  148MOL   H15138665   4.845   2.446   6.679 -1.5337 -0.9445  0.3686
  148MOL   H15238666   5.030   2.397   6.841 -1.1610  0.4396 -1.5194
  148MOL   H15338667   5.150   2.167   6.931  0.7157 -0.9498 -0.2215
  148MOL   H15438668   5.217   2.317   6.879 -1.5160  0.4955  0.5736
  148MOL   H15538669   5.366   2.094   6.879 -1.9419 -0.9730  1.2218
  148MOL   H15638670   5.282   2.036   6.739  3.2425 -0.0147 -1.4007
  148MOL   H15738671   5.370   2.191   6.735  0.2928 -1.8936 -2.4424
  148MOL   C15838672   4.885   2.262   6.890  0.7554  0.8023  0.6342
  148MOL   C15938673   4.790   2.359   6.950  0.5834 -0.7361 -0.4498
  148MOL   O16038674   4.879   2.449   7.021 -0.1114 -0.0506 -0.2667
  148MOL   C16138675   4.833   2.583   7.037  0.2640  0.0218  0.1032
  148MOL   C16238676   4.934   2.659   7.123 -0.6915 -0.5126 -0.4521
  148MOL   H16338677   4.941   2.219   6.974  0.4027  0.2843  0.6029
  148MOL   H16438678   4.828   2.181   6.844 -1.8351  1.0834  3.1784
  148MOL   H16538679   4.739   2.406   6.866 -2.4655 -3.7612 -0.3959
  148MOL   H16638680   4.739   2.596   7.089 -0.2155 -0.2623 -0.6775
  148MOL   H16738681   4.830   2.638   6.942  1.4678  1.1990  0.7239
  148MOL   H16838682   4.901   2.760   7.146 -0.6495  0.1026 -2.9568
  148MOL   H16938683   4.957   2.607   7.216 -2.2054  0.7415  0.6354
  148MOL   H17038684   5.031   2.658   7.073 -0.2833 -2.5056  0.3043
  148MOL   C17138685   4.685   2.297   7.043 -0.2058 -0.0083 -0.2336
  148MOL   C17238686   4.587   2.202   6.973  0.3119  1.1925 -0.6795
  148MOL   O17338687   4.524   2.281   6.871  0.6647  0.3235 -0.4317
  148MOL   C17438688   4.541   2.224   6.741 -0.3620 -0.5646  0.3114
  148MOL   C17538689   4.465   2.311   6.650  0.1017  0.3882 -1.0241
  148MOL   H17638690   4.643   2.383   7.096  3.0597  0.7045  1.3263
  148MOL   H17738691   4.743   2.247   7.120  1.0751  1.1374 -0.4412
  148MOL   H17838692   4.657   2.127   6.935  0.7510 -0.0335  2.4038
  148MOL   H17938693   4.516   2.118   6.732 -1.5359 -0.1630 -1.3456
  148MOL   H18038694   4.646   2.220   6.711 -0.7740 -0.2636 -1.1847
  148MOL   H18138695   4.490   2.305   6.544 -0.3570 -0.2018 -1.1007
  148MOL   H18238696   4.360   2.299   6.675  0.6253  0.7653  1.4411
  148MOL   H18338697   4.493   2.411   6.682 -0.9940 -0.1275  1.7181
  148MOL   C18438698   4.488   2.133   7.066  0.0918  0.1418 -0.5767
  148MOL   C18538699   4.397   2.023   6.998 -0.7352 -0.2291 -0.8730
  148MOL   O18638700   4.318   1.971   7.107  0.5609  0.1180  0.1777
  148MOL   C18738701   4.192   2.031   7.131 -0.0411 -0.2583  0.0015
  148MOL   C18838702   4.124   1.935   7.227  0.7676  0.2689 -0.3032
  148MOL   H18938703   4.423   2.206   7.114 -0.5294 -1.0288  0.3987
  148MOL   H19038704   4.546   2.098   7.152 -2.0790  1.7118  1.6218
  148MOL   H19138705   4.335   2.061   6.917  0.9702  1.3767 -1.4794
  148MOL   H19238706   4.135   2.042   7.039 -0.7614  0.6634  0.5476
  148MOL   H19338707   4.199   2.125   7.187  2.7194  0.3625 -1.2664
  148MOL   H19438708   4.035   1.978   7.273 -1.5820 -0.9385 -3.5490
  148MOL   H19538709   4.102   1.841   7.177  4.2438 -0.6120 -0.2926
  148MOL   H19638710   4.187   1.917   7.315  0.1442  0.5981  0.2151
  148MOL   C19738711   4.476   1.902   6.947 -0.1292  0.1142  0.4155
  148MOL   C19838712   4.409   1.807   6.847  0.6219  0.6867  0.7973
  148MOL   O19938713   4.397   1.870   6.717 -0.4505 -0.1350 -0.1121
  148MOL   C20038714   4.501   1.849   6.619 -0.0357  0.6888  0.5359
  148MOL   C20138715   4.485   1.934   6.499  0.2600 -0.3287  0.4444
  148MOL   H20238716   4.511   1.838   7.028 -2.6063 -0.3152  1.1784
  148MOL   H20338717   4.571   1.930   6.901 -1.7929  0.5106 -2.8649
  148MOL   H20438718   4.469   1.716   6.835 -0.3611  0.1912 -0.4577
  148MOL   H20538719   4.518   1.745   6.594  1.9695  1.3732 -1.0569
  148MOL   H20638720   4.596   1.888   6.657 -0.0524  2.0888 -0.8343
  148MOL   H20738721   4.568   1.952   6.430 -0.8775  1.2874 -0.5340
  148MOL   H20838722   4.395   1.903   6.444  0.6325 -0.4191 -0.1224
  148MOL   H20938723   4.453   2.035   6.523  0.6830 -0.4213  1.4143
  148MOL   C21038724   4.279   1.743   6.895  0.3231 -0.5123 -0.5563
  148MOL   C21138725   4.213   1.651   6.786  0.6405 -0.2634 -0.3080
  148MOL   O21238726   4.105   1.585   6.840  0.3466  0.3199 -0.2504
  148MOL   C21338727   3.989   1.669   6.822 -0.3458 -0.3229 -0.2586
  148MOL   C21438728   3.866   1.601   6.890 -0.0102 -0.8405 -0.6469
  148MOL   H21538729   4.212   1.819   6.936  0.1345 -1.1715  0.3915
  148MOL   H21638730   4.301   1.690   6.988  0.0647 -2.3745 -1.5489
  148MOL   H21738731   4.189   1.717   6.703  1.3379  0.5978  0.1660
  148MOL   H21838732   3.974   1.678   6.714 -0.2695  0.4126 -0.2070
  148MOL   H21938733   4.005   1.770   6.859  0.3981 -0.3258 -0.5770
  148MOL   H22038734   3.835   1.520   6.824  1.1741 -0.5244 -1.5927
  148MOL   H22138735   3.886   1.568   6.992 -0.5958 -0.5891 -0.4513
  148MOL   H22238736   3.787   1.676   6.895  1.9831  1.2561  0.3893
  148MOL   C22338737   4.292   1.527   6.745  0.2176  0.1364  0.0489
  148MOL   C22438738   4.248   1.463   6.617  0.0951 -0.0540 -0.1466
  148MOL   O22538739   4.306   1.330   6.617 -0.3475  0.2651  0.5524
  148MOL   C22638740   4.225   1.223   6.650 -0.0637  0.3251 -0.4615
  148MOL   C22738741   4.285   1.091   6.668 -0.0258  0.6710 -0.2865
  148MOL   H22838742   4.293   1.470   6.838  1.0376 -0.5276 -0.3632
  148MOL   H22938743   4.393   1.560   6.722 -0.7016  2.4599 -0.8620
  148MOL   H23038744   4.142   1.445   6.638 -0.4088 -1.3874 -3.4322
  148MOL   H23138745   4.143   1.216   6.578  0.4703 -0.9273 -0.9500
  148MOL   H23238746   4.164   1.247   6.737  1.3550 -2.7668  1.4729
  148MOL   H23338747   4.212   1.019   6.705  0.1559  0.0700 -1.1037
  148MOL   H23438748   4.338   1.049   6.583  0.7513  2.8045 -0.8775
  148MOL   H23538749   4.359   1.086   6.748 -0.5958  0.2206  0.2245
  148MOL   C23638750   4.272   1.536   6.486 -0.4318  0.0357  0.0572
  148MOL   C23738751   4.207   1.480   6.352 -0.0666  0.1074  0.2587
  148MOL   O23838752   4.208   1.582   6.250 -0.2560 -0.7232  0.3924
  148MOL   C23938753   4.334   1.615   6.197 -1.6371 -0.3928  0.4176
  148MOL   C24038754   4.315   1.705   6.066  0.3846  0.6476 -0.8460
  148MOL   H24138755   4.380   1.517   6.481 -0.6220 -0.6331 -2.1734
  148MOL   H24238756   4.257   1.644   6.493  4.5405  0.8854 -0.2856
  148MOL   H24338757   4.256   1.393   6.309 -1.6485 -1.7186  2.0027
  148MOL   H24438758   4.384   1.520   6.180 -1.7386 -0.2568 -0.6789
  148MOL   H24538759   4.396   1.677   6.262 -2.0173 -1.3621  1.7079
  148MOL   H24638760   4.410   1.753   6.041  0.9546  0.1730  0.3717
  148MOL   H24738761   4.275   1.644   5.985 -3.5466 -0.5885  1.8734
  148MOL   H24838762   4.248   1.789   6.085 -1.3066 -0.3678 -2.1996
  148MOL   C24938763   4.055   1.441   6.353 -0.2751 -0.6153  0.4136
  148MOL   C25038764   3.973   1.551   6.413  0.2339 -0.0836 -0.5120
  148MOL   O25138765   3.834   1.513   6.424  0.5021 -0.1886  0.6087
  148MOL   C25238766   3.789   1.435   6.531  0.0074 -0.4137  0.1751
  148MOL   C25338767   3.681   1.328   6.491  0.2720  0.2362  1.0203
  148MOL   H25438768   4.041   1.350   6.411  1.9306 -0.7400  0.8096
  148MOL   H25538769   4.022   1.427   6.250  1.0556  0.8308 -0.2321
  148MOL   H25638770   4.000   1.570   6.517 -2.0053  1.7035 -0.2072
  148MOL   H25738771   3.732   1.502   6.596  0.4361 -1.2081  1.3909
  148MOL   H25838772   3.875   1.387   6.579  2.6718  1.1117 -2.9198
  148MOL   H25938773   3.584   1.355   6.449 -0.0825 -3.1804 -0.5687
  148MOL   H26038774   3.708   1.258   6.412  0.9815  0.8167  0.7405
  148MOL   H26138775   3.649   1.254   6.565 -0.0509 -1.4469 -0.7579
  148MOL   H26238776   3.980   1.649   6.366  2.8259 -0.8289 -1.7967
  149MOL     C138777   3.777   0.994   6.679 -0.4851 -0.2345 -0.3828
  149MOL     C238778   3.701   1.046   6.801  0.2903 -0.0387 -0.1876
  149MOL     O338779   3.775   1.087   6.907 -0.2249 -0.7087  0.1312
  149MOL     C438780   3.852   1.204   6.887  0.1690 -0.1140 -0.4130
  149MOL     C538781   3.926   1.239   7.012  0.6499 -0.8114  0.1416
  149MOL     H638782   3.812   0.894   6.707  1.0744  0.3749 -0.0797
  149MOL     H738783   3.719   0.989   6.587  1.4129  1.3621 -1.7070
  149MOL     H838784   3.638   1.127   6.765  0.7511  0.5172  0.2373
  149MOL     H938785   3.789   1.287   6.857  1.3231  0.6784 -0.6514
  149MOL    H1038786   3.927   1.211   6.808  0.3111 -0.4107 -0.3066
  149MOL    H1138787   3.950   1.158   7.081  0.4692 -0.1466  0.9859
  149MOL    H1238788   4.024   1.286   7.001  0.9522 -0.9990  1.9542
  149MOL    H1338789   3.863   1.302   7.074  2.8209 -0.1792  1.7990
  149MOL    H1438790   3.863   1.060   6.666  1.7696 -2.4647  2.4497
  149MOL    C1538791   3.601   0.940   6.841 -0.2626  0.6786 -0.4508
  149MOL    C1638792   3.489   0.914   6.738  0.0402 -0.4505 -0.0516
  149MOL    O1738793   3.411   1.034   6.714  0.1319  0.2287 -0.6736
  149MOL    C1838794   3.358   1.051   6.581  0.0733  0.2026  0.0742
  149MOL    C1938795   3.268   1.168   6.579  0.9623 -0.1971  0.1988
  149MOL    H2038796   3.543   0.973   6.928  3.7851 -0.7847  2.9694
  149MOL    H2138797   3.647   0.850   6.881  0.1618  1.6764  1.3832
  149MOL    H2238798   3.543   0.886   6.647  1.2004  0.8241  0.2395
  149MOL    H2338799   3.305   0.958   6.561  1.3050 -0.4083 -0.4239
  149MOL    H2438800   3.446   1.067   6.519  0.2824  2.4807  0.9315
  149MOL    H2538801   3.330   1.255   6.602  2.1538 -0.9391 -0.1864
  149MOL    H2638802   3.194   1.151   6.657  0.0132 -0.2923 -0.7000
  149MOL    H2738803   3.210   1.184   6.487  1.4075 -2.0367 -0.4270
  149MOL    C2838804   3.399   0.795   6.767 -0.7197  0.6919  0.1219
  149MOL    C2938805   3.455   0.651   6.752 -0.4784  0.0040  0.8976
  149MOL    O3038806   3.497   0.625   6.614  0.0665 -0.1759 -0.1195
  149MOL    C3138807   3.638   0.618   6.597 -0.1219 -0.6287 -0.1870
  149MOL    C3238808   3.652   0.644   6.448 -0.1336  0.1735 -0.0282
  149MOL    H3338809   3.314   0.796   6.699  0.7355  1.1299 -1.7324
  149MOL    H3438810   3.357   0.800   6.867 -0.6416  1.6773  0.1012
  149MOL    H3538811   3.538   0.647   6.822  1.2739 -0.6573 -1.1490
  149MOL    H3638812   3.679   0.519   6.616 -0.2896 -0.7382 -0.4034
  149MOL    H3738813   3.697   0.695   6.648 -2.3027  0.1184  1.2970
  149MOL    H3838814   3.580   0.720   6.417 -1.1587 -0.7965 -0.0955
  149MOL    H3938815   3.753   0.657   6.411 -0.0466  0.0937  0.1853
  149MOL    H4038816   3.622   0.554   6.394  1.6244  0.3285 -1.2825
  149MOL    C4138817   3.344   0.542   6.784 -0.2183  0.0096 -0.2125
  149MOL    C4238818   3.398   0.409   6.818 -0.1638 -0.2784 -0.5038
  149MOL    O4338819   3.284   0.322   6.827  0.0494 -0.5018  0.0912
  149MOL    C4438820   3.322   0.185   6.830 -1.0829  0.5894 -0.5611
  149MOL    C4538821   3.209   0.088   6.831  0.1679 -0.3166 -0.1719
  149MOL    H4638822   3.273   0.541   6.701  0.1592  0.2965 -0.5429
  149MOL    H4738823   3.296   0.583   6.873 -0.5229 -0.2086 -0.2753
  149MOL    H4838824   3.460   0.380   6.734 -0.0292 -0.0567 -0.4815
  149MOL    H4938825   3.394   0.166   6.910 -0.9886  1.5958 -0.4059
  149MOL    H5038826   3.372   0.170   6.735 -2.8316  1.4761 -1.6444
  149MOL    H5138827   3.143   0.108   6.916 -0.5386  0.3514 -0.8670
  149MOL    H5238828   3.155   0.112   6.739  0.2374  0.6455  0.0257
  149MOL    H5338829   3.244   7.829   6.837  1.0825  0.0210  0.1993
  149MOL    C5438830   3.482   0.404   6.949  0.1431  0.0420 -0.2761
  149MOL    C5538831   3.415   0.415   7.085  0.0616 -0.6636 -0.2660
  149MOL    O5638832   3.393   0.549   7.119  0.2081  0.3721  0.2600
  149MOL    C5738833   3.272   0.565   7.196 -0.1103 -0.0632 -0.6037
  149MOL    C5838834   3.228   0.711   7.184 -0.4051 -0.1969 -0.1442
  149MOL    H5938835   3.562   0.478   6.955 -0.3591  0.4385  2.4878
  149MOL    H6038836   3.534   0.309   6.943  0.7083  0.2883  0.5208
  149MOL    H6138837   3.319   0.364   7.074 -0.0026 -1.0603  1.8060
  149MOL    H6238838   3.275   0.529   7.299  4.3506  3.1840  0.5334
  149MOL    H6338839   3.193   0.519   7.137  1.1353 -1.9669 -0.8516
  149MOL    H6438840   3.139   0.737   7.242  0.6725  2.3115  0.4983
  149MOL    H6538841   3.306   0.780   7.217  1.7672 -2.5906 -0.1239
  149MOL    H6638842   3.201   0.745   7.084 -1.4096  0.7012  0.4269
  149MOL    C6738843   3.480   0.341   7.206 -0.1887 -0.1142  0.2115
  149MOL    C6838844   3.619   0.388   7.236 -0.0472  0.1972  0.0488
  149MOL    O6938845   3.716   0.330   7.140 -0.1806 -0.0832 -0.4171
  149MOL    C7038846   3.801   0.420   7.085 -0.0181  0.3449  0.6698
  149MOL    C7138847   3.884   0.356   6.964 -0.1018 -0.1268 -0.4019
  149MOL    H7238848   3.473   0.241   7.164 -0.1428 -0.2411  0.5056
  149MOL    H7338849   3.408   0.342   7.288 -0.4355  0.6315 -0.0138
  149MOL    H7438850   3.611   0.496   7.219  0.9099  0.4738  1.2572
  149MOL    H7538851   3.863   0.463   7.164 -0.0603 -0.5597  1.1977
  149MOL    H7638852   3.752   0.513   7.053  0.6206  0.4670  0.0294
  149MOL    H7738853   3.834   0.312   6.878 -0.0303 -0.3456 -0.3342
  149MOL    H7838854   3.959   0.416   6.913  2.2015 -0.8952  1.9397
  149MOL    H7938855   3.944   0.277   7.010 -0.6086  0.4253  1.2328
  149MOL    C8038856   3.673   0.347   7.377 -0.2143  0.3625  0.4534
  149MOL    C8138857   3.783   0.433   7.438  0.3684 -0.3702 -0.0705
  149MOL    O8238858   3.807   0.374   7.569  0.1167 -0.3225  0.1598
  149MOL    C8338859   3.890   0.262   7.563  0.4706  0.5244  0.3917
  149MOL    C8438860   3.918   0.200   7.708 -0.2219 -0.6621  0.0037
  149MOL    H8538861   3.702   0.242   7.380 -0.8313  0.1183 -1.3216
  149MOL    H8638862   3.588   0.353   7.445 -0.5307 -0.9299  0.1759
  149MOL    H8738863   3.871   0.418   7.375  1.2163  3.5778  0.0669
  149MOL    H8838864   3.986   0.303   7.532  1.0863 -0.4280  1.0130
  149MOL    H8938865   3.868   0.179   7.497  0.9270  1.5450 -1.0582
  149MOL    H9038866   4.011   0.142   7.706  1.2598  1.6512 -0.7911
  149MOL    H9138867   3.918   0.278   7.783 -2.6600 -0.8036  0.1762
  149MOL    H9238868   3.837   0.132   7.736 -1.4200  1.5743  2.1468
  149MOL    C9338869   3.739   0.586   7.464 -0.3369 -0.0177 -0.3161
  149MOL    C9438870   3.844   0.665   7.549 -0.0333  0.2222 -0.5815
  149MOL    O9538871   3.797   0.798   7.567  0.0336  0.0563 -0.2244
  149MOL    C9638872   3.718   0.823   7.676  0.0421 -0.2888  0.0566
  149MOL    C9738873   3.678   0.966   7.687  0.0264  0.2186 -0.7480
  149MOL    H9838874   3.646   0.582   7.521  0.0929  0.4076  0.4165
  149MOL    H9938875   3.721   0.642   7.372  1.4580  1.5820  0.2743
  149MOL   H10038876   3.860   0.623   7.648 -3.5621  0.6208  0.2077
  149MOL   H10138877   3.788   0.814   7.759 -0.8124 -2.1384  0.6172
  149MOL   H10238878   3.627   0.764   7.685  0.4098 -0.7037  1.0454
  149MOL   H10338879   3.633   0.998   7.594 -2.0594  1.4919  0.6559
  149MOL   H10438880   3.603   0.983   7.765 -0.2320  0.8316 -1.1311
  149MOL   H10538881   3.763   1.031   7.707  0.0868 -0.4014  1.1485
  149MOL   C10638882   3.986   0.666   7.482  0.1001 -0.1168  0.2871
  149MOL   C10738883   4.098   0.747   7.548 -0.7474  0.1492  0.4721
  149MOL   O10838884   4.220   0.717   7.473 -0.7811 -0.3063 -0.2952
  149MOL   C10938885   4.222   0.783   7.345 -0.8649  0.2510  0.1565
  149MOL   C11038886   4.308   0.903   7.363  0.2894  0.3656  0.0384
  149MOL   H11138887   3.974   0.694   7.378  1.0918  1.3027  0.5497
  149MOL   H11238888   4.023   0.563   7.482  1.4038  0.3494  0.6553
  149MOL   H11338889   4.097   0.856   7.536 -0.4394 -0.0717 -1.7341
  149MOL   H11438890   4.123   0.801   7.303 -0.8947 -1.1318 -0.3808
  149MOL   H11538891   4.287   0.723   7.282  1.1654 -0.7566  3.1156
  149MOL   H11638892   4.409   0.883   7.399  0.4250 -0.0108 -0.5362
  149MOL   H11738893   4.305   0.947   7.263 -1.6387 -0.1960 -0.1586
  149MOL   H11838894   4.272   0.981   7.430  0.0661 -0.0995  0.4599
  149MOL   C11938895   4.115   0.715   7.695 -0.3810  0.2679  0.2057
  149MOL   C12038896   4.245   0.769   7.758 -0.1939 -0.5042  0.3789
  149MOL   O12138897   4.257   0.696   0.029 -0.1626 -0.0025  0.0429
  149MOL   C12238898   4.349   0.588   0.014 -0.2765 -0.5237  0.2078
  149MOL   C12338899   4.331   0.507   0.142 -0.2523 -0.1976  0.2266
  149MOL   H12438900   4.124   0.607   7.692  0.3081  0.3713 -3.1728
  149MOL   H12538901   4.023   0.744   7.746 -0.2962  0.8780  0.0220
  149MOL   H12638902   4.332   0.758   7.694 -1.0417  3.0624 -1.5277
  149MOL   H12738903   4.455   0.613   0.024  0.0828 -1.1706 -1.8761
  149MOL   H12838904   4.319   0.536   7.767  0.6358 -1.1414  0.2435
  149MOL   H12938905   4.225   0.484   0.150 -0.5812  1.2042  0.0629
  149MOL   H13038906   4.391   0.417   0.153  0.5101  0.2640 -0.0881
  149MOL   H13138907   4.362   0.560   0.231 -0.9533  1.1052 -0.2968
  149MOL   C13238908   4.252   0.919   7.803 -0.1112  0.1389  0.1858
  149MOL   C13338909   4.392   0.975   0.001 -0.3563  0.2487 -0.7327
  149MOL   O13438910   4.396   0.979   0.143 -0.2036  0.1115 -0.5602
  149MOL   C13538911   4.474   0.881   0.203  0.6561  0.4945  0.1571
  149MOL   C13638912   4.487   0.888   0.352  0.0151  0.1868 -0.6621
  149MOL   H13738913   4.181   0.934   0.042  1.5623  1.7482  1.3599
  149MOL   H13838914   4.215   0.974   7.716  0.7580 -0.3131 -0.4690
  149MOL   H13938915   4.482   0.926   7.807  1.0490  0.3215  2.4397
  149MOL   H14038916   4.572   0.884   0.156  0.8043 -0.3676  0.4025
  149MOL   H14138917   4.431   0.784   0.177  0.0014  1.4561 -2.4407
  149MOL   H14238918   4.392   0.894   0.404  0.3244 -0.4037 -0.0133
  149MOL   H14338919   4.526   0.795   0.394  0.8742 -0.1336 -2.1431
  149MOL   H14438920   4.551   0.965   0.393 -0.8868  1.5773 -1.8326
  149MOL   C14538921   4.412   1.122   7.806 -0.4136 -0.6825  0.4658
  149MOL   C14638922   4.434   1.152   7.656  0.1248 -0.4765 -0.1619
  149MOL   O14738923   4.573   1.125   7.639  0.3663  0.7016 -0.0465
  149MOL   C14838924   4.611   1.046   7.524 -0.2818  0.4574  0.9383
  149MOL   C14938925   4.755   1.071   7.486  0.0829  0.5504 -0.0036
  149MOL   H15038926   4.500   1.165   0.010  0.4901 -1.6535 -0.2977
  149MOL   H15138927   4.322   1.177   7.835 -0.1316 -0.9248  1.8277
  149MOL   H15238928   4.374   1.078   7.604  1.3930 -2.0821  0.6194
  149MOL   H15338929   4.542   1.069   7.443 -2.0873 -2.0329  1.7214
  149MOL   H15438930   4.591   0.942   7.549  0.2652 -0.1812 -1.1221
  149MOL   H15538931   4.768   1.171   7.446 -1.4778  0.5547 -0.5553
  149MOL   H15638932   4.824   1.056   7.569 -2.0321  2.0550  2.1127
  149MOL   H15738933   4.786   1.004   7.406  1.1792 -1.4942  2.0750
  149MOL   C15838934   4.415   1.300   7.611  0.8574 -0.0057  0.4841
  149MOL   C15938935   4.280   1.346   7.570  0.4532  0.0357 -0.5801
  149MOL   O16038936   4.214   1.264   7.467  0.3835  0.4291  0.2599
  149MOL   C16138937   4.076   1.260   7.466  0.7263 -0.3866 -0.3387
  149MOL   C16238938   4.013   1.182   7.584  0.4570 -0.3812 -0.1819
  149MOL   H16338939   4.476   1.300   7.521  0.2384  0.6429  0.0626
  149MOL   H16438940   4.468   1.365   7.682 -0.2396  1.6061 -0.1401
  149MOL   H16538941   4.229   1.344   7.666  0.1861 -0.6131 -0.7336
  149MOL   H16638942   4.052   1.211   7.371  1.9930  1.2833 -1.5476
  149MOL   H16738943   4.035   1.361   7.470  0.3756 -0.4918 -1.1596
  149MOL   H16838944   4.048   1.081   7.605 -1.7374 -0.7638  1.8663
  149MOL   H16938945   4.030   1.242   7.673 -1.6695  1.2402 -0.8150
  149MOL   H17038946   3.905   1.169   7.576  0.4026 -1.2353  1.8020
  149MOL   C17138947   4.284   1.499   7.519 -0.3401 -0.0966 -0.2342
  149MOL   C17238948   4.298   1.599   7.636 -0.1085 -0.7565 -0.2437
  149MOL   O17338949   4.175   1.609   7.708  0.5612 -0.4758  0.2706
  149MOL   C17438950   4.180   1.568   0.002  0.9443  0.2163  0.2846
  149MOL   C17538951   4.040   1.523   0.054  0.4409 -0.3095 -0.4929
  149MOL   H17638952   4.208   1.527   7.447  0.4746  1.8594 -0.3637
  149MOL   H17738953   4.378   1.513   7.465  0.2770  0.8352  1.0565
  149MOL   H17838954   4.373   1.558   7.704 -1.2570 -1.7441  0.4445
  149MOL   H17938955   4.203   1.659   0.058  1.2478  0.3503 -0.0582
  149MOL   H18038956   4.255   1.495   0.036 -0.2243 -1.3207 -0.3625
  149MOL   H18138957   3.951   1.582   0.032 -0.2747 -1.8514 -1.8934
  149MOL   H18238958   4.020   1.426   0.009 -1.4031 -0.7765  1.2812
  149MOL   H18338959   4.037   1.495   0.159  0.0519  0.9500 -0.1577
  149MOL   C18438960   4.354   1.739   7.594  0.3010 -0.8395  0.0774
  149MOL   C18538961   4.410   1.817   7.720 -0.1146  0.1307 -0.2365
  149MOL   O18638962   4.357   1.947   7.710  0.1792  0.1146  0.1894
  149MOL   C18738963   4.227   1.959   7.763  0.7575  0.6196 -0.0713
  149MOL   C18838964   4.160   2.097   7.746 -0.7507 -0.3631  0.3234
  149MOL   H18938965   4.292   1.798   7.527  0.3858  0.4340  1.0904
  149MOL   H19038966   4.440   1.729   7.528 -0.5561 -1.0593 -1.0065
  149MOL   H19138967   4.382   1.765   7.812  0.5919 -0.6125 -0.4349
  149MOL   H19238968   4.229   1.938   0.026  0.3643  0.1644 -0.1506
  149MOL   H19338969   4.168   1.877   7.723 -1.2115  0.9828  1.9810
  149MOL   H19438970   4.110   2.103   7.650 -1.8505  0.9556  0.9650
  149MOL   H19538971   4.103   2.115   7.838  1.1233 -0.3943  1.5215
  149MOL   H19638972   4.250   2.157   7.739  0.8806 -2.6988  0.4801
  149MOL   C19738973   4.563   1.814   7.731  0.2657  0.5273  1.0975
  149MOL   C19838974   4.641   1.682   7.771  0.4445 -0.4027  0.8929
  149MOL   O19938975   4.632   1.585   7.674  0.1656  0.1462  0.1408
  149MOL   C20038976   4.724   1.612   7.572  0.8417 -0.0781 -0.5274
  149MOL   C20138977   4.704   1.502   7.473 -0.0527  0.1367  0.3624
  149MOL   H20238978   4.578   1.885   7.813 -1.0699 -1.2484  2.9421
  149MOL   H20338979   4.613   1.862   7.647 -0.1223  0.3843  0.7868
  149MOL   H20438980   4.745   1.708   7.788 -0.3030  2.1316  1.8504
  149MOL   H20538981   4.827   1.609   7.606 -0.0745  0.5267  2.5080
  149MOL   H20638982   4.705   1.704   7.517  2.3792  1.0634  0.8266
  149MOL   H20738983   4.605   1.461   7.455 -0.4591  0.2281  2.2846
  149MOL   H20838984   4.751   1.517   7.376  0.5905 -3.6708  0.0281
  149MOL   H20938985   4.767   1.421   7.507 -1.4339 -0.2243  2.1335
  149MOL   C21038986   4.589   1.611   0.057  0.4148 -0.4116  0.1502
  149MOL   C21138987   4.617   1.694   0.184  0.2141 -0.5625 -0.2539
  149MOL   O21238988   4.762   1.732   0.184  0.2039 -0.2195 -0.2345
  149MOL   C21338989   4.868   1.649   0.213 -0.0095  0.6445 -0.4698
  149MOL   C21438990   4.997   1.735   0.201 -0.3323 -0.5498  0.5475
  149MOL   H21538991   4.651   1.523   0.071  1.0600  0.0556  0.2796
  149MOL   H21638992   4.487   1.574   0.051 -1.0618  3.5630 -1.4524
  149MOL   H21738993   4.573   1.791   0.163 -0.1071 -0.7353 -0.3938
  149MOL   H21838994   4.857   1.556   0.156 -2.4377 -0.5794  1.8732
  149MOL   H21938995   4.857   1.627   0.320 -1.2032 -0.7608 -0.8508
  149MOL   H22038996   5.091   1.681   0.214 -0.2400 -0.7889 -0.9846
  149MOL   H22138997   4.997   1.778   0.101 -1.0645  0.0308  0.7970
  149MOL   H22238998   4.993   1.823   0.265 -3.0381 -0.4491  0.2923
  149MOL   C22338999   4.578   1.633   0.320  0.4929  0.1616 -0.0010
  149MOL   C22439000   4.421   1.623   0.361 -0.0106 -0.0296  0.9243
  149MOL   O22539001   4.383   1.761   0.355 -0.3622 -0.5340  0.1956
  149MOL   C22639002   4.249   1.782   0.372  0.0636  0.0322  0.0069
  149MOL   C22739003   4.214   1.937   0.398  0.1895  0.4517 -0.0954
  149MOL   H22839004   4.621   1.700   0.395 -2.2914  1.3831  0.6111
  149MOL   H22939005   4.644   1.548   0.333  0.7913  0.4601  0.4694
  149MOL   H23039006   4.357   1.568   0.292  1.4966 -0.1698 -0.4045
  149MOL   H23139007   4.211   1.729   0.460 -2.1878  0.3639 -0.7421
  149MOL   H23239008   4.204   1.751   0.278  2.7165 -0.2448 -1.2076
  149MOL   H23339009   4.270   1.978   0.482  2.6127  0.3020 -1.5754
  149MOL   H23439010   4.234   1.991   0.305 -0.1425  1.1068  0.2134
  149MOL   H23539011   4.107   1.945   0.418  0.0642 -1.6905  0.2184
  149MOL   C23639012   4.413   1.556   0.504 -0.5978 -0.2940 -0.1748
  149MOL   C23739013   4.422   1.397   0.489 -0.2737  0.8821  0.4537
  149MOL   O23839014   4.311   1.348   0.419  0.3263 -0.1869  0.3208
  149MOL   C23939015   4.324   1.220   0.371 -0.3133  0.1405  0.6707
  149MOL   C24039016   4.186   1.165   0.332  0.0923  0.3354  0.2941
  149MOL   H24139017   4.330   1.589   0.567  1.0509  1.0087  1.3511
  149MOL   H24239018   4.494   1.604   0.559 -1.7453  0.9155  0.4909
  149MOL   H24339019   4.515   1.375   0.436 -0.3372  1.7877 -0.0443
  149MOL   H24439020   4.384   1.150   0.430 -0.7182  0.0333  0.9533
  149MOL   H24539021   4.386   1.224   0.282  0.6533  0.3130  1.3391
  149MOL   H24639022   4.208   1.060   0.310  2.3195  0.9735 -0.7280
  149MOL   H24739023   4.119   1.171   0.418  0.4944 -1.2917  0.7513
  149MOL   H24839024   4.151   1.220   0.244  0.9981  2.4321  1.2152
  149MOL   C24939025   4.441   1.332   0.629  0.2963 -0.2206  0.0390
  149MOL   C25039026   4.521   1.407   0.737 -0.7082 -0.3293  0.0639
  149MOL   O25139027   4.657   1.414   0.692 -0.2162  0.3346 -0.0345
  149MOL   C25239028   4.750   1.470   0.782 -0.3489 -0.1407  0.4827
  149MOL   C25339029   4.886   1.498   0.725 -0.5767 -0.1234 -0.2575
  149MOL   H25439030   4.481   1.232   0.613  1.7683 -0.1054  2.7691
  149MOL   H25539031   4.338   1.309   0.658  0.2403 -0.6355 -0.4724
  149MOL   H25639032   4.491   1.507   0.767 -2.9375 -1.2031  0.8301
  149MOL   H25739033   4.764   1.395   0.860 -1.7409  0.2177  1.0841
  149MOL   H25839034   4.706   1.557   0.830  0.4478 -0.4844  1.8692
  149MOL   H25939035   4.920   1.414   0.664  0.4981  0.2321 -0.1613
  149MOL   H26039036   4.892   1.592   0.670  2.7935 -0.3369 -0.3492
  149MOL   H26139037   4.953   1.521   0.808 -1.3297  0.3640  0.2251
  149MOL   H26239038   4.516   1.347   0.828 -0.4324  0.8273  0.8541
  150MOL     C139039   7.347   4.300   2.812  0.1697  0.0320 -0.3695
  150MOL     C239040   7.457   4.358   2.894  0.4320  0.3586 -0.1688
  150MOL     O339041   7.425   4.498   2.915  0.2334 -0.4103  0.1673
  150MOL     C439042   7.480   4.567   3.027  0.2966 -0.6089 -0.1641
  150MOL     C539043   7.449   4.710   3.026  0.6780  0.0138 -0.2128
  150MOL     H639044   7.388   4.228   2.741  1.2560  0.5612 -0.2861
  150MOL     H739045   7.260   4.269   2.870 -0.3955  0.7641 -0.8185
  150MOL     H839046   7.460   4.309   2.991  1.4406 -0.4655 -0.6192
  150MOL     H939047   7.587   4.556   3.046  0.3506  1.8200  1.1205
  150MOL    H1039048   7.419   4.531   3.110 -0.1471 -0.5058 -0.4455
  150MOL    H1139049   7.343   4.732   3.042  0.8447  1.8885 -1.4523
  150MOL    H1239050   7.505   4.758   3.106  1.1857  0.9101 -1.0967
  150MOL    H1339051   7.483   4.757   2.933  1.4937 -1.0776 -0.4748
  150MOL    H1439052   7.322   4.384   2.748 -2.9800  0.9862  2.0072
  150MOL    C1539053   7.597   4.339   2.826  0.4522 -0.2419 -0.8564
  150MOL    C1639054   7.663   4.201   2.833 -0.8329  0.3258  0.6860
  150MOL    O1739055   7.677   4.183   2.975 -0.1979  0.3607  0.3157
  150MOL    C1839056   7.676   4.040   3.009 -0.1922 -0.8604  0.2627
  150MOL    C1939057   7.742   4.019   3.145 -0.7713  0.3677  0.3449
  150MOL    H2039058   7.664   4.405   2.881  1.0608 -0.2012 -1.6320
  150MOL    H2139059   7.593   4.370   2.722 -0.1935 -1.8301 -1.3035
  150MOL    H2239060   7.594   4.124   2.800 -0.7722  0.3628  0.4714
  150MOL    H2339061   7.729   3.976   2.939  1.3202 -1.9773  2.3755
  150MOL    H2439062   7.572   4.006   3.011 -0.6344  0.4609  0.2925
  150MOL    H2539063   7.841   4.064   3.148 -0.5379 -0.0085 -1.1834
  150MOL    H2639064   7.738   3.913   3.169  0.9870  0.5324  1.3954
  150MOL    H2739065   7.681   4.067   3.221 -2.4458  1.8112 -1.8160
  150MOL    C2839066   7.796   4.195   2.753  0.8980 -0.3961 -0.1659
  150MOL    C2939067   7.779   4.090   2.646  0.2273 -0.0056  0.3054
  150MOL    O3039068   0.061   4.071   2.587  0.6894 -0.4421  0.1048
  150MOL    C3139069   0.127   3.961   2.666 -0.0262  0.3932 -0.0578
  150MOL    C3239070   0.093   3.825   2.602 -0.9650 -0.2279 -0.2100
  150MOL    H3339071   0.036   4.172   2.819  0.5621 -0.1318  0.3480
  150MOL    H3439072   7.817   4.291   2.706 -0.2382 -0.0509  0.0108
  150MOL    H3539073   7.722   4.006   2.684  2.9328 -0.6367  3.1780
  150MOL    H3639074   0.103   3.964   2.772 -5.5755 -0.0181 -1.1274
  150MOL    H3739075   0.231   3.991   2.654  0.1547 -1.2842 -3.3421
  150MOL    H3839076   0.112   3.820   2.495  4.5590  2.3125  0.4919
  150MOL    H3939077   0.141   3.738   2.647  0.0253 -0.5632 -1.8893
  150MOL    H4039078   7.830   3.809   2.619 -1.0203  0.9601  0.6253
  150MOL    C4139079   7.684   4.143   2.540 -0.5497 -0.5523  0.0363
  150MOL    C4239080   7.643   4.034   2.441  0.6696 -0.2882 -0.5982
  150MOL    O4339081   7.595   4.101   2.325  0.4862  0.4887 -0.3702
  150MOL    C4439082   7.682   4.116   2.218 -0.1761  0.6276  0.4651
  150MOL    C4539083   7.623   4.200   2.109  0.0992 -0.0587  0.8241
  150MOL    H4639084   7.737   4.221   2.485 -0.5955 -1.0653 -0.7508
  150MOL    H4739085   7.592   4.181   2.584 -0.4978 -1.4729  0.9547
  150MOL    H4839086   7.722   3.961   2.424 -0.2306 -2.0739  2.4638
  150MOL    H4939087   7.707   4.015   2.184 -2.5320 -0.1452  0.9269
  150MOL    H5039088   7.784   4.141   2.247  0.4975 -1.0743 -0.2873
  150MOL    H5139089   7.704   4.230   2.042  0.2126 -0.4594  0.7824
  150MOL    H5239090   7.543   4.157   2.050 -0.8738 -0.0015  2.1014
  150MOL    H5339091   7.591   4.296   2.150  1.0834  1.2487 -1.3528
  150MOL    C5439092   7.522   3.942   2.490  0.1840 -0.1220  0.3866
  150MOL    C5539093   7.489   3.825   2.382 -0.0654  0.1059 -1.2218
  150MOL    O5639094   7.390   3.878   2.305  0.4333 -0.1445  0.7956
  150MOL    C5739095   7.376   3.816   2.175  0.5922  0.0746  0.7704
  150MOL    C5839096   7.231   3.773   2.155  0.6603  0.0425  0.1629
  150MOL    H5939097   7.430   3.996   2.513  1.2319  1.8575 -0.0110
  150MOL    H6039098   7.550   3.899   2.587 -0.0241  0.9870  0.9437
  150MOL    H6139099   7.574   3.790   2.323 -0.0219 -1.3773 -0.2846
  150MOL    H6239100   7.459   3.745   2.168  2.5368  2.3279  0.6550
  150MOL    H6339101   7.405   3.890   2.101  2.5528  0.7880  2.2309
  150MOL    H6439102   7.203   3.717   2.244  1.7816  0.9759  1.1282
  150MOL    H6539103   7.172   3.864   2.146  1.6981  0.5441 -1.8661
  150MOL    H6639104   7.216   3.710   2.068  0.2238 -0.4406  0.5882
  150MOL    C6739105   7.439   3.705   2.462 -0.0406 -0.1488 -0.8657
  150MOL    C6839106   7.540   3.611   2.532 -0.1161  0.0266 -0.0411
  150MOL    O6939107   7.610   3.684   2.631 -0.6872  0.0238  0.2123
  150MOL    C7039108   7.595   3.626   2.759  0.5944  0.0148  0.7375
  150MOL    C7139109   7.674   3.713   2.859 -0.5500  0.6622  0.0274
  150MOL    H7239110   7.369   3.652   2.398 -1.0304 -1.5554  1.3377
  150MOL    H7339111   7.376   3.739   2.544 -0.0240 -1.4402 -0.3116
  150MOL    H7439112   7.489   3.525   2.575 -0.6728 -0.0456 -0.8268
  150MOL    H7539113   7.646   3.530   2.766 -0.3140 -0.5159  0.2656
  150MOL    H7639114   7.490   3.634   2.790  0.5616  1.1949  0.3204
  150MOL    H7739115   7.650   3.681   2.960  3.3036  0.1541  0.8723
  150MOL    H7839116   7.782   3.705   2.842 -0.0887 -0.9014  3.3702
  150MOL    H7939117   7.659   3.818   2.834  0.0764  0.5933 -0.6761
  150MOL    C8039118   7.640   3.552   2.429  0.6193 -0.0613  0.1896
  150MOL    C8139119   7.590   3.476   2.299 -0.2184 -0.9084  0.0927
  150MOL    O8239120   7.491   3.388   2.353 -0.0822 -0.1609  0.2216
  150MOL    C8339121   7.374   3.363   2.273  0.0223 -0.6450  0.2420
  150MOL    C8439122   7.285   3.259   2.341  0.2951  0.4325  0.6246
  150MOL    H8539123   7.700   3.484   2.489 -0.7778 -1.3308  0.1962
  150MOL    H8639124   7.697   3.639   2.397  0.4425 -0.6338 -1.7574
  150MOL    H8739125   7.553   3.544   2.222  1.9943  0.5101  0.2315
  150MOL    H8839126   7.408   3.328   2.176  0.4993  0.2254  0.0900
  150MOL    H8939127   7.317   3.454   2.254  2.5173  0.8461 -0.3028
  150MOL    H9039128   7.249   3.297   2.437 -0.4601  1.2966  0.0060
  150MOL    H9139129   7.196   3.236   2.283 -1.0552  0.7385  2.5408
  150MOL    H9239130   7.343   3.172   2.372  0.3594  1.1419  2.6175
  150MOL    C9339131   7.690   3.383   2.221 -0.4150  0.1080  0.7872
  150MOL    C9439132   7.821   3.466   2.187 -0.5381  0.7847 -0.5990
  150MOL    O9539133   7.797   3.572   2.097 -0.3071  0.3425 -0.0757
  150MOL    C9639134   0.042   3.688   2.095  0.0862 -0.0673 -0.1947
  150MOL    C9739135   7.807   3.801   2.033 -0.6569 -0.0202  0.1168
  150MOL    H9839136   7.650   3.348   2.126  1.6215  0.3977 -0.1876
  150MOL    H9939137   7.714   3.294   2.280  0.1055  0.8427  1.6920
  150MOL   H10039138   0.013   3.503   2.283  0.6324  2.2674 -1.5795
  150MOL   H10139139   0.135   3.674   2.040  1.0841 -1.8227  1.8769
  150MOL   H10239140   0.070   3.716   2.196  0.9680  0.0563 -0.4752
  150MOL   H10339141   7.711   3.837   2.069 -0.3545  0.5415  0.3726
  150MOL   H10439142   0.023   3.888   2.003  0.5811 -0.6455  0.7143
  150MOL   H10539143   7.774   3.773   1.933 -1.3074  0.5656  0.1648
  150MOL   C10639144   0.087   3.373   2.123  0.4781 -0.0843 -0.5071
  150MOL   C10739145   0.073   3.321   1.985 -0.7330  0.1359 -0.1911
  150MOL   O10839146   0.181   3.229   1.965  0.2368 -0.1112 -0.9937
  150MOL   C10939147   0.148   3.092   1.981 -0.1317  0.3508  0.1526
  150MOL   C11039148   0.272   3.002   1.989 -0.1970  0.0136  0.2128
  150MOL   H11139149   0.102   3.283   2.184  2.1605  0.5093 -0.0092
  150MOL   H11239150   0.176   3.434   2.135  1.7711 -2.1449  0.8273
  150MOL   H11339151   7.816   3.280   1.987 -0.7632  0.2726  1.8730
  150MOL   H11439152   0.097   3.068   1.888 -1.0970 -0.7644  0.9491
  150MOL   H11539153   0.074   3.073   2.058 -0.4196 -0.8757 -0.4145
  150MOL   H11639154   0.349   3.050   2.048 -0.8051  0.3288  0.7620
  150MOL   H11739155   0.258   2.904   2.035  0.9562  0.4423  1.5016
  150MOL   H11839156   0.307   2.989   1.887 -0.6503  1.9925 -0.2024
  150MOL   C11939157   0.088   3.426   1.873 -0.7876  0.1209  0.4751
  150MOL   C12039158   0.075   3.368   1.735  0.8173 -0.3387  0.1789
  150MOL   O12139159   0.083   3.466   1.637 -0.4114  0.1106 -0.6241
  150MOL   C12239160   0.219   3.524   1.608 -0.1038 -0.1851 -0.6068
  150MOL   C12339161   0.203   3.598   1.480  0.2892 -0.3351  0.3097
  150MOL   H12439162   0.187   3.468   1.885 -1.0541  1.1644 -0.8831
  150MOL   H12539163   0.010   3.502   1.879  0.8120  1.9667 -1.3694
  150MOL   H12639164   0.162   3.305   1.720  1.9709  1.1210  0.6985
  150MOL   H12739165   0.293   3.445   1.601  0.7472  0.4924  0.4518
  150MOL   H12839166   0.241   3.579   1.700  0.7710 -0.6505 -0.5331
  150MOL   H12939167   0.121   3.669   1.490 -0.3033 -0.9170 -0.3745
  150MOL   H13039168   0.290   3.663   1.467  1.3704 -2.1354 -2.1166
  150MOL   H13139169   0.180   3.525   1.402 -0.5830  0.6141 -0.3440
  150MOL   C13239170   7.790   3.284   1.707 -0.6140  0.4071  0.3119
  150MOL   C13339171   7.781   3.232   1.560 -0.5126  0.9108 -0.4149
  150MOL   O13439172   7.643   3.184   1.552  0.1378  0.6162 -0.8299
  150MOL   C13539173   7.551   3.270   1.493 -0.9530 -0.4233 -0.1885
  150MOL   C13639174   7.411   3.216   1.496  0.5136 -0.0371 -0.3356
  150MOL   H13739175   7.697   3.328   1.743 -1.5109  0.7371 -2.3493
  150MOL   H13839176   7.802   3.194   1.768  0.1414  1.4866  1.7989
  150MOL   H13939177   7.799   3.309   1.485  0.3343  1.2322  0.1072
  150MOL   H14039178   7.572   3.299   1.390 -3.4782 -1.6719 -1.0805
  150MOL   H14139179   7.556   3.365   1.547 -1.9128 -0.1689 -0.5467
  150MOL   H14239180   7.371   3.205   1.597  1.2969 -3.8240 -0.3600
  150MOL   H14339181   7.342   3.278   1.439  0.5666 -0.2806 -0.6645
  150MOL   H14439182   7.411   3.121   1.442  4.1211 -0.2270 -0.1057
  150MOL   C14539183   0.033   3.114   1.532 -0.0968  0.3260 -0.4563
  150MOL   C14639184   0.061   3.066   1.389 -0.0249 -0.3805  0.4508
  150MOL   O14739185   7.775   3.056   1.326  0.3707 -0.2773  0.5318
  150MOL   C14839186   7.790   3.053   1.182  0.1167  0.2238 -0.0114
  150MOL   C14939187   7.650   3.068   1.108 -0.3565  0.0126  0.1803
  150MOL   H15039188   7.837   3.030   1.590  1.0929  1.2287  1.7280
  150MOL   H15139189   0.130   3.138   1.574 -0.0350  0.0412 -0.4341
  150MOL   H15239190   0.117   3.147   1.342 -1.8715 -1.3742 -3.6431
  150MOL   H15339191   7.826   2.956   1.148 -0.3387 -0.0377  0.2426
  150MOL   H15439192   0.006   3.133   1.138  0.6966 -0.2817 -0.1463
  150MOL   H15539193   7.598   3.160   1.134  0.0982 -0.1929  1.9008
  150MOL   H15639194   7.667   3.070   1.000  1.6873 -0.7877  0.4629
  150MOL   H15739195   7.579   2.989   1.133  0.8935 -1.1700  0.0664
  150MOL   C15839196   0.144   2.941   1.375  0.0619  0.3970 -0.7281
  150MOL   C15939197   0.074   2.816   1.439  0.5509 -0.0653  0.2141
  150MOL   O16039198   0.099   2.807   1.580  0.3849  0.6509 -0.5546
  150MOL   C16139199   7.836   2.761   1.662 -0.1318 -0.3595  0.4579
  150MOL   C16239200   0.005   2.796   1.813  0.2162 -0.3808  0.5438
  150MOL   H16339201   0.236   2.968   1.429  0.8252  1.3213 -2.4568
  150MOL   H16439202   0.176   2.926   1.272  0.4750 -3.1067 -0.1460
  150MOL   H16539203   7.812   2.820   1.415  1.1161  0.0325 -2.4251
  150MOL   H16639204   7.829   2.654   1.642  0.8486 -0.3238 -0.0943
  150MOL   H16739205   7.742   2.815   1.645  0.5608  0.9629  0.7606
  150MOL   H16839206   7.783   2.732   1.872 -0.5407  0.0369  0.1619
  150MOL   H16939207   0.112   2.797   1.834  0.6551 -0.5842 -1.5528
  150MOL   H17039208   7.807   2.894   1.834  1.3391  0.4960 -1.2491
  150MOL   C17139209   0.114   2.683   1.382 -0.1702 -0.1913  0.4626
  150MOL   C17239210   0.257   2.631   1.415  0.7308  0.9459 -0.2787
  150MOL   O17339211   0.361   2.697   1.346  0.2695  0.3455  0.5493
  150MOL   C17439212   0.452   2.757   1.437 -0.5987 -0.3261  0.3582
  150MOL   C17539213   0.555   2.815   1.350  0.6466 -1.1491  0.2517
  150MOL   H17639214   0.100   2.673   1.275 -0.1128  0.3880  0.3995
  150MOL   H17739215   0.038   2.615   1.421  1.2510 -1.2922  1.3634
  150MOL   H17839216   0.284   2.636   1.521  0.8646  0.1681 -0.2789
  150MOL   H17939217   0.502   2.694   1.511 -0.3567  0.0748  0.5355
  150MOL   H18039218   0.413   2.841   1.494 -1.8081  0.4259 -1.5586
  150MOL   H18139219   0.509   2.894   1.292 -1.6392 -0.8781  2.3263
  150MOL   H18239220   0.623   2.863   1.420  0.0696  2.2658 -1.4438
  150MOL   H18339221   0.599   2.735   1.290  1.2304 -0.3085 -0.4506
  150MOL   C18439222   0.270   2.483   1.379 -0.3819 -0.0540 -0.0017
  150MOL   C18539223   0.399   2.410   1.422  0.0962  0.0512  0.3421
  150MOL   O18639224   0.406   2.281   1.361 -0.2089  0.3373  0.2759
  150MOL   C18739225   0.533   2.250   1.315  0.3673  0.0279  0.7272
  150MOL   C18839226   0.548   2.096   1.298 -0.1515 -0.4889 -0.0952
  150MOL   H18939227   0.247   2.471   1.273 -1.9268  1.5509  0.1261
  150MOL   H19039228   0.185   2.432   1.424  0.3059 -1.2018  0.0150
  150MOL   H19139229   0.479   2.473   1.384  0.4095 -0.4227  0.2233
  150MOL   H19239230   0.606   2.284   1.389  1.0208  0.1617  0.0215
  150MOL   H19339231   0.549   2.309   1.225 -0.1906  1.6169  1.6478
  150MOL   H19439232   0.470   2.040   1.246 -0.1779 -0.7283  0.1978
  150MOL   H19539233   0.642   2.066   1.251  1.6103  2.3241  1.5015
  150MOL   H19639234   0.534   2.062   1.401 -3.8969  0.4346 -0.2363
  150MOL   C19739235   0.414   2.381   1.576  0.2909 -0.5717 -0.3046
  150MOL   C19839236   0.308   2.289   1.643 -0.6359 -0.8044  0.0175
  150MOL   O19939237   0.310   2.321   1.789 -0.3890  0.0306  0.5645
  150MOL   C20039238   0.208   2.403   1.846 -0.6976  0.5422 -0.0208
  150MOL   C20139239   0.238   2.439   1.990 -0.2679 -0.3924  0.1497
  150MOL   H20239240   0.408   2.475   1.630 -0.2086 -1.1617  0.6700
  150MOL   H20339241   0.515   2.340   1.580  0.8697  0.9752  1.9408
  150MOL   H20439242   0.208   2.302   1.602  0.5176  1.8805 -2.0992
  150MOL   H20539243   0.112   2.352   1.848  2.2110 -5.2952  0.9231
  150MOL   H20639244   0.190   2.493   1.787 -1.3857 -0.8344 -1.9458
  150MOL   H20739245   0.180   2.524   2.026  0.3852  0.2726 -0.3529
  150MOL   H20839246   0.215   2.349   2.047  1.8251 -2.8716 -2.7782
  150MOL   H20939247   0.346   2.457   1.995 -0.1699  0.2628 -3.3062
  150MOL   C21039248   0.337   2.139   1.631 -0.1333 -0.5145  0.0196
  150MOL   C21139249   0.261   2.044   1.728  0.0384  0.7004 -0.2842
  150MOL   O21239250   0.325   1.916   1.716  0.1341 -0.1430  0.1257
  150MOL   C21339251   0.399   1.879   1.829 -0.1675  0.2545 -0.5429
  150MOL   C21439252   0.468   1.745   1.805 -0.6267 -0.1113 -1.0508
  150MOL   H21539253   0.442   2.123   1.656  0.3975  0.6929 -1.3511
  150MOL   H21639254   0.331   2.115   1.526  0.2786  1.3185 -0.4499
  150MOL   H21739255   0.271   2.074   1.833 -4.6360 -2.1868  1.1221
  150MOL   H21839256   0.334   1.869   1.917  0.3354 -1.5174 -0.3635
  150MOL   H21939257   0.477   1.948   1.862 -0.0141 -0.3338  0.3299
  150MOL   H22039258   0.390   1.669   1.789 -0.1854 -0.5768 -0.9949
  150MOL   H22139259   0.513   1.742   1.706 -0.5442  1.1845 -1.0612
  150MOL   H22239260   0.534   1.709   1.883 -1.5054  0.5716  0.0348
  150MOL   C22339261   0.103   2.049   1.705 -0.8019  1.1872  0.1445
  150MOL   C22439262   0.028   1.958   1.805 -0.8746 -0.2024  0.1135
  150MOL   O22539263   7.775   1.888   1.733 -0.1506 -0.2095 -0.0047
  150MOL   C22639264   7.829   1.775   1.671  0.4996 -1.0811 -0.1428
  150MOL   C22739265   7.710   1.675   1.659 -0.0346  0.0136 -0.0217
  150MOL   H22839266   0.070   2.022   1.605 -3.1667  0.2810  1.1128
  150MOL   H22939267   0.072   2.153   1.719 -1.5242  1.2797 -1.9283
  150MOL   H23039268   0.109   1.896   1.844  2.7513  2.7165 -2.4610
  150MOL   H23139269   0.052   1.725   1.742 -2.7462 -1.3237  2.8261
  150MOL   H23239270   0.040   1.792   1.578 -1.4369  1.7364 -0.8293
  150MOL   H23339271   7.671   1.631   1.751  0.8769  0.3128  0.5155
  150MOL   H23439272   7.627   1.724   1.609 -0.4265  0.4361  1.0323
  150MOL   H23539273   7.739   1.587   1.601 -2.2728 -0.4248 -0.4899
  150MOL   C23639274   7.809   2.029   1.932 -0.1805  0.9017  0.5735
  150MOL   C23739275   7.780   1.932   2.052 -0.2174 -0.7423 -0.3167
  150MOL   O23839276   7.750   2.026   2.163  0.0204  0.2928 -0.3823
  150MOL   C23939277   7.613   2.022   2.199 -0.3761  0.9754 -0.0150
  150MOL   C24039278   7.580   2.110   2.324 -0.3604  0.5342  0.0209
  150MOL   H24139279   7.712   2.055   1.889 -0.2063  0.2914  0.2627
  150MOL   H24239280   0.033   2.109   1.962  0.1298  0.3234  1.4367
  150MOL   H24339281   7.706   1.854   2.034 -2.2485  0.8426  0.9122
  150MOL   H24439282   7.604   1.921   2.237  0.0055  0.2789 -1.7561
  150MOL   H24539283   7.541   2.038   2.119 -0.8368  2.3921  0.6582
  150MOL   H24639284   7.480   2.085   2.357  0.2108 -2.3687 -0.2849
  150MOL   H24739285   7.650   2.104   2.409 -0.0028 -1.3585 -0.3922
  150MOL   H24839286   7.586   2.217   2.304 -0.4853  0.9121  1.8535
  150MOL   C24939287   0.063   1.860   2.097  0.0878 -0.1306 -0.4036
  150MOL   C25039288   0.052   1.785   2.229 -0.1057 -0.4638  0.2536
  150MOL   O25139289   0.189   1.765   2.277 -0.6393  0.2465 -0.7107
  150MOL   C25239290   0.198   1.687   2.394  0.4288 -0.2419  0.3312
  150MOL   C25339291   0.330   1.717   2.470 -0.0779 -0.3542  0.3183
  150MOL   H25439292   0.135   1.942   2.107  0.0573  0.0866 -1.8206
  150MOL   H25539293   0.101   1.787   2.025 -1.4841  0.2611 -1.6581
  150MOL   H25639294   7.843   1.849   2.300 -1.1740 -1.3659  0.2804
  150MOL   H25739295   0.199   1.581   2.371  0.8554 -0.0649 -0.4857
  150MOL   H25839296   0.106   1.700   2.451  0.4340 -2.2146  0.7924
  150MOL   H25939297   0.350   1.821   2.493 -0.9852 -0.4868  1.7920
  150MOL   H26039298   0.312   1.673   2.568 -1.0473 -0.5429  0.0573
  150MOL   H26139299   0.417   1.658   2.439  0.9969  0.1268  2.3169
  150MOL   H26239300   0.003   1.688   2.220  1.0969 -1.0158 -0.6171
  151MOL     C139301   3.858   5.782   6.390  0.1543 -0.0144  0.1336
  151MOL     C239302   3.844   5.814   6.537 -0.0360  0.2556  0.8478
  151MOL     O339303   3.966   5.896   6.567  0.3566  0.4521  0.1732
  151MOL     C439304   3.923   6.014   6.637 -1.1253  0.0715  0.8174
  151MOL     C539305   4.050   6.093   6.682  0.0092  0.1867 -0.0841
  151MOL     H639306   3.933   5.705   6.370 -0.6181 -1.0712  1.2505
  151MOL     H739307   3.767   5.739   6.349  0.5054 -0.6775  0.0473
  151MOL     H839308   3.751   5.869   6.550  1.0240  1.4179  3.9255
  151MOL     H939309   3.859   5.996   6.724 -0.7180  0.3324  1.1711
  151MOL    H1039310   3.875   6.075   6.561  0.9263  0.4543 -0.1947
  151MOL    H1139311   4.118   6.102   6.598  0.1636 -1.3329 -0.1323
  151MOL    H1239312   4.017   6.194   6.703 -0.3313  0.5546 -2.2891
  151MOL    H1339313   4.104   6.042   6.761  1.0802  0.6520 -0.5100
  151MOL    H1439314   3.880   5.865   6.322  0.5425 -0.9652 -0.9179
  151MOL    C1539315   3.829   5.690   6.633 -0.3753 -0.1340  0.6210
  151MOL    C1639316   3.688   5.647   6.659  0.1357  0.8377 -0.5406
  151MOL    O1739317   3.612   5.747   6.723  0.1428  0.4378 -0.0325
  151MOL    C1839318   3.473   5.740   6.690 -0.1670  0.9906 -0.0842
  151MOL    C1939319   3.400   5.824   6.795 -0.0160  0.7050  0.1128
  151MOL    H2039320   3.881   5.703   6.728 -0.5597  2.2684  0.4049
  151MOL    H2139321   3.875   5.607   6.578 -0.6017 -0.3660  0.7788
  151MOL    H2239322   3.638   5.620   6.566 -0.9704  0.4520  0.1533
  151MOL    H2339323   3.435   5.638   6.693  0.3769  0.7442 -1.3335
  151MOL    H2439324   3.446   5.782   6.594 -1.8448 -0.5507 -0.3090
  151MOL    H2539325   3.297   5.837   6.760 -0.0512 -2.7972 -1.3538
  151MOL    H2639326   3.443   5.923   6.798  1.0974  0.3002 -1.4822
  151MOL    H2739327   3.399   5.791   6.899 -0.0555  1.8810  0.4878
  151MOL    C2839328   3.673   5.516   6.743  0.1504 -0.0821  0.1404
  151MOL    C2939329   3.722   5.392   6.662 -0.0648 -0.8024  0.9232
  151MOL    O3039330   3.620   5.373   6.563 -0.0991 -0.1742  0.2506
  151MOL    C3139331   3.666   5.335   6.433  0.1762 -0.3230  0.5175
  151MOL    C3239332   3.536   5.299   6.355  0.7209 -0.0612  0.1841
  151MOL    H3339333   3.577   5.499   6.792 -1.2046  3.1097 -1.2547
  151MOL    H3439334   3.742   5.536   6.825  0.7445  0.3904 -0.4760
  151MOL    H3539335   3.818   5.399   6.613 -0.4353 -0.1879  0.2754
  151MOL    H3639336   3.733   5.251   6.445  0.4183 -0.5187 -1.9058
  151MOL    H3739337   3.718   5.415   6.380 -1.6213  0.4248 -0.2029
  151MOL    H3839338   3.488   5.395   6.335  1.2797  0.3385  0.7633
  151MOL    H3939339   3.564   5.265   6.255  0.0952  0.8623 -0.3085
  151MOL    H4039340   3.471   5.232   6.411  0.4073  0.0767 -0.0140
  151MOL    C4139341   3.727   5.258   6.742  0.1898 -0.3722  0.8342
  151MOL    C4239342   3.858   5.215   6.814 -0.2131 -0.0686  0.6757
  151MOL    O4339343   3.839   5.083   6.832  0.2831 -0.1371 -0.0741
  151MOL    C4439344   3.909   5.002   6.745  0.5104  0.5396 -0.0597
  151MOL    C4539345   3.842   4.864   6.742 -0.0915  0.5306 -0.1612
  151MOL    H4639346   3.694   5.178   6.676 -5.4560 -0.6326  3.6370
  151MOL    H4739347   3.644   5.253   6.813 -2.3463  2.0166 -1.8549
  151MOL    H4839348   3.935   5.243   6.743 -1.0784  1.4499  0.3095
  151MOL    H4939349   4.015   5.014   6.770  0.4938  0.6493 -0.0413
  151MOL    H5039350   3.898   5.039   6.643 -0.4946  1.6152  0.4277
  151MOL    H5139351   3.747   4.857   6.689 -1.6440 -0.5062  2.6245
  151MOL    H5239352   3.914   4.800   6.692 -0.8463 -1.6989  1.5095
  151MOL    H5339353   3.822   4.827   6.843 -1.2806 -1.7060 -1.1889
  151MOL    C5439354   3.875   5.271   6.957 -0.1426 -0.3141  0.0603
  151MOL    C5539355   3.989   5.228   7.034  0.4904  0.3267  0.4781
  151MOL    O5639356   3.971   5.268   7.170 -0.3502  0.2307 -0.6529
  151MOL    C5739357   3.900   5.182   7.252  0.3582  0.2029  1.0618
  151MOL    C5839358   3.941   5.199   7.391  0.0848 -0.5354  0.2916
  151MOL    H5939359   3.791   5.233   7.015 -0.1056  1.5381  1.3799
  151MOL    H6039360   3.864   5.379   6.951  1.5983 -0.1261  0.0439
  151MOL    H6139361   4.004   5.120   7.030 -2.4789 -0.0821 -0.4170
  151MOL    H6239362   3.934   5.080   7.230  0.7569  0.7425 -0.9547
  151MOL    H6339363   3.793   5.184   7.232  0.6741 -2.4555 -1.1501
  151MOL    H6439364   3.935   5.302   7.427 -0.9048  0.0153 -1.4020
  151MOL    H6539365   3.873   5.141   7.453 -0.2252 -0.4915 -0.0042
  151MOL    H6639366   4.041   5.168   7.421  1.0357  2.9405  0.9168
  151MOL    C6739367   4.114   5.306   6.988 -0.2837  0.0140  0.0428
  151MOL    C6839368   4.248   5.252   7.043  0.3156 -0.0469 -0.4416
  151MOL    O6939369   4.347   5.324   6.970  0.4890 -0.1095  0.3421
  151MOL    C7039370   4.456   5.381   7.047  0.2794 -0.0135 -0.5604
  151MOL    C7139371   4.561   5.434   6.943  0.6779 -0.8156  0.2648
  151MOL    H7239372   4.110   5.409   7.022  0.3362  0.1822 -0.3944
  151MOL    H7339373   4.123   5.297   6.880 -1.0957 -1.0506  0.0530
  151MOL    H7439374   4.254   5.295   7.143 -0.4711  0.4264 -0.5936
  151MOL    H7539375   4.506   5.301   7.102 -1.7201  1.2341  3.2251
  151MOL    H7639376   4.423   5.455   7.119  1.4362 -1.5229  1.5941
  151MOL    H7739377   4.597   5.356   6.877  0.2054 -0.6044 -0.2404
  151MOL    H7839378   4.518   5.501   6.869  1.2682 -0.3963  0.2938
  151MOL    H7939379   4.642   5.476   7.005 -0.9197 -0.1022  1.9162
  151MOL    C8039380   4.281   5.102   7.027 -0.2320  0.5170  0.6451
  151MOL    C8139381   4.260   5.030   7.161 -0.1568  0.5326 -0.0502
  151MOL    O8239382   4.366   5.062   7.256 -0.0114 -0.8264 -0.2891
  151MOL    C8339383   4.336   5.069   7.398  0.4787  0.0134  0.1122
  151MOL    C8439384   4.472   5.085   7.480 -0.3123  0.8313 -0.7232
  151MOL    H8539385   4.385   5.084   7.000 -0.8669 -0.5201 -1.2293
  151MOL    H8639386   4.220   5.042   6.959  0.0310  1.2430 -0.2443
  151MOL    H8739387   4.166   5.071   7.197  0.4969  0.4314  1.8287
  151MOL    H8839388   4.290   4.972   7.414  0.0496 -0.0851 -1.6845
  151MOL    H8939389   4.262   5.144   7.429 -0.4014 -0.8196  0.0406
  151MOL    H9039390   4.465   5.073   7.588  1.0571 -0.5582 -0.7833
  151MOL    H9139391   4.532   4.999   7.449 -2.5351 -0.8467 -0.5433
  151MOL    H9239392   4.525   5.177   7.458  1.4427  0.1589  0.6222
  151MOL    C9339393   4.256   4.875   7.154  0.2345  0.6062 -0.7830
  151MOL    C9439394   4.128   4.810   7.110  0.5156  0.0786  0.1075
  151MOL    O9539395   4.033   4.837   7.207  0.1365  0.6951 -0.3709
  151MOL    C9639396   3.895   4.826   7.167 -0.2059  0.5102  0.2441
  151MOL    C9739397   3.807   4.816   7.289  0.1554 -0.1317  0.1652
  151MOL    H9839398   4.285   4.821   7.244 -0.0164  2.2696  0.3171
  151MOL    H9939399   4.343   4.841   7.098 -1.3542  0.4731 -3.2394
  151MOL   H10039400   4.102   4.865   7.019 -0.6323  1.5373  1.2790
  151MOL   H10139401   3.884   4.738   7.104  0.0230 -0.2749  1.3072
  151MOL   H10239402   3.868   4.902   7.092  1.1529  0.0859 -0.6885
  151MOL   H10339403   3.705   4.824   7.253 -0.2734 -0.5536  1.2988
  151MOL   H10439404   3.824   4.715   7.327 -5.5965 -1.5194 -0.5717
  151MOL   H10539405   3.827   4.882   7.373 -0.7552  0.9550 -0.4603
  151MOL   C10639406   4.138   4.664   7.069 -0.4209  0.2508  0.2026
  151MOL   C10739407   4.138   4.563   7.183  0.1502 -0.0587 -0.0258
  151MOL   O10839408   4.247   4.588   7.272 -0.5254  0.1531  0.8900
  151MOL   C10939409   4.227   4.551   7.407 -0.2945 -0.0608 -0.0186
  151MOL   C11039410   4.345   4.606   7.485  0.1475  0.0292  0.2437
  151MOL   H11139411   4.226   4.644   7.008  1.2088  0.0904  2.5317
  151MOL   H11239412   4.057   4.644   6.999  0.4734  1.0815 -1.0869
  151MOL   H11339413   4.048   4.583   7.240 -0.5406  1.1835 -1.5180
  151MOL   H11439414   4.213   4.443   7.412 -0.8747  0.0832  1.8100
  151MOL   H11539415   4.138   4.603   7.441  0.1349 -0.4784  1.7981
  151MOL   H11639416   4.350   4.714   7.480 -3.3358  0.2836  0.6131
  151MOL   H11739417   4.334   4.576   7.589 -1.4640  1.9308  0.6353
  151MOL   H11839418   4.445   4.579   7.451  0.6081  2.0605 -0.0687
  151MOL   C11939419   4.155   4.419   7.136  0.1646  0.4376  0.0122
  151MOL   C12039420   4.041   4.358   7.052  0.1964  0.0736 -0.7111
  151MOL   O12139421   4.034   4.223   7.096 -0.4739  0.7510 -0.3548
  151MOL   C12239422   3.909   4.180   7.147  0.6367  0.2235 -0.3842
  151MOL   C12339423   3.927   4.040   7.194  0.3589 -0.3408 -0.9636
  151MOL   H12439424   4.158   4.358   7.226 -0.1776  1.6172  0.8327
  151MOL   H12539425   4.249   4.389   7.091  0.2633  0.5058  0.1710
  151MOL   H12639426   3.952   4.415   7.079 -0.0725 -0.8056  0.2729
  151MOL   H12739427   3.828   4.188   7.075 -0.2149 -2.6978  0.1972
  151MOL   H12839428   3.898   4.249   7.230  0.0218  0.3291 -0.5547
  151MOL   H12939429   3.839   3.980   7.220  2.0047 -2.8219 -0.9845
  151MOL   H13039430   3.974   3.992   7.108  0.0929 -1.1098 -0.6838
  151MOL   H13139431   3.998   4.037   7.277 -0.8682 -0.2047  0.1118
  151MOL   C13239432   4.074   4.355   6.904 -0.1978  0.4149  0.7998
  151MOL   C13339433   3.953   4.318   6.812 -0.9045 -0.5071 -0.3856
  151MOL   O13439434   3.996   4.346   6.682  0.8185  0.3371 -0.1865
  151MOL   C13539435   4.070   4.254   6.607  0.5743 -0.5669  0.4341
  151MOL   C13639436   4.059   4.275   6.456  0.5462  0.3764  0.2685
  151MOL   H13739437   4.154   4.284   6.885 -0.6872 -0.6828  2.6684
  151MOL   H13839438   4.106   4.455   6.874  0.7889 -1.1000 -3.4899
  151MOL   H13939439   3.934   4.213   6.832 -0.9411 -0.3857  0.2450
  151MOL   H14039440   4.035   4.152   6.625  0.4743 -0.5440  0.3725
  151MOL   H14139441   4.172   4.259   6.645 -0.0836  0.2267  2.1513
  151MOL   H14239442   3.966   4.228   6.425  1.4114  0.4813 -2.6187
  151MOL   H14339443   4.074   4.376   6.418 -1.3061  0.3889 -0.4727
  151MOL   H14439444   4.138   4.212   6.416 -0.5966 -0.5108 -0.6299
  151MOL   C14539445   3.830   4.407   6.841 -0.0750 -0.1490 -0.2739
  151MOL   C14639446   3.709   4.388   6.745  0.3074 -0.0523  0.1135
  151MOL   O14739447   3.588   4.465   6.784  0.2341 -0.5729  0.2987
  151MOL   C14839448   3.603   4.604   6.767 -1.2301  0.8745  0.1815
  151MOL   C14939449   3.516   4.677   6.868  0.1920 -0.8387  0.0952
  151MOL   H15039450   3.864   4.511   6.834  1.3121 -0.6953 -1.8343
  151MOL   H15139451   3.795   4.399   6.944  0.3063  0.6231 -0.0727
  151MOL   H15239452   3.740   4.421   6.646  0.1015 -0.8202 -0.2097
  151MOL   H15339453   3.608   4.630   6.661  1.5456 -1.9160 -0.4400
  151MOL   H15439454   3.707   4.630   6.787 -0.8994 -0.7530  0.6521
  151MOL   H15539455   3.409   4.661   6.854  0.4216 -1.8884 -0.5058
  151MOL   H15639456   3.548   4.637   6.965 -1.6227 -0.3813  0.9061
  151MOL   H15739457   3.535   4.784   6.861  1.7464 -1.0792  0.3941
  151MOL   C15839458   3.663   4.235   6.733 -0.6754 -0.1081 -0.3376
  151MOL   C15939459   3.579   4.201   6.609 -0.2179  0.3271  0.9837
  151MOL   O16039460   3.496   4.094   6.639 -0.4309  0.2472 -0.1243
  151MOL   C16139461   3.360   4.134   6.645 -0.6320  0.1228 -0.1832
  151MOL   C16239462   3.282   4.013   6.701 -0.2801 -0.1588  0.1171
  151MOL   H16339463   3.609   4.210   6.824 -0.3298  1.1846  0.2338
  151MOL   H16439464   3.746   4.164   6.739 -0.3017  0.4675  1.8752
  151MOL   H16539465   3.524   4.291   6.584  1.1612  1.2321  1.1519
  151MOL   H16639466   3.330   4.175   6.549  1.0218  2.3262  0.1997
  151MOL   H16739467   3.351   4.215   6.718 -0.2703  0.2153 -0.2461
  151MOL   H16839468   3.182   4.050   6.722 -0.4491 -0.3013 -0.4399
  151MOL   H16939469   3.289   3.929   6.632  0.2558  0.2523 -0.3414
  151MOL   H17039470   3.330   3.988   6.795  0.2245  0.9711  0.1696
  151MOL   C17139471   3.668   4.168   6.488 -0.4027 -0.7300  0.0495
  151MOL   C17239472   3.589   4.139   6.358  0.9640  0.5657  0.1516
  151MOL   O17339473   3.528   4.010   6.382  0.0227 -0.0410 -0.3363
  151MOL   C17439474   3.437   3.963   6.278  0.0093 -0.1175 -0.4275
  151MOL   C17539475   3.352   3.840   6.318  0.7612 -0.4057  0.0671
  151MOL   H17639476   3.729   4.078   6.498  0.3928 -0.3171 -0.9531
  151MOL   H17739477   3.734   4.251   6.463  1.9277 -2.3864  0.6098
  151MOL   H17839478   3.518   4.221   6.343 -0.6172 -1.0472 -1.5182
  151MOL   H17939479   3.492   3.932   6.188 -0.5027 -1.5838 -0.2393
  151MOL   H18039480   3.379   4.047   6.241  0.7248  0.1760 -0.9047
  151MOL   H18139481   3.268   3.871   6.381  1.6518  2.9799 -0.3165
  151MOL   H18239482   3.303   3.799   6.230  0.0917 -0.1201  0.3060
  151MOL   H18339483   3.404   3.760   6.370  1.2354  0.5177  1.0332
  151MOL   C18439484   3.682   4.135   6.234 -0.3619  0.2482  0.0614
  151MOL   C18539485   3.751   4.268   6.199 -0.5152  0.4408  0.2518
  151MOL   O18639486   3.643   4.352   6.192 -0.3674 -0.2867 -0.3068
  151MOL   C18739487   3.675   4.489   6.208 -0.1410 -0.5380  0.2037
  151MOL   C18839488   3.545   4.562   6.233  0.0653 -0.2962  0.4646
  151MOL   H18939489   3.628   4.101   6.146  1.4562  0.0452 -1.0058
  151MOL   H19039490   3.761   4.064   6.258  0.5937  1.8046  1.6977
  151MOL   H19139491   3.829   4.294   6.271  1.5356 -0.5909 -1.5593
  151MOL   H19239492   3.737   4.521   6.125 -0.1502  0.9799  0.7603
  151MOL   H19339493   3.726   4.507   6.303 -0.2902  2.9158 -0.3101
  151MOL   H19439494   3.556   4.668   6.257 -1.9622 -0.2766  1.3855
  151MOL   H19539495   3.484   4.551   6.143 -0.9900 -0.6335  1.2127
  151MOL   H19639496   3.477   4.518   6.306 -2.0351 -1.5273 -2.1741
  151MOL   C19739497   3.810   4.270   6.058 -1.1187 -1.0355 -0.2559
  151MOL   C19839498   3.892   4.153   6.014  0.6785 -0.2197  0.5752
  151MOL   O19939499   3.976   4.111   6.124  0.5715  0.1425 -0.3268
  151MOL   C20039500   4.050   3.995   6.099 -0.2207 -0.6447 -0.0943
  151MOL   C20139501   4.093   3.945   6.234 -0.6942 -0.0470 -0.0927
  151MOL   H20239502   3.866   4.362   6.042  0.3708 -1.8506  0.2441
  151MOL   H20339503   3.732   4.285   5.983 -0.5306 -1.9835 -1.0599
  151MOL   H20439504   3.821   4.074   5.986 -1.0965  1.6452 -0.3198
  151MOL   H20539505   4.135   4.025   6.037 -2.8405  1.8042 -2.6692
  151MOL   H20639506   3.991   3.919   6.048 -0.7823  1.4455 -2.7248
  151MOL   H20739507   4.158   4.012   6.290  1.3505 -0.0704 -2.3460
  151MOL   H20839508   4.009   3.932   6.302  1.2664 -1.6252  2.0756
  151MOL   H20939509   4.147   3.851   6.227  0.2566  0.5525 -0.8471
  151MOL   C21039510   3.983   4.180   5.885 -0.1096  0.4808 -0.0603
  151MOL   C21139511   3.901   4.228   5.761 -0.0695 -0.2528 -0.3856
  151MOL   O21239512   3.815   4.113   5.724 -0.5404 -0.6099 -0.7098
  151MOL   C21339513   3.686   4.157   5.694  0.0189  0.1389 -0.3409
  151MOL   C21439514   3.594   4.043   5.642 -0.2934  0.1275 -0.3200
  151MOL   H21539515   4.045   4.101   5.845  0.3893  1.3228 -0.9818
  151MOL   H21639516   4.061   4.247   5.921  2.7056 -2.8975  0.3573
  151MOL   H21739517   3.828   4.302   5.795  1.1805 -0.2139  2.4220
  151MOL   H21839518   3.697   4.230   5.613 -0.5458 -0.5014 -1.0032
  151MOL   H21939519   3.639   4.193   5.786  1.0185 -1.7013  0.9116
  151MOL   H22039520   3.629   3.998   5.550 -1.2205 -0.0768 -0.5787
  151MOL   H22139521   3.589   3.962   5.714  2.6695  0.4279  0.3042
  151MOL   H22239522   3.494   4.078   5.614 -0.7334 -0.3158  0.6756
  151MOL   C22339523   3.980   4.282   5.637 -0.3096  0.4143 -0.7842
  151MOL   C22439524   4.098   4.381   5.661 -0.5087  0.6354  0.1507
  151MOL   O22539525   4.060   4.483   5.747 -0.1377 -0.0128 -0.3841
  151MOL   C22639526   4.162   4.546   5.825  0.1611  0.0084  0.1930
  151MOL   C22739527   4.086   4.645   5.910  0.3026 -0.4108 -0.2808
  151MOL   H22839528   3.908   4.334   5.574 -1.1757 -0.2453 -0.3507
  151MOL   H22939529   4.017   4.191   5.589  2.1240  0.6011  0.6368
  151MOL   H23039530   4.178   4.332   5.717 -0.5231 -2.0597 -2.0967
  151MOL   H23139531   4.234   4.592   5.757 -0.4346 -0.8516 -1.0537
  151MOL   H23239532   4.212   4.474   5.890 -1.1524 -1.4168 -0.3238
  151MOL   H23339533   4.143   4.705   5.981 -0.8933  1.3878 -0.8262
  151MOL   H23439534   4.037   4.718   5.846  0.5133  0.9943  1.1288
  151MOL   H23539535   4.007   4.595   5.967  1.2644  0.2697  1.6813
  151MOL   C23639536   4.164   4.433   5.530  0.2307 -0.0647  0.4660
  151MOL   C23739537   4.241   4.332   5.442  0.1048 -0.4710 -0.6903
  151MOL   O23839538   4.349   4.281   5.517 -0.4395  0.6319 -0.0430
  151MOL   C23939539   4.411   4.156   5.481 -0.6145 -0.3391 -0.0083
  151MOL   C24039540   4.328   4.032   5.485  0.1431  0.2494  0.2013
  151MOL   H24139541   4.234   4.514   5.547  0.5868  0.1116 -1.6624
  151MOL   H24239542   4.088   4.488   5.473  1.2988  1.8131  0.8188
  151MOL   H24339543   4.172   4.249   5.424 -0.9170 -0.0689  1.2562
  151MOL   H24439544   4.495   4.145   5.550 -1.0189 -0.5721  0.4474
  151MOL   H24539545   4.467   4.168   5.388  1.3991 -1.5244  0.9946
  151MOL   H24639546   4.384   3.939   5.493 -1.4270 -0.8033 -0.6509
  151MOL   H24739547   4.274   4.032   5.580  1.1481  0.6994  0.7802
  151MOL   H24839548   4.259   4.025   5.401  0.8880 -1.6941 -0.2926
  151MOL   C24939549   4.285   4.396   5.315  0.5849 -0.1503  0.1851
  151MOL   C25039550   4.173   4.409   5.210  0.3042  0.3526 -0.4935
  151MOL   O25139551   4.219   4.462   5.091  0.3257  0.3321 -0.6013
  151MOL   C25239552   4.118   4.484   4.995 -0.3325  0.3829 -0.0427
  151MOL   C25339553   4.169   4.502   4.848  0.6511  0.5881 -0.5219
  151MOL   H25439554   4.363   4.342   5.262 -0.5237 -0.9014 -0.7291
  151MOL   H25539555   4.324   4.497   5.320  1.0588 -0.3436  0.4511
  151MOL   H25639556   4.146   4.306   5.187  0.4295  0.0060  0.8896
  151MOL   H25739557   4.068   4.578   5.020  1.4551  1.3029  0.0978
  151MOL   H25839558   4.044   4.404   4.994  0.0473  0.0375 -0.2661
  151MOL   H25939559   4.213   4.598   4.822  1.8635  0.8383  2.2852
  151MOL   H26039560   4.233   4.420   4.814  0.2293  0.5137 -1.1580
  151MOL   H26139561   4.090   4.497   4.773  1.3512 -1.2722 -1.1805
  151MOL   H26239562   4.099   4.468   5.264  0.1488 -0.1753 -0.1255
  152MOL     C139563   6.656   4.434   7.244  0.6091  0.4943  0.0250
  152MOL     C239564   6.701   4.571   7.232  0.3148  0.3906 -0.7843
  152MOL     O339565   6.598   4.664   7.267 -0.7062 -0.4722 -0.3611
  152MOL     C439566   6.568   4.678   7.405 -1.0753  0.7010 -0.5922
  152MOL     C539567   6.457   4.778   7.435 -0.0659  1.3593 -0.0055
  152MOL     H639568   6.730   4.355   7.254  0.1084  0.0912  0.5707
  152MOL     H739569   6.582   4.423   7.323  0.6042  1.1632  0.1165
  152MOL     H839570   6.778   4.591   7.306 -0.4838 -0.0353  0.1681
  152MOL     H939571   6.659   4.711   7.454 -1.9510  1.3728  0.6118
  152MOL    H1039572   6.543   4.582   7.449  1.3114 -0.3900 -1.5281
  152MOL    H1139573   6.470   4.872   7.381  0.0535 -0.5823 -3.5661
  152MOL    H1239574   6.362   4.735   7.403  0.6661 -0.2223 -0.1026
  152MOL    H1339575   6.448   4.809   7.539 -3.5375 -0.6337  0.3802
  152MOL    H1439576   6.600   4.408   7.154  0.9466 -0.4029  0.0740
  152MOL    C1539577   6.762   4.603   7.092  0.7794  0.4633 -0.3502
  152MOL    C1639578   6.880   4.504   7.058  0.2390  0.0106  0.4847
  152MOL    O1739579   6.973   4.493   7.162  0.2264  0.8913 -0.3374
  152MOL    C1839580   7.056   4.378   7.166  0.0894 -0.1462  0.2160
  152MOL    C1939581   7.199   4.411   7.191  0.7206  0.4332 -0.0221
  152MOL    H2039582   6.805   4.703   7.087 -0.8122  1.2146  0.5879
  152MOL    H2139583   6.678   4.600   7.023  1.3521  2.0116 -1.1572
  152MOL    H2239584   6.839   4.405   7.038 -1.9775  1.0700 -0.3362
  152MOL    H2339585   7.037   4.326   7.072  2.3626 -2.3270  0.9167
  152MOL    H2439586   7.012   4.323   7.249 -1.9622 -0.4644 -1.0425
  152MOL    H2539587   7.249   4.473   7.116  0.5903  0.8912  0.2693
  152MOL    H2639588   7.242   4.311   7.186 -0.9898 -0.3280  0.3833
  152MOL    H2739589   7.221   4.448   7.291 -0.5825  0.5797  0.2159
  152MOL    C2839590   6.955   4.546   6.926 -0.2700  0.2539  0.1927
  152MOL    C2939591   6.902   4.464   6.803 -0.3255 -0.0380 -0.6961
  152MOL    O3039592   6.968   4.339   6.839 -0.0206  0.0972  0.1058
  152MOL    C3139593   6.897   4.217   6.795 -0.1330  0.1948 -0.3416
  152MOL    C3239594   6.809   4.170   6.906 -0.5422 -0.2181 -0.7776
  152MOL    H3339595   7.060   4.520   6.936 -0.6001 -0.2204  2.5446
  152MOL    H3439596   6.944   4.653   6.910  0.6466  0.2918 -0.1786
  152MOL    H3539597   6.793   4.469   6.808 -0.2494  3.3727 -1.4115
  152MOL    H3639598   6.975   4.147   6.768  0.2451  0.0964  0.9573
  152MOL    H3739599   6.833   4.236   6.709  0.4679  0.1673 -0.7963
  152MOL    H3839600   6.874   4.136   6.986  0.4077  2.0711 -0.5294
  152MOL    H3939601   6.752   4.257   6.939  1.1277  0.9038 -0.7813
  152MOL    H4039602   6.747   4.086   6.876 -0.0135  0.0156 -2.5655
  152MOL    C4139603   6.943   4.520   6.672  0.5495  0.8418 -0.0072
  152MOL    C4239604   6.868   4.650   6.626 -0.5595  0.4086 -0.3328
  152MOL    O4339605   6.730   4.618   6.620  0.2314  0.0188  0.3239
  152MOL    C4439606   6.652   4.684   6.719  0.1616 -0.1400 -0.0836
  152MOL    C4539607   6.529   4.592   6.751 -0.4478 -0.6852 -0.6811
  152MOL    H4639608   6.911   4.452   6.593  1.6937  0.1315  0.1288
  152MOL    H4739609   7.052   4.531   6.670  0.8397 -1.7381 -0.2323
  152MOL    H4839610   6.898   4.721   6.703  0.2773 -0.6725  0.3529
  152MOL    H4939611   6.608   4.777   6.682 -0.7313 -0.4249  0.2362
  152MOL    H5039612   6.701   4.701   6.815  0.1293 -0.7147  0.0354
  152MOL    H5139613   6.475   4.566   6.659 -0.7630 -2.1415 -0.0977
  152MOL    H5239614   6.569   4.500   6.793  0.3318 -0.4599 -0.9246
  152MOL    H5339615   6.459   4.644   6.816  0.2899  0.5247 -0.8540
  152MOL    C5439616   6.915   4.713   6.491 -0.0891 -0.3623 -0.8140
  152MOL    C5539617   6.883   4.861   6.467 -0.6820  0.4171  0.3647
  152MOL    O5639618   6.912   4.888   6.334 -0.1103 -0.2516 -0.3909
  152MOL    C5739619   6.800   4.880   6.244 -0.4299 -0.3475  0.2487
  152MOL    C5839620   6.813   5.002   6.157  0.5194 -0.1827 -0.7253
  152MOL    H5939621   6.863   4.649   6.420  0.9921  1.5860 -3.4293
  152MOL    H6039622   7.019   4.691   6.465  0.1591  1.4113 -1.3737
  152MOL    H6139623   6.778   4.890   6.474 -0.5954  0.6206  0.8420
  152MOL    H6239624   6.701   4.852   6.281 -0.3614  1.1025  1.5933
  152MOL    H6339625   6.841   4.791   6.196 -0.0656  0.7040 -1.3877
  152MOL    H6439626   6.731   4.992   6.086  0.9049 -2.0318 -0.9273
  152MOL    H6539627   6.800   5.095   6.212  2.1802  0.4032 -1.2995
  152MOL    H6639628   6.902   5.009   6.095  0.3083  0.5350 -0.9594
  152MOL    C6739629   6.975   4.958   6.561 -0.0177  0.3211 -0.4472
  152MOL    C6839630   6.957   5.114   6.539  0.0564  0.3771  0.0858
  152MOL    O6939631   7.079   5.179   6.527  0.3195  0.8857  0.0828
  152MOL    C7039632   7.092   5.291   6.437  0.3744 -0.1518  0.3443
  152MOL    C7139633   7.236   5.330   6.407  0.3851  0.9267  0.1207
  152MOL    H7239634   7.078   4.927   6.541  0.0483  0.2721 -0.0310
  152MOL    H7339635   6.969   4.939   6.668 -2.8428  0.4899 -0.5550
  152MOL    H7439636   6.909   5.119   6.441 -1.1512 -0.0416  0.6489
  152MOL    H7539637   7.049   5.387   6.468  0.6591  0.4035 -0.9084
  152MOL    H7639638   7.048   5.264   6.341  2.7976 -0.9204 -0.5655
  152MOL    H7739639   7.243   5.417   6.342  2.8223  1.2344  0.7590
  152MOL    H7839640   7.294   5.351   6.497 -0.8764 -0.2320  1.2307
  152MOL    H7939641   7.293   5.255   6.352  1.2759  2.3068 -0.8793
  152MOL    C8039642   6.852   5.187   6.628  0.5428  0.0910 -0.1496
  152MOL    C8139643   6.698   5.155   6.614  0.1507 -0.3389  0.6431
  152MOL    O8239644   6.666   5.193   6.480 -0.3515 -0.0533  0.8304
  152MOL    C8339645   6.552   5.123   6.440 -0.5631  0.5114  0.0561
  152MOL    C8439646   6.508   5.152   6.297  0.3602  0.5520  0.3428
  152MOL    H8539647   6.859   5.296   6.619 -1.8495  0.2172 -0.7390
  152MOL    H8639648   6.879   5.166   6.731 -0.1189 -0.6906 -0.1323
  152MOL    H8739649   6.687   5.048   6.627 -2.6277 -0.2550 -0.7775
  152MOL    H8839650   6.474   5.163   6.505 -0.2140  2.4242 -0.6847
  152MOL    H8939651   6.571   5.016   6.454  1.2152  0.8830  0.5572
  152MOL    H9039652   6.413   5.104   6.273  1.4149 -0.1396 -2.7204
  152MOL    H9139653   6.500   5.260   6.285  0.1801  0.3378 -1.6005
  152MOL    H9239654   6.578   5.100   6.231 -0.7849 -0.7270  0.1247
  152MOL    C9339655   6.608   5.233   6.712  1.1073 -0.3646 -0.7240
  152MOL    C9439656   6.649   5.262   6.861  0.4749  0.1751  0.0316
  152MOL    O9539657   6.640   5.154   6.952  0.1828  0.4580  0.5429
  152MOL    C9639658   6.641   5.022   6.907 -0.1073 -0.1200  0.1733
  152MOL    C9739659   6.610   4.938   7.024 -0.2760  0.2279  0.0349
  152MOL    H9839660   6.513   5.182   6.732  1.0833 -0.4458 -1.0329
  152MOL    H9939661   6.594   5.328   6.660 -2.9386 -0.0133  0.7849
  152MOL   H10039662   6.752   5.295   6.874  0.4931 -0.1028  0.5608
  152MOL   H10139663   6.740   4.998   6.869  0.0012  1.2596 -0.4578
  152MOL   H10239664   6.565   5.000   6.832 -1.1867  2.0711  0.5628
  152MOL   H10339665   6.510   4.964   7.060 -0.6133 -0.8599 -0.1076
  152MOL   H10439666   6.603   4.830   7.012 -0.4991  0.1166  1.1725
  152MOL   H10539667   6.679   4.951   7.107 -0.4683 -0.6080  0.3287
  152MOL   C10639668   6.540   5.368   6.917 -0.1001  0.5270  0.2422
  152MOL   C10739669   6.602   5.476   7.020 -0.3339  0.6222 -0.3299
  152MOL   O10839670   6.511   5.575   7.063  0.5881 -0.2430  0.4092
  152MOL   C10939671   6.419   5.522   7.159 -0.2676 -0.4545 -0.7356
  152MOL   C11039672   6.375   5.636   7.250  0.0617 -0.1138 -0.1389
  152MOL   H11139673   6.454   5.318   6.962 -0.8077 -1.0482 -2.7751
  152MOL   H11239674   6.500   5.423   6.832  0.1912 -1.1872 -1.0128
  152MOL   H11339675   6.643   5.432   7.111  2.5566  1.2117 -1.2918
  152MOL   H11439676   6.454   5.435   7.214  0.4687  0.4914  0.3118
  152MOL   H11539677   6.332   5.480   7.108 -1.7677  0.7165  0.7867
  152MOL   H11639678   6.300   5.611   7.325 -2.4572 -1.2457 -2.9300
  152MOL   H11739679   6.466   5.677   7.295  2.0338 -1.6063 -2.6149
  152MOL   H11839680   6.336   5.716   7.187  0.3996 -1.1273 -1.6522
  152MOL   C11939681   6.706   5.573   6.962  0.5603  0.0150  0.2377
  152MOL   C12039682   6.805   5.612   7.071 -0.0053  0.1292 -0.1708
  152MOL   O12139683   6.900   5.692   7.002 -0.8083 -0.1384 -0.4553
  152MOL   C12239684   6.967   5.786   7.090 -0.4742 -0.1269  0.0490
  152MOL   C12339685   7.025   5.894   7.005  0.2803 -0.2744  0.1034
  152MOL   H12439686   6.653   5.651   6.906 -0.7981 -1.9104 -1.2322
  152MOL   H12539687   6.768   5.535   6.881 -0.6892 -0.9465 -0.2676
  152MOL   H12639688   6.763   5.671   7.152 -0.4199 -0.2993 -0.0672
  152MOL   H12739689   7.049   5.735   7.140 -0.2069 -0.9769 -1.2387
  152MOL   H12839690   6.891   5.828   7.156 -1.6222  0.0745 -1.3624
  152MOL   H12939691   7.051   5.986   7.057 -1.3880 -0.6797  1.7017
  152MOL   H13039692   7.112   5.860   6.950  1.6673  0.7940  1.5928
  152MOL   H13139693   6.957   5.936   6.931 -1.0403  0.7089  1.8245
  152MOL   C13239694   6.889   5.494   7.138 -0.0050  0.2532 -0.2026
  152MOL   C13339695   6.854   5.482   7.291  1.1173  0.0582 -0.1583
  152MOL   O13439696   6.883   5.608   7.352 -0.1354  0.3401 -0.3064
  152MOL   C13539697   6.799   5.648   7.460  0.5851 -0.0272 -0.4348
  152MOL   C13639698   6.838   5.784   7.523 -0.2507  0.4412  0.7987
  152MOL   H13739699   6.995   5.511   7.120 -0.2926  1.8181 -0.5608
  152MOL   H13839700   6.865   5.401   7.086  0.8120  0.3318 -0.7220
  152MOL   H13939701   6.751   5.446   7.297  2.9090 -5.8798 -1.1870
  152MOL   H14039702   6.802   5.574   7.540  0.2950 -0.2944 -0.6714
  152MOL   H14139703   6.697   5.663   7.426  1.0230  0.4608 -1.5377
  152MOL   H14239704   6.945   5.783   7.543 -0.0719 -0.8327 -0.1563
  152MOL   H14339705   6.815   5.865   7.454 -0.8150 -2.4418 -2.5238
  152MOL   H14439706   6.788   5.808   7.617  0.4267 -1.4087  1.6639
  152MOL   C14539707   6.940   5.378   7.364 -0.1506 -0.1580  0.0588
  152MOL   C14639708   6.903   5.237   7.316  0.5575  0.0333 -0.2530
  152MOL   O14739709   6.773   5.218   7.372  0.5263  0.4397 -0.0717
  152MOL   C14839710   6.686   5.137   7.289  0.1939  0.5863 -0.0598
  152MOL   C14939711   6.552   5.147   7.363 -0.5408 -0.5220 -0.1100
  152MOL   H15039712   6.933   5.393   7.472  1.8610  1.2630  0.0335
  152MOL   H15139713   7.047   5.387   7.342  0.3291 -3.4057  0.8521
  152MOL   H15239714   6.901   5.232   7.207 -1.5352 -0.6169 -0.2063
  152MOL   H15339715   6.728   5.037   7.298  1.4286  1.2852  2.4165
  152MOL   H15439716   6.685   5.167   7.184  0.7465  0.9501  0.0341
  152MOL   H15539717   6.535   5.252   7.387  2.6782  0.2233 -0.8407
  152MOL   H15639718   6.481   5.111   7.288  0.0709  0.2564 -1.0890
  152MOL   H15739719   6.568   5.090   7.454  1.2452  0.6443  0.3279
  152MOL   C15839720   7.005   5.130   7.369 -0.2040 -0.4852  0.1819
  152MOL   C15939721   7.135   5.123   7.287 -0.1088  0.3502 -0.1895
  152MOL   O16039722   7.101   5.087   7.159 -0.0244  0.2890 -0.0278
  152MOL   C16139723   7.128   5.178   7.052 -0.3260 -0.3511  0.5265
  152MOL   C16239724   7.102   5.100   6.922 -0.0132 -0.0226 -0.1166
  152MOL   H16339725   6.960   5.031   7.364 -1.2724  0.0689 -1.3839
  152MOL   H16439726   7.019   5.142   7.476  0.0987  0.5771  0.0286
  152MOL   H16539727   7.195   5.214   7.290 -0.3345  0.5842 -2.1974
  152MOL   H16639728   7.230   5.218   7.052 -0.3961 -0.1218 -1.5432
  152MOL   H16739729   7.054   5.258   7.048  0.6945  0.5093 -1.6303
  152MOL   H16839730   7.133   5.167   6.842  0.9217 -0.3267 -0.0153
  152MOL   H16939731   7.154   5.006   6.908 -1.4421 -1.0763  1.4665
  152MOL   H17039732   7.004   5.056   6.906  0.5839 -1.7546  0.8288
  152MOL   C17139733   7.230   5.008   7.342 -0.2126 -0.6472 -0.0872
  152MOL   C17239734   7.368   4.983   7.264  0.6319  0.0612 -0.2744
  152MOL   O17339735   7.421   4.875   7.328  0.0418  0.5215 -0.3023
  152MOL   C17439736   7.397   4.739   7.282  0.1447 -0.0537  0.1165
  152MOL   C17539737   7.439   4.650   7.390  0.0147  0.4899 -0.6339
  152MOL   H17639738   7.173   4.916   7.357 -1.1134 -0.0863 -0.0310
  152MOL   H17739739   7.253   5.033   7.446  0.9879  0.1467 -0.5365
  152MOL   H17839740   7.349   4.973   7.157  4.4663 -0.7971 -0.9738
  152MOL   H17939741   7.451   4.724   7.188 -1.3695 -1.6024 -0.5564
  152MOL   H18039742   7.291   4.725   7.260  0.4054 -0.0756 -1.1646
  152MOL   H18139743   7.361   4.656   7.466  0.1306  0.5005 -0.5140
  152MOL   H18239744   7.444   4.547   7.354 -0.2814  0.5511 -0.8425
  152MOL   H18339745   7.544   4.667   7.416  0.3099 -1.4978 -0.3784
  152MOL   C18439746   7.463   5.103   7.280 -0.1077 -0.4761  0.8874
  152MOL   C18539747   7.601   5.093   7.221  0.1949  0.2588 -0.5292
  152MOL   O18639748   7.687   5.196   7.267 -0.0727 -0.0362  0.0392
  152MOL   C18739749   7.760   5.162   7.389 -0.1041 -0.5018  0.1334
  152MOL   C18839750   7.829   5.290   7.451  0.0394 -0.1515 -0.1378
  152MOL   H18939751   7.474   5.126   7.386  0.7407  1.4743  0.4041
  152MOL   H19039752   7.413   5.191   7.240  0.0536 -0.1763  1.3462
  152MOL   H19139753   7.624   4.992   7.255 -2.3644 -0.1582  0.1077
  152MOL   H19239754   7.841   5.098   7.355 -0.2796  0.5510 -2.3817
  152MOL   H19339755   7.701   5.111   7.465 -0.5957  0.7596  0.6084
  152MOL   H19439756   0.071   5.323   7.391  1.1050  1.3557  2.1221
  152MOL   H19539757   7.758   5.371   7.466  0.9417  0.3625  1.5641
  152MOL   H19639758   0.032   5.267   7.547 -0.5082 -1.0118 -0.0753
  152MOL   C19739759   7.595   5.104   7.064  0.7106 -0.1751  0.0671
  152MOL   C19839760   7.736   5.088   7.005  0.9198 -0.0635  0.3690
  152MOL   O19939761   7.729   5.104   6.865  0.1692  0.7648 -0.4940
  152MOL   C20039762   0.009   5.099   6.794  0.9607 -0.2599 -0.2162
  152MOL   C20139763   7.838   5.195   6.674  0.4070  0.1954 -0.3196
  152MOL   H20239764   7.556   5.201   7.036 -1.1074 -0.7788  0.4368
  152MOL   H20339765   7.525   5.029   7.027 -0.6889  0.7586  0.7777
  152MOL   H20439766   7.801   5.169   7.036  0.4972  0.5831 -0.3954
  152MOL   H20539767   0.029   5.000   6.752  1.3191 -1.0542  1.7377
  152MOL   H20639768   0.093   5.135   6.853 -0.8509 -0.1656  2.3652
  152MOL   H20739769   0.086   5.183   6.617 -0.0489 -2.5524 -0.5307
  152MOL   H20839770   7.762   5.165   6.602  1.0602  0.0794 -0.9658
  152MOL   H20939771   7.834   5.296   6.715  1.6416  0.5286 -0.9977
  152MOL   C21039772   7.808   4.962   7.042  0.4650  0.3201  0.5351
  152MOL   C21139773   7.731   4.830   7.023  0.0992 -0.4852 -0.7862
  152MOL   O21239774   7.810   4.726   7.077  0.6026 -0.3738 -0.3651
  152MOL   C21339775   7.767   4.685   7.207  0.2046 -0.3641  0.8233
  152MOL   C21439776   7.827   4.555   7.247 -0.7502  0.0047 -0.9716
  152MOL   H21539777   7.836   4.969   7.147 -0.6834  1.3259  0.7783
  152MOL   H21639778   0.064   4.956   6.997 -0.7002 -1.6825 -1.9249
  152MOL   H21739779   7.637   4.835   7.078 -0.2013  0.7733 -1.3984
  152MOL   H21839780   7.659   4.682   7.214  0.2267 -0.4718  1.1380
  152MOL   H21939781   7.802   4.753   7.285  4.1055 -0.3671 -0.7745
  152MOL   H22039782   0.092   4.551   7.247 -0.7898 -1.6579  0.7325
  152MOL   H22139783   7.795   4.528   7.348  0.6124  0.3892 -0.4244
  152MOL   H22239784   7.791   4.472   7.186  0.8920 -0.1007 -1.7958
  152MOL   C22339785   7.691   4.795   6.878 -0.0950 -0.0809 -0.9611
  152MOL   C22439786   7.589   4.687   6.857 -0.0840  0.4419 -0.4207
  152MOL   O22539787   7.469   4.722   6.922 -0.1322 -0.5068 -0.1027
  152MOL   C22639788   7.356   4.649   6.868 -1.0943 -0.5711  0.2804
  152MOL   C22739789   7.229   4.736   6.864  0.3497  0.0066 -0.3856
  152MOL   H22839790   7.781   4.770   6.822 -0.1086 -0.6451 -0.7289
  152MOL   H22939791   7.649   4.888   6.839  1.9049  1.1458 -0.3015
  152MOL   H23039792   7.575   4.677   6.749  0.1246 -2.6382 -0.1963
  152MOL   H23139793   7.341   4.554   6.918 -2.8558 -0.6709 -0.3934
  152MOL   H23239794   7.375   4.626   6.763 -0.4709 -0.1046  0.2863
  152MOL   H23339795   7.184   4.741   6.963  0.7051 -0.4279 -0.1985
  152MOL   H23439796   7.259   4.837   6.837  1.4872 -0.8530 -2.4786
  152MOL   H23539797   7.153   4.710   6.790 -1.8607 -1.3906  2.2967
  152MOL   C23639798   7.640   4.546   6.898  0.5266 -0.0165  0.2723
  152MOL   C23739799   7.766   4.502   6.823 -0.3522  0.5937 -0.2506
  152MOL   O23839800   7.726   4.487   6.692  0.4790  0.1749 -0.7964
  152MOL   C23939801   7.827   4.529   6.602 -0.9486 -0.2193  0.6807
  152MOL   C24039802   7.771   4.506   6.463  0.8847  0.1351  0.7915
  152MOL   H24139803   7.564   4.471   6.874  0.8993 -0.9297  1.9080
  152MOL   H24239804   7.646   4.545   7.006 -4.2953 -1.9734  0.6513
  152MOL   H24339805   0.003   4.575   6.829 -1.8049  2.3412 -1.3395
  152MOL   H24439806   0.074   4.468   6.612 -0.7860 -0.3529 -1.3446
  152MOL   H24539807   0.008   4.634   6.615 -0.9955  0.0080 -0.9356
  152MOL   H24639808   7.745   4.402   6.444  0.4133  0.7973 -2.3109
  152MOL   H24739809   7.679   4.557   6.436  0.1253 -1.5910  0.0875
  152MOL   H24839810   0.001   4.529   6.386  1.5448  0.2076  1.4274
  152MOL   C24939811   7.828   4.370   6.873 -0.0840 -0.2288  0.2879
  152MOL   C25039812   7.778   4.239   6.817 -0.1314  0.7456 -0.1560
  152MOL   O25139813   0.002   4.128   6.878 -0.0080 -0.2143  0.2494
  152MOL   C25239814   7.806   3.997   6.825 -0.0047  0.1606  0.3479
  152MOL   C25339815   0.070   3.900   6.876 -0.6810  0.3557 -0.1600
  152MOL   H25439816   7.828   4.364   6.982  2.0351  0.6526  0.3577
  152MOL   H25539817   0.089   4.365   6.843 -0.7603 -0.0530 -2.1725
  152MOL   H25639818   7.670   4.233   6.829 -0.0427 -0.2118  0.2122
  152MOL   H25739819   7.810   3.991   6.716 -1.1300 -1.6535  0.3909
  152MOL   H25839820   7.703   3.980   6.856  0.6234 -0.8610  1.9175
  152MOL   H25939821   0.052   3.800   6.838 -0.8676  1.1617 -2.2417
  152MOL   H26039822   0.166   3.940   6.842 -0.0238 -1.5729 -0.6497
  152MOL   H26139823   0.069   3.914   6.985  0.9150 -0.5745  0.0031
  152MOL   H26239824   7.796   4.247   6.710  0.0537  2.9722  0.0057
  153MOL     C139825   5.505   0.261   1.854 -0.2590  0.6923  0.2013
  153MOL     C239826   5.442   0.382   1.907 -0.2182  0.3864 -0.4643
  153MOL     O339827   5.555   0.466   1.940  0.4760 -0.2153 -0.4714
  153MOL     C439828   5.537   0.608   1.916 -0.5111 -0.3091  0.1145
  153MOL     C539829   5.630   0.686   2.008 -0.5292  0.1107 -0.0364
  153MOL     H639830   5.422   0.199   1.819  0.3977 -0.5762  0.8494
  153MOL     H739831   5.580   0.270   1.776  0.6704  0.8554  1.0975
  153MOL     H839832   5.383   0.436   1.832  0.2498  0.1623 -1.0008
  153MOL     H939833   5.432   0.635   1.906 -0.7953 -1.7958 -1.1430
  153MOL    H1039834   5.578   0.628   1.817 -0.0566  0.3310  0.4232
  153MOL    H1139835   5.608   0.792   2.011  3.2553  0.9725  0.1925
  153MOL    H1239836   5.614   0.663   2.113  0.8979 -1.3009 -0.1021
  153MOL    H1339837   5.737   0.675   1.991 -0.5990 -2.0106  0.7866
  153MOL    H1439838   5.558   0.208   1.933  0.5505  1.3810  0.1184
  153MOL    C1539839   5.352   0.363   2.022 -0.1320  0.6240  0.2685
  153MOL    C1639840   5.218   0.294   2.001  0.0852 -0.6170 -0.4028
  153MOL    O1739841   5.147   0.384   1.912 -0.6010 -0.6733 -0.5019
  153MOL    C1839842   5.060   0.314   1.828  0.3036  0.1287  0.3689
  153MOL    C1939843   4.981   0.419   1.747  0.0311 -0.1401  0.0753
  153MOL    H2039844   5.329   0.465   2.054 -1.9988 -0.3258  1.9675
  153MOL    H2139845   5.402   0.308   2.102 -0.8959  0.5035  0.6629
  153MOL    H2239846   5.257   0.201   1.958  1.8962 -0.5102  0.9303
  153MOL    H2339847   4.993   0.254   1.890  1.5340 -0.9321  0.6724
  153MOL    H2439848   5.124   0.249   1.769  0.0010 -0.4014  0.6209
  153MOL    H2539849   5.041   0.487   1.687  0.5473  1.1246  1.9822
  153MOL    H2639850   4.918   0.482   1.810  0.8604  0.8220 -0.0545
  153MOL    H2739851   4.915   0.371   1.675  0.7750 -0.1666 -0.5927
  153MOL    C2839852   5.137   0.281   2.126 -0.3686  0.3623 -0.1961
  153MOL    C2939853   5.156   0.168   2.227  0.4141  0.3261  0.2819
  153MOL    O3039854   5.116   0.046   2.163  0.6532 -0.3149  0.1994
  153MOL    C3139855   5.230   7.805   2.155 -0.2381 -0.8753 -0.6786
  153MOL    C3239856   5.194   7.689   2.052  0.1970 -0.4677 -0.3024
  153MOL    H3339857   5.034   0.273   2.092 -0.4954  0.3658  0.1903
  153MOL    H3439858   5.139   0.379   2.175 -0.5387  0.1039  0.3276
  153MOL    H3539859   5.260   0.169   2.261  0.1714  1.6450  1.0273
  153MOL    H3639860   5.246   7.775   2.258 -0.7260 -1.4370 -0.7647
  153MOL    H3739861   5.313   0.022   2.117 -2.9531  3.6597  0.2191
  153MOL    H3839862   5.118   7.622   2.093 -1.3667  0.5959 -1.4158
  153MOL    H3939863   5.153   7.729   1.960  0.9619  1.0079 -0.0159
  153MOL    H4039864   5.291   7.651   2.021  2.1578  1.2928  3.3870
  153MOL    C4139865   5.066   0.194   2.348  0.1240 -0.3093 -0.1855
  153MOL    C4239866   5.102   0.139   2.487 -0.4184 -0.0642 -0.6192
  153MOL    O4339867   5.151   0.003   2.486 -0.6854  0.0122  0.4421
  153MOL    C4439868   5.254   7.810   2.581  0.1259 -0.4007  0.1477
  153MOL    C4539869   5.295   7.672   2.552 -0.7622  0.6685  0.0294
  153MOL    H4639870   4.968   0.158   2.317 -0.2713  0.6279 -0.0179
  153MOL    H4739871   5.059   0.302   2.356  1.3396 -0.2617  0.2906
  153MOL    H4839872   5.178   0.199   2.538  0.9553 -1.4049 -1.0814
  153MOL    H4939873   5.217   7.799   2.683 -0.4758 -1.5866 -0.1941
  153MOL    H5039874   5.341   0.032   2.580  1.5935 -2.3271 -1.9318
  153MOL    H5139875   5.223   7.598   2.588  0.5364 -0.0836  1.1016
  153MOL    H5239876   5.305   7.643   2.447  1.4469 -0.1491  0.4482
  153MOL    H5339877   5.391   7.655   2.601 -0.0648 -0.5116 -1.6622
  153MOL    C5439878   4.978   0.146   2.578  0.1937 -0.4014 -0.2119
  153MOL    C5539879   4.957   0.289   2.639 -0.1757 -0.5509 -0.2837
  153MOL    O5639880   5.018   0.281   2.762  0.1111 -0.4236 -0.2284
  153MOL    C5739881   5.083   0.393   2.800  0.1492  0.7309  0.0311
  153MOL    C5839882   5.155   0.353   2.931 -0.1313  0.1128  0.5366
  153MOL    H5939883   4.978   0.070   2.656 -2.3985  2.2952  2.5432
  153MOL    H6039884   4.890   0.108   2.526 -0.8191  1.1148  0.3261
  153MOL    H6139885   5.004   0.373   2.587  2.3062 -0.5773  1.8020
  153MOL    H6239886   5.012   0.474   2.814 -0.9049 -0.1137 -0.3530
  153MOL    H6339887   5.155   0.441   2.734  1.2419  0.2596  0.8701
  153MOL    H6439888   5.083   0.320   3.006  0.7286 -0.0283  1.3033
  153MOL    H6539889   5.221   0.267   2.929  1.9080  1.5719  2.7077
  153MOL    H6639890   5.203   0.446   2.961  1.8645 -0.6197 -0.2821
  153MOL    C6739891   4.809   0.324   2.659  0.3544  0.1108 -0.4863
  153MOL    C6839892   4.736   0.364   2.538 -1.0212  0.6847 -0.0904
  153MOL    O6939893   4.795   0.479   2.479  0.0985  0.0933 -0.0541
  153MOL    C7039894   4.788   0.488   2.336 -0.0356  0.1924 -0.3001
  153MOL    C7139895   4.897   0.588   2.299  0.0789  0.6538 -0.1598
  153MOL    H7239896   4.800   0.402   2.735  2.1549 -2.6307  2.6898
  153MOL    H7339897   4.757   0.237   2.701 -0.3512 -0.6501 -2.8811
  153MOL    H7439898   4.741   0.281   2.467  1.9363  0.1377  0.7096
  153MOL    H7539899   4.695   0.537   2.306  0.1094  0.8710  0.3584
  153MOL    H7639900   4.798   0.394   2.280  0.6092  0.4003 -0.5283
  153MOL    H7739901   4.886   0.595   2.191  1.0367 -0.2552 -0.3262
  153MOL    H7839902   4.881   0.684   2.348  1.2385  2.1446 -2.6160
  153MOL    H7939903   4.996   0.554   2.330  0.0083  1.7916  1.3746
  153MOL    C8039904   4.595   0.402   2.571  0.8600  0.8161 -0.0289
  153MOL    C8139905   4.503   0.293   2.623  0.5246 -0.2782  0.2744
  153MOL    O8239906   4.515   0.178   2.546 -0.9435  0.2413 -0.9282
  153MOL    C8339907   4.478   0.054   2.618 -0.1505  0.0451  0.4832
  153MOL    C8439908   4.512   7.776   2.537  0.1290  0.0237  0.7187
  153MOL    H8539909   4.540   0.436   2.483 -1.6014 -3.7159 -0.4287
  153MOL    H8639910   4.592   0.495   2.627 -1.4995  0.3159  0.7155
  153MOL    H8739911   4.525   0.257   2.724 -2.6869  0.3328  1.2505
  153MOL    H8839912   4.374   0.042   2.647 -0.4509  2.4652  0.4539
  153MOL    H8939913   4.521   0.041   2.717  2.0516 -2.5245 -0.7494
  153MOL    H9039914   4.456   7.785   2.444 -0.3641  0.5860  1.0594
  153MOL    H9139915   4.618   7.766   2.514 -0.4739 -0.9285 -1.7182
  153MOL    H9239916   4.487   7.687   2.594 -1.9371  1.2217  1.7615
  153MOL    C9339917   4.352   0.319   2.608 -0.0553  0.4935 -0.1826
  153MOL    C9439918   4.272   0.342   2.742  0.8771 -0.7196 -0.2025
  153MOL    O9539919   4.270   0.213   2.808  0.1785 -0.3525  0.1413
  153MOL    C9639920   4.345   0.197   2.928  0.4166  0.2323  0.8064
  153MOL    C9739921   4.261   0.262   3.047 -0.2120 -0.1708 -0.3097
  153MOL    H9839922   4.295   0.234   2.569  0.1948 -1.3249  3.1582
  153MOL    H9939923   4.341   0.406   2.545 -0.3097  1.4159  1.1155
  153MOL   H10039924   4.319   0.424   2.797 -0.4761  1.4693 -2.2439
  153MOL   H10139925   4.446   0.237   2.917  0.9762 -0.2270  3.8875
  153MOL   H10239926   4.353   0.088   2.934 -1.3029  0.0923  0.7609
  153MOL   H10339927   4.300   0.245   3.147 -1.4502  0.2707  0.2622
  153MOL   H10439928   4.257   0.371   3.035  1.1252 -0.2419 -1.4803
  153MOL   H10539929   4.163   0.220   3.023 -0.1594 -0.6531  0.3175
  153MOL   C10639930   4.124   0.379   2.715 -0.4115 -0.0576  0.1753
  153MOL   C10739931   4.101   0.520   2.652  0.2643  0.7612 -0.4816
  153MOL   O10839932   4.122   0.611   2.762  0.1824 -0.3836  0.1989
  153MOL   C10939933   4.160   0.740   2.705  0.2220  0.1315  0.1778
  153MOL   C11039934   4.146   0.854   2.813  0.0783 -0.0478  0.2932
  153MOL   H11139935   4.067   0.361   2.807  2.2554 -2.4557  1.4057
  153MOL   H11239936   4.088   0.302   2.647  0.4872 -0.9374  0.6812
  153MOL   H11339937   4.161   0.540   2.563 -0.2177  0.4229 -0.8806
  153MOL   H11439938   4.088   0.780   2.633  0.5265 -2.1530 -1.4664
  153MOL   H11539939   4.260   0.732   2.663  2.0076  0.3815  4.1903
  153MOL   H11639940   4.194   0.831   2.908 -2.7856 -1.8791  1.3902
  153MOL   H11739941   4.191   0.945   2.774 -0.7850 -0.1113 -0.8669
  153MOL   H11839942   4.043   0.867   2.848  0.0790  1.3348 -0.2036
  153MOL   C11939943   3.951   0.528   2.615 -0.1006  0.2030  0.3972
  153MOL   C12039944   3.904   0.435   2.498 -0.9218 -0.2608 -0.4724
  153MOL   O12139945   3.979   0.455   2.379 -0.2779 -0.3446 -0.0071
  153MOL   C12239946   3.997   0.347   2.294 -0.2813  0.1753 -0.5886
  153MOL   C12339947   4.071   0.392   2.165 -0.0504  1.2570  0.2938
  153MOL   H12439948   3.920   0.632   2.603 -0.9417  0.0256  0.9696
  153MOL   H12539949   3.889   0.504   2.702 -1.0029  0.1754 -0.2492
  153MOL   H12639950   3.935   0.335   2.531  2.4896  0.2860 -1.7871
  153MOL   H12739951   3.907   0.295   2.262  0.6994 -1.6323 -0.4723
  153MOL   H12839952   4.054   0.267   2.343 -1.1504  0.2883  0.6340
  153MOL   H12939953   4.023   0.472   2.108  0.2287 -0.2764 -2.1796
  153MOL   H13039954   4.171   0.427   2.191  1.2246 -0.8862 -1.4845
  153MOL   H13139955   4.070   0.310   2.093 -1.3674  1.0152  0.5846
  153MOL   C13239956   3.758   0.424   2.460 -0.5152 -0.1124 -0.5755
  153MOL   C13339957   3.700   0.559   2.413  0.2559  0.1685 -0.0035
  153MOL   O13439958   3.556   0.553   2.429 -0.3116  0.2823 -0.0342
  153MOL   C13539959   3.502   0.618   2.549 -0.2786  0.8884  0.0759
  153MOL   C13639960   3.354   0.618   2.564  0.0680  0.8556 -0.0029
  153MOL   H13739961   3.711   0.389   2.552  1.2575  0.2355  0.4953
  153MOL   H13839962   3.741   0.348   2.384 -0.3534 -0.4735 -0.2542
  153MOL   H13939963   3.742   0.641   2.471 -2.2572  0.5925  1.2695
  153MOL   H14039964   3.539   0.719   2.532  0.4299  0.3165 -1.8196
  153MOL   H14139965   3.555   0.582   2.637  1.4563  1.8017 -0.5884
  153MOL   H14239966   3.319   0.518   2.539  1.2039  0.1021  1.4004
  153MOL   H14339967   3.321   0.643   2.665  0.7357 -1.0512  0.6946
  153MOL   H14439968   3.320   0.681   2.481 -2.2449 -3.0145 -2.1713
  153MOL   C14539969   3.729   0.580   2.267 -0.1856 -0.3610 -0.0025
  153MOL   C14639970   3.682   0.720   2.217 -1.0032  0.2826 -0.9165
  153MOL   O14739971   3.696   0.720   2.074 -0.2758 -0.5205 -0.5461
  153MOL   C14839972   3.595   0.656   1.995 -0.6129  0.4749 -0.5049
  153MOL   C14939973   3.573   0.736   1.866 -0.6177 -0.6514 -0.3140
  153MOL   H15039974   3.684   0.506   2.200  0.7655  0.8301 -2.0003
  153MOL   H15139975   3.837   0.576   2.257 -0.2627 -0.6670 -0.7259
  153MOL   H15239976   3.581   0.743   2.249 -0.4704 -0.9245  1.7270
  153MOL   H15339977   3.501   0.660   2.050  0.2850 -1.5641  1.2501
  153MOL   H15439978   3.630   0.555   1.975 -1.5071  0.2192 -0.8148
  153MOL   H15539979   3.672   0.741   1.822 -0.9702  1.8925 -0.8924
  153MOL   H15639980   3.501   0.669   1.819  1.0858 -1.5410 -1.6953
  153MOL   H15739981   3.535   0.835   1.894 -2.2780 -1.7265  1.3567
  153MOL   C15839982   3.763   0.845   2.274  0.1011  0.7555  0.1168
  153MOL   C15939983   3.749   0.982   2.205  0.0510  0.0011  0.6364
  153MOL   O16039984   3.796   1.076   2.306  0.7303  0.3262 -0.3405
  153MOL   C16139985   3.930   1.115   2.295  0.2424 -0.6588  0.8138
  153MOL   C16239986   3.956   1.222   2.402 -0.2845 -0.0000 -0.1744
  153MOL   H16339987   3.871   0.830   2.275 -0.0326 -0.2838 -0.2886
  153MOL   H16439988   3.743   0.854   2.381 -0.3768 -1.7757  0.2650
  153MOL   H16539989   3.810   0.976   2.115 -0.2666 -3.0738  0.5628
  153MOL   H16639990   3.943   1.174   2.204 -0.2262 -0.9551  0.5533
  153MOL   H16739991   3.990   1.024   2.299  0.8831 -0.2901 -0.0841
  153MOL   H16839992   3.888   1.306   2.387 -1.2151 -0.6980  0.1527
  153MOL   H16939993   3.960   1.182   2.503  0.8029 -0.9415 -0.5786
  153MOL   H17039994   4.055   1.267   2.391 -0.6761  0.5662 -1.5489
  153MOL   C17139995   3.604   1.027   2.169  0.1840 -0.1071 -0.6552
  153MOL   C17239996   3.596   1.161   2.082  0.3435 -0.3104 -0.1526
  153MOL   O17339997   3.464   1.214   2.089  0.4372 -0.0258 -0.2385
  153MOL   C17439998   3.429   1.299   2.199  0.5463 -0.0709 -0.0700
  153MOL   C17539999   3.272   1.313   2.199 -0.5001  0.0331  0.2287
  153MOL   H17640000   3.557   1.058   2.262  0.4412 -1.2737 -0.1256
  153MOL   H17740001   3.540   0.944   2.138 -0.5503  0.8465 -1.7540
  153MOL   H17840002   3.661   1.231   2.135 -0.6840 -0.1841  0.9669
  153MOL   H17940003   3.470   1.397   2.175  1.3378 -0.6902 -1.2866
  153MOL   H18040004   3.475   1.261   2.290  2.9508  0.2610 -1.1089
  153MOL   H18140005   3.245   1.348   2.298 -2.0571 -0.3484 -0.0579
  153MOL   H18240006   3.237   1.393   2.135 -0.9584  1.2452  1.9593
  153MOL   H18340007   3.229   1.215   2.178  0.5122 -0.2829 -0.4122
  153MOL   C18440008   3.626   1.132   1.933 -0.6985  0.2807 -0.5668
  153MOL   C18540009   3.623   1.243   1.835 -0.1772 -0.1984 -0.2320
  153MOL   O18640010   3.664   1.189   1.708 -0.3683  0.1291 -0.0983
  153MOL   C18740011   3.567   1.135   1.617  0.0248 -0.2826 -0.2635
  153MOL   C18840012   3.621   1.148   1.472 -0.4697 -0.2666  0.9348
  153MOL   H18940013   3.569   1.048   1.891  1.6030 -2.4659  1.5941
  153MOL   H19040014   3.728   1.095   1.928 -0.7112  0.4294 -2.3817
  153MOL   H19140015   3.523   1.285   1.822  0.3706  1.1821 -0.0843
  153MOL   H19240016   3.472   1.185   1.638 -0.1087 -0.4334 -0.5145
  153MOL   H19340017   3.549   1.030   1.639  1.3820  0.0428  2.6327
  153MOL   H19440018   3.723   1.110   1.462 -0.0503  1.0654  0.1014
  153MOL   H19540019   3.548   1.091   1.415 -0.3573  0.3242  0.1961
  153MOL   H19640020   3.624   1.252   1.440  0.5193 -0.8485 -0.9590
  153MOL   C19740021   3.730   1.356   1.864  0.2809 -0.4908 -0.1358
  153MOL   C19840022   3.733   1.482   1.774 -1.6363  0.6984 -0.0720
  153MOL   O19940023   3.847   1.568   1.820 -0.0815 -0.1195  0.1303
  153MOL   C20040024   3.886   1.657   1.718  0.3453 -0.4848  0.0768
  153MOL   C20140025   3.983   1.755   1.788  0.3870 -0.4294  0.2185
  153MOL   H20240026   3.826   1.305   1.868 -0.2017 -1.3699  0.6160
  153MOL   H20340027   3.718   1.382   1.969  0.0945 -2.9323  0.4793
  153MOL   H20440028   3.765   1.442   1.677  0.7112  1.8289  0.1984
  153MOL   H20540029   3.800   1.703   1.670 -0.9477 -0.4324  2.3659
  153MOL   H20640030   3.940   1.618   1.632  1.0398  0.1162  0.2352
  153MOL   H20740031   4.064   1.689   1.819  0.7778 -1.6880 -3.2117
  153MOL   H20840032   4.000   1.828   1.709 -3.5818  0.6520  0.2151
  153MOL   H20940033   3.941   1.799   1.878  0.0735  1.9270 -1.0244
  153MOL   C21040034   3.599   1.553   1.764  0.2370 -0.0717  0.0179
  153MOL   C21140035   3.533   1.552   1.620  0.0296  0.7332 -1.1621
  153MOL   O21240036   3.630   1.601   1.532 -0.2401 -1.0173  0.4661
  153MOL   C21340037   3.614   1.567   1.393  0.1510  0.2275  0.9284
  153MOL   C21440038   3.749   1.574   1.327 -0.3926 -0.7352  0.6893
  153MOL   H21540039   3.610   1.650   1.812  0.5649 -0.8098  1.4687
  153MOL   H21640040   3.533   1.505   1.836  0.4876 -1.9705 -0.9720
  153MOL   H21740041   3.507   1.451   1.588  1.6256  0.5263 -1.8701
  153MOL   H21840042   3.534   1.630   1.354  1.5884  1.3076 -0.3364
  153MOL   H21940043   3.581   1.464   1.393  2.3147 -0.5241 -1.7803
  153MOL   H22040044   3.745   1.553   1.221 -1.6426  0.7831  0.4154
  153MOL   H22140045   3.805   1.666   1.348  1.0273 -1.8696  2.0721
  153MOL   H22240046   3.803   1.490   1.370  1.0560 -0.9153 -1.4109
  153MOL   C22340047   3.412   1.649   1.621  0.0503  0.8691 -0.6484
  153MOL   C22440048   3.306   1.632   1.734 -0.3346  0.3738  0.6021
  153MOL   O22540049   3.243   1.499   1.718  0.2806  0.6803  0.0472
  153MOL   C22640050   3.188   1.438   1.827 -0.1048 -0.0970  0.1129
  153MOL   C22740051   3.099   1.308   1.795  0.3342  0.0675 -0.6997
  153MOL   H22840052   3.362   1.676   1.528 -1.2076  0.0395 -0.2323
  153MOL   H22940053   3.465   1.742   1.644  0.8734  0.3687 -0.4930
  153MOL   H23040054   3.358   1.646   1.829 -2.8978  2.1321  1.8098
  153MOL   H23140055   3.116   1.506   1.874  1.8881  1.3883  1.0886
  153MOL   H23240056   3.267   1.421   1.900 -0.6149 -0.6826  0.5339
  153MOL   H23340057   3.042   1.342   1.708  2.0975  2.6735 -0.8933
  153MOL   H23440058   3.170   1.228   1.775  0.2930 -0.1233 -0.0837
  153MOL   H23540059   3.033   1.281   1.877 -0.4183  4.3187  0.2232
  153MOL   C23640060   3.198   1.743   1.737 -0.1156  0.0907  0.2973
  153MOL   C23740061   3.252   1.888   1.751  0.2308 -0.3577  0.2730
  153MOL   O23840062   3.335   1.911   1.873  0.1912 -0.1757  0.9817
  153MOL   C23940063   3.450   1.989   1.844  0.7296  0.4028 -1.1163
  153MOL   C24040064   3.540   1.984   1.972  0.2535  0.0621 -0.1123
  153MOL   H24140065   3.132   1.729   1.823  1.0451 -1.3029  0.9847
  153MOL   H24240066   3.138   1.728   1.647  1.8049  1.9387 -1.3386
  153MOL   H24340067   3.307   1.917   1.661  2.5616 -0.4608  1.6168
  153MOL   H24440068   3.423   2.094   1.829 -1.4375 -0.2009 -1.6120
  153MOL   H24540069   3.507   1.948   1.761 -1.4646 -2.1068 -1.4574
  153MOL   H24640070   3.476   2.013   2.055 -1.1746 -0.2264 -1.0987
  153MOL   H24740071   3.574   1.881   1.981  0.2349  0.1164  0.5848
  153MOL   H24840072   3.620   2.057   1.955 -0.9935  1.7461  1.1187
  153MOL   C24940073   3.131   1.984   1.765  0.1348  0.2082  0.1108
  153MOL   C25040074   3.046   2.009   1.635  0.3036  0.4648 -0.3061
  153MOL   O25140075   3.131   2.073   1.543 -0.6021 -0.0515 -0.0611
  153MOL   C25240076   3.078   2.047   1.409 -0.3050 -0.3922  0.6044
  153MOL   C25340077   3.152   1.918   1.366 -0.5446  0.3144 -0.0558
  153MOL   H25440078   3.169   2.079   1.802 -1.7706  0.8686  0.4089
  153MOL   H25540079   3.069   1.937   1.841  1.1283 -0.3669  0.5760
  153MOL   H25640080   3.013   1.915   1.590  1.3270  0.0059 -0.1255
  153MOL   H25740081   3.096   2.131   1.341 -0.8138 -1.0254 -0.3227
  153MOL   H25840082   2.971   2.031   1.394 -1.0151  1.3349  3.3352
  153MOL   H25940083   3.161   1.908   1.258  1.2483  1.7866 -0.0564
  153MOL   H26040084   3.251   1.955   1.391 -0.5619 -0.6528  1.5051
  153MOL   H26140085   3.136   1.824   1.419  0.4438 -0.5090 -1.1755
  153MOL   H26240086   2.952   2.062   1.650  0.5169  0.0582  2.8230
  154MOL     C140087   6.735   2.320   0.566 -0.2750 -0.1923  0.6283
  154MOL     C240088   6.823   2.431   0.502  0.5181  0.7725  0.6882
  154MOL     O340089   6.750   2.548   0.476 -0.0966 -0.2982  0.1723
  154MOL     C440090   6.787   2.657   0.554  0.2009  0.6386 -0.2350
  154MOL     C540091   6.698   2.775   0.508  0.0282 -0.1762  0.2017
  154MOL     H640092   6.775   2.218   0.562 -1.6116 -0.6910 -0.4352
  154MOL     H740093   6.731   2.355   0.669 -1.5355 -1.2684  0.9655
  154MOL     H840094   6.908   2.448   0.568  2.6815  1.0609 -2.0798
  154MOL     H940095   6.889   2.684   0.527  0.2464 -1.5235 -2.3571
  154MOL    H1040096   6.766   2.640   0.659  0.4082  0.8636 -0.1563
  154MOL    H1140097   6.602   2.767   0.561  0.1609  0.9666  0.6289
  154MOL    H1240098   6.744   2.869   0.537  0.1732  0.0288 -0.6860
  154MOL    H1340099   6.667   2.782   0.404 -2.0164  3.0730  0.9445
  154MOL    H1440100   6.635   2.328   0.522  0.3311 -1.5798 -1.0506
  154MOL    C1540101   6.897   2.389   0.366  0.3674  0.2158  0.5796
  154MOL    C1640102   6.992   2.487   0.287 -0.3190  0.7951  0.0388
  154MOL    O1740103   7.075   2.560   0.381 -0.0497 -0.3024 -0.0410
  154MOL    C1840104   7.168   2.496   0.461  0.0533  0.6661 -0.1713
  154MOL    C1940105   7.206   2.600   0.562 -0.9873 -0.1204  0.0881
  154MOL    H2040106   6.826   2.371   0.286 -0.3835  3.6283  0.3879
  154MOL    H2140107   6.956   2.303   0.397 -0.4205  0.2605  2.2497
  154MOL    H2240108   7.049   2.439   0.208 -0.4807 -0.6641  0.7938
  154MOL    H2340109   7.248   2.469   0.392 -0.1822 -2.3775  0.6390
  154MOL    H2440110   7.124   2.404   0.501  0.2303  0.4956 -0.3665
  154MOL    H2540111   7.230   2.691   0.507 -2.2982  1.3394  1.8433
  154MOL    H2640112   7.295   2.581   0.621 -1.0803 -1.0745 -0.0661
  154MOL    H2740113   7.124   2.635   0.625 -1.5591 -0.9157 -0.2064
  154MOL    C2840114   6.913   2.604   0.215 -0.3971  0.1768 -0.9031
  154MOL    C2940115   6.985   2.693   0.113 -0.5737  0.1195 -0.8333
  154MOL    O3040116   7.022   2.610   7.842  0.0340 -0.0963 -0.1278
  154MOL    C3140117   6.973   2.657   7.719 -0.1494 -0.0725  0.0124
  154MOL    C3240118   6.824   2.625   7.696  1.1448  0.0431 -0.3149
  154MOL    H3340119   6.857   2.660   0.291  1.7297 -0.0193  0.8517
  154MOL    H3440120   6.839   2.554   0.153  1.5016 -2.0111 -1.4621
  154MOL    H3540121   6.911   2.770   0.089 -0.4898  0.5959  0.3736
  154MOL    H3640122   7.030   2.608   7.640 -0.2874  1.0130 -0.7842
  154MOL    H3740123   6.990   2.762   7.693  3.4282 -0.2787  1.2955
  154MOL    H3840124   6.782   2.663   7.603 -0.2259  1.1483  0.7494
  154MOL    H3940125   6.798   2.519   7.706  0.7776  0.3033  1.4897
  154MOL    H4040126   6.774   2.676   7.778 -2.9691 -1.0951 -1.9939
  154MOL    C4140127   7.113   2.780   0.156 -0.0427 -0.1648 -0.0157
  154MOL    C4240128   7.080   2.880   0.270 -0.1145 -0.5907 -0.4406
  154MOL    O4340129   6.982   2.969   0.205  0.2529 -0.0060 -0.0397
  154MOL    C4440130   6.862   2.988   0.284  0.9843  0.0835  0.2181
  154MOL    C4540131   6.762   3.078   0.207 -0.1278  0.3054  0.5509
  154MOL    H4640132   7.156   2.839   0.075  0.7456 -0.0924  0.4522
  154MOL    H4740133   7.191   2.709   0.182 -0.7867 -0.1623  2.4186
  154MOL    H4840134   7.041   2.828   0.357 -0.8616  1.9799  0.8019
  154MOL    H4940135   6.907   3.023   0.377  3.5254 -0.9251 -0.5712
  154MOL    H5040136   6.821   2.890   0.307 -1.9266  1.3420  0.5209
  154MOL    H5140137   6.749   3.035   0.108  0.0073  2.2282 -0.3213
  154MOL    H5240138   6.670   3.093   0.263 -0.9536  2.6219 -1.3432
  154MOL    H5340139   6.813   3.174   0.201  0.8993 -0.2490  0.1447
  154MOL    C5440140   7.207   2.960   0.308 -0.0178 -0.0853 -0.5614
  154MOL    C5540141   7.195   3.058   0.425 -0.4950  1.0990  0.0507
  154MOL    O5640142   7.326   3.120   0.451  0.1925  0.4435 -0.4375
  154MOL    C5740143   7.351   3.227   0.361  0.0485 -0.4143 -0.5317
  154MOL    C5840144   7.503   3.253   0.349 -0.9065 -0.2566 -0.1086
  154MOL    H5940145   7.234   3.011   0.216  2.5241  1.4348  0.9519
  154MOL    H6040146   7.284   2.888   0.338  1.1447  0.1901 -2.7913
  154MOL    H6140147   7.122   3.134   0.398 -0.8919  0.7448  0.1204
  154MOL    H6240148   7.294   3.313   0.396  0.5161 -0.4396  0.3103
  154MOL    H6340149   7.308   3.214   0.262  0.6401 -0.8714 -0.7360
  154MOL    H6440150   7.550   3.253   0.447 -1.0467 -1.3907 -0.0363
  154MOL    H6540151   7.532   3.172   0.283  2.3241  1.5558 -0.9931
  154MOL    H6640152   7.533   3.342   0.293 -0.0656 -0.9635 -0.7940
  154MOL    C6740153   7.157   2.983   0.560 -1.0110 -0.0373  0.0578
  154MOL    C6840154   7.106   3.084   0.670  0.3830 -0.0989  0.1718
  154MOL    O6940155   6.981   3.144   0.635 -0.0092 -0.3374  0.0011
  154MOL    C7040156   6.893   3.150   0.740 -0.1393  0.1333  0.2777
  154MOL    C7140157   6.752   3.182   0.688  0.2305  0.2213  0.9363
  154MOL    H7240158   7.245   2.932   0.599 -0.6574 -0.4100 -1.1913
  154MOL    H7340159   7.069   2.920   0.553 -0.5607 -0.7517  0.7799
  154MOL    H7440160   7.097   3.024   0.760 -0.8565 -0.8596 -0.4448
  154MOL    H7540161   6.928   3.229   0.807 -0.9834  0.1846  0.6661
  154MOL    H7640162   6.879   3.055   0.791 -0.4293  0.0081 -0.0332
  154MOL    H7740163   6.685   3.175   0.774 -0.2630  0.2533  0.5536
  154MOL    H7840164   6.753   3.279   0.638  0.6023 -1.0656 -1.6369
  154MOL    H7940165   6.711   3.105   0.623  0.4992  1.6249 -0.9495
  154MOL    C8040166   7.205   3.195   0.713  0.2429 -0.2000 -0.1885
  154MOL    C8140167   7.343   3.155   0.764 -0.1159 -0.2877  0.1374
  154MOL    O8240168   7.321   3.033   0.826 -0.5093 -0.0676  0.1657
  154MOL    C8340169   7.425   2.929   0.820 -0.8482 -0.4083  0.1103
  154MOL    C8440170   7.363   2.809   0.884 -0.6149  0.2199  0.0078
  154MOL    H8540171   7.152   3.259   0.783  1.4981 -0.2534  0.8254
  154MOL    H8640172   7.230   3.262   0.631 -2.0540  0.2304 -0.5746
  154MOL    H8740173   7.392   3.134   0.669 -0.5293  1.8074 -0.5641
  154MOL    H8840174   7.516   2.964   0.869  0.2702 -1.5270 -1.1418
  154MOL    H8940175   7.446   2.909   0.715  0.0474 -0.5433  0.3122
  154MOL    H9040176   7.430   2.723   0.874 -0.0756  0.5980  0.3032
  154MOL    H9140177   7.353   2.824   0.991  0.5004 -0.5034  0.2269
  154MOL    H9240178   7.263   2.798   0.842 -1.7330 -0.1508  2.6728
  154MOL    C9340179   7.416   3.265   0.852  1.0418 -0.5471  0.4664
  154MOL    C9440180   7.481   3.390   0.780  0.6565  0.2670 -0.0233
  154MOL    O9540181   7.389   3.446   0.684  0.2816 -0.0131  0.5445
  154MOL    C9640182   7.317   3.559   0.736  0.4202 -0.4589 -0.3922
  154MOL    C9740183   7.218   3.622   0.636  0.4787 -0.0033  0.2818
  154MOL    H9840184   7.487   3.232   0.927  1.4268  1.1227  0.8584
  154MOL    H9940185   7.331   3.290   0.916  1.0978  0.5540  0.1235
  154MOL   H10040186   7.500   3.460   0.861  0.2876 -0.7236  0.9308
  154MOL   H10140187   7.382   3.644   0.753  1.0471 -0.9502 -0.2922
  154MOL   H10240188   7.270   3.527   0.829 -0.0392  2.1646  0.2990
  154MOL   H10340189   7.175   3.715   0.674 -1.0362  0.1647 -1.7659
  154MOL   H10440190   7.267   3.649   0.543 -1.0675 -0.8120 -0.7873
  154MOL   H10540191   7.146   3.545   0.609  1.8321 -1.0092 -0.5026
  154MOL   C10640192   7.619   3.350   0.709  0.4523  0.4347 -0.7532
  154MOL   C10740193   7.746   3.330   0.804  0.0797 -0.5609 -0.2521
  154MOL   O10840194   7.760   3.453   0.877  0.3004 -0.0242  0.4390
  154MOL   C10940195   7.809   3.440   1.011  0.2588  0.4112  0.1963
  154MOL   C11040196   7.698   3.458   1.103  0.8561  0.5919 -0.1061
  154MOL   H11140197   7.640   3.422   0.630  1.4201  0.2222 -0.7018
  154MOL   H11240198   7.595   3.256   0.659  0.6393  0.5468 -1.0615
  154MOL   H11340199   7.706   3.251   0.867 -1.2032 -1.5754 -2.2931
  154MOL   H11440200   0.040   3.518   1.027 -0.1209  1.1061 -1.4137
  154MOL   H11540201   0.005   3.339   1.023 -1.6918 -0.4823 -0.8032
  154MOL   H11640202   7.676   3.374   1.170  0.9949  1.3607  0.9087
  154MOL   H11740203   7.724   3.530   1.180 -0.1636  0.7588  0.0964
  154MOL   H11840204   7.606   3.481   1.049  1.3684  2.4701 -0.2126
  154MOL   C11940205   0.035   3.306   0.733 -0.5275  0.7026  0.0561
  154MOL   C12040206   0.039   3.165   0.663  0.1994  0.8324 -0.3830
  154MOL   O12140207   0.005   3.061   0.755  0.2127 -0.8137  0.3335
  154MOL   C12240208   7.808   2.943   0.695  0.2739  0.4755  0.7859
  154MOL   C12340209   7.815   2.826   0.788 -0.9808 -0.1278 -0.4437
  154MOL   H12440210   0.119   3.316   0.801 -0.7781 -2.0257  0.8358
  154MOL   H12540211   0.049   3.389   0.664 -0.5386  0.1217 -0.6560
  154MOL   H12640212   7.817   3.171   0.576 -1.0605  0.8800  0.5546
  154MOL   H12740213   0.024   2.919   0.607  0.7630  0.1049  1.2152
  154MOL   H12840214   7.706   2.948   0.657  0.1622 -2.2392  0.5885
  154MOL   H12940215   7.755   2.844   0.877  0.9703  0.2446  0.8176
  154MOL   H13040216   7.803   2.732   0.734  2.4427  0.3897 -2.2196
  154MOL   H13140217   0.068   2.827   0.838 -1.1873 -0.4586 -0.0360
  154MOL   C13240218   0.183   3.151   0.597 -0.1195 -0.0038  0.3080
  154MOL   C13340219   0.190   3.200   0.455 -0.5898 -0.1601 -0.0353
  154MOL   O13440220   0.112   3.095   0.383  0.3015  0.1195  0.2818
  154MOL   C13540221   0.093   3.100   0.241  0.4729 -0.0211 -1.0963
  154MOL   C13640222   0.010   2.977   0.216 -0.4036 -0.3372  0.1511
  154MOL   H13740223   0.212   3.046   0.596 -1.4736 -0.3967  0.4848
  154MOL   H13840224   0.259   3.205   0.653  0.2456  1.4832 -1.5835
  154MOL   H13940225   0.140   3.296   0.442 -2.0354 -0.9621 -0.5577
  154MOL   H14040226   0.187   3.084   0.188  0.9236  1.8800 -0.9158
  154MOL   H14140227   0.049   3.195   0.210 -0.3642  0.5582  1.7209
  154MOL   H14240228   0.015   2.964   0.108 -0.7959  0.0374  0.0872
  154MOL   H14340229   0.056   2.887   0.258  2.0274  1.5995  1.7668
  154MOL   H14440230   7.750   2.992   0.248 -0.5623  0.8429 -0.8753
  154MOL   C14540231   0.329   3.207   0.385 -0.7700  0.0720 -0.2023
  154MOL   C14640232   0.428   3.311   0.442  0.1994  0.2547  0.2025
  154MOL   O14740233   0.384   3.436   0.392  0.2638  0.3942 -0.6444
  154MOL   C14840234   0.358   3.531   0.499  0.0327 -0.5059 -0.3702
  154MOL   C14940235   0.267   3.645   0.464  0.1134  0.2020  0.4556
  154MOL   H15040236   0.320   3.244   0.283 -0.0382 -1.5712 -0.8675
  154MOL   H15140237   0.374   3.108   0.381 -0.1102  0.3572  0.0458
  154MOL   H15240238   0.426   3.302   0.551  0.3161  1.7357  0.3377
  154MOL   H15340239   0.460   3.562   0.519  0.1631 -0.3947 -1.1556
  154MOL   H15440240   0.317   3.484   0.588 -2.2145  1.9936  0.0003
  154MOL   H15540241   0.318   3.713   0.397  0.4703  2.3178  2.7879
  154MOL   H15640242   0.181   3.596   0.419  1.8420 -1.1211 -1.5348
  154MOL   H15740243   0.235   3.707   0.548 -0.9973  0.2495  0.0087
  154MOL   C15840244   0.579   3.292   0.407 -0.1145  0.6905  0.3675
  154MOL   C15940245   0.638   3.154   0.467 -0.4603  0.1625  0.2105
  154MOL   O16040246   0.640   3.159   0.608  0.7863  0.0746  0.3032
  154MOL   C16140247   0.721   3.250   0.687  0.1070 -0.8370  0.5421
  154MOL   C16240248   0.641   3.354   0.755  0.5147  0.5363  0.5357
  154MOL   H16340249   0.628   3.380   0.449  0.4423  2.4969 -3.7641
  154MOL   H16440250   0.607   3.290   0.302  0.0177 -2.0100  0.4277
  154MOL   H16540251   0.576   3.072   0.432 -1.4393  0.3656  1.4183
  154MOL   H16640252   0.795   3.300   0.624  0.3492 -1.5915  0.2145
  154MOL   H16740253   0.768   3.184   0.760 -1.4804 -1.0121  1.4233
  154MOL   H16840254   0.704   3.419   0.816  1.9998 -0.8126  0.4476
  154MOL   H16940255   0.601   3.430   0.687 -1.0081 -2.1637 -1.6678
  154MOL   H17040256   0.573   3.313   0.829  1.3257 -1.3798  0.2379
  154MOL   C17140257   0.775   3.113   0.409 -0.1797  0.4867 -0.3916
  154MOL   C17240258   0.812   2.975   0.453 -0.4625  0.2779 -0.0868
  154MOL   O17340259   0.933   2.968   0.379 -0.5575 -0.0859 -0.1039
  154MOL   C17440260   1.028   2.872   0.421  0.2153 -0.4193  0.1773
  154MOL   C17540261   1.133   2.858   0.314  0.2467  0.5078  0.9738
  154MOL   H17640262   0.852   3.188   0.427 -1.1866  1.3194  0.4852
  154MOL   H17740263   0.759   3.120   0.302  1.4911  0.8283 -0.6337
  154MOL   H17840264   0.820   2.976   0.562  0.6271  1.9293 -0.1663
  154MOL   H17940265   0.982   2.773   0.430 -0.5134  0.0735  2.3074
  154MOL   H18040266   1.075   2.895   0.517 -0.5931  0.2258  0.4288
  154MOL   H18140267   1.198   2.772   0.330  0.0549  0.2615  0.4593
  154MOL   H18240268   1.082   2.827   0.222  1.3255  0.1753  0.4813
  154MOL   H18340269   1.190   2.949   0.295 -0.4100  0.6286 -0.5276
  154MOL   C18440270   0.715   2.858   0.421  0.0235 -0.0930 -0.0032
  154MOL   C18540271   0.687   2.835   0.273 -0.1341 -0.0119 -0.3489
  154MOL   O18640272   0.588   2.928   0.230  0.3655 -0.3871  0.5356
  154MOL   C18740273   0.604   2.970   0.095  0.0845  0.1397  0.2422
  154MOL   C18840274   0.482   3.066   0.074 -0.8030  1.2093 -0.6531
  154MOL   H18940275   0.619   2.881   0.466  0.8281  1.1711  1.1100
  154MOL   H19040276   0.775   2.776   0.463  1.9623  1.3992  0.2321
  154MOL   H19140277   0.777   2.847   0.213  0.7116 -1.6060  0.5521
  154MOL   H19240278   0.601   2.889   0.023 -1.4144 -2.0419  2.6767
  154MOL   H19340279   0.692   3.033   0.083  1.4943 -2.0823 -1.3603
  154MOL   H19440280   0.485   3.125   7.826 -0.7337  0.1879 -1.3237
  154MOL   H19540281   0.392   3.006   0.080  0.5689 -0.8003  0.6094
  154MOL   H19640282   0.479   3.145   0.149  0.8168 -0.0666  0.8111
  154MOL   C19740283   0.634   2.687   0.239  0.7934 -0.3719 -0.1951
  154MOL   C19840284   0.482   2.665   0.247  0.2336  0.2999 -0.1950
  154MOL   O19940285   0.438   2.675   0.381  0.1813  0.7936  0.1062
  154MOL   C20040286   0.336   2.778   0.409 -0.1464 -0.1992  0.4104
  154MOL   C20140287   0.314   2.794   0.559  0.8204  0.1222  0.5287
  154MOL   H20240288   0.676   2.619   0.314  1.5329  0.7002  0.3664
  154MOL   H20340289   0.678   2.658   0.143  1.3454 -0.8515  0.1972
  154MOL   H20440290   0.425   2.729   0.179 -0.9734  1.6250  1.9742
  154MOL   H20540291   0.247   2.753   0.353 -0.6468  3.2917 -0.4463
  154MOL   H20640292   0.365   2.876   0.371  1.6398 -0.4997  0.9588
  154MOL   H20740293   0.320   2.693   0.600 -0.6084 -0.9449 -1.8034
  154MOL   H20840294   0.377   2.856   0.622  1.0990 -0.7701  1.1397
  154MOL   H20940295   0.215   2.840   0.556  1.0098  0.4491 -2.0300
  154MOL   C21040296   0.449   2.515   0.213 -0.0149 -0.5957 -0.7045
  154MOL   C21140297   0.305   2.476   0.223  0.1807 -0.5484 -0.7824
  154MOL   O21240298   0.280   2.334   0.215 -0.7909  0.1386 -0.3229
  154MOL   C21340299   0.299   2.253   0.331 -0.3297 -0.3107 -0.4711
  154MOL   C21440300   0.202   2.278   0.445 -0.1303 -0.3194  0.0029
  154MOL   H21540301   0.511   2.456   0.281 -1.1577 -2.3679 -1.1528
  154MOL   H21640302   0.491   2.496   0.114  0.8558  2.2446 -0.9121
  154MOL   H21740303   0.277   2.511   0.323  2.7401  0.2182 -0.2923
  154MOL   H21840304   0.402   2.262   0.366 -0.3696 -3.8127  0.7262
  154MOL   H21940305   0.298   2.147   0.307  1.2794 -0.9064  1.8650
  154MOL   H22040306   0.209   2.380   0.483  0.2881  0.4157 -1.9709
  154MOL   H22140307   0.098   2.247   0.431  0.0425 -1.5557  1.2577
  154MOL   H22240308   0.243   2.219   0.527 -1.4288 -0.9872  0.1878
  154MOL   C22340309   0.210   2.536   0.113  0.4108  0.1692 -0.7392
  154MOL   C22440310   0.052   2.504   0.122  0.0009  0.2284 -0.4693
  154MOL   O22540311   7.826   2.547   0.010 -1.1820 -0.2046 -0.2611
  154MOL   C22640312   0.003   2.481   7.733 -0.7632 -0.2244 -0.2835
  154MOL   C22740313   7.767   2.565   7.626 -0.0946 -0.3898  0.2349
  154MOL   H22840314   0.248   2.497   0.019  2.0483 -3.6812  1.4175
  154MOL   H22940315   0.210   2.645   0.110  0.0598  0.1788 -0.4873
  154MOL   H23040316   0.041   2.395   0.122 -3.1380  0.4978 -0.8129
  154MOL   H23140317   7.806   2.380   7.742 -0.2466 -0.4741 -0.7194
  154MOL   H23240318   0.106   2.482   7.696  0.2209 -1.1013  2.3128
  154MOL   H23340319   7.811   2.664   7.615  0.7961 -1.0499 -2.8911
  154MOL   H23440320   7.781   2.517   7.529 -1.3157 -0.9201  0.3049
  154MOL   H23540321   7.663   2.579   7.655 -0.5097  0.7616 -1.7252
  154MOL   C23640322   7.825   2.580   0.231  0.3480  0.5730 -0.1407
  154MOL   C23740323   7.680   2.529   0.258 -0.2101 -0.0606  0.0208
  154MOL   O23840324   7.648   2.616   0.361 -0.0351  0.2395 -0.5112
  154MOL   C23940325   7.567   2.718   0.320 -0.7471  0.4750  0.1475
  154MOL   C24040326   7.573   2.815   0.440 -0.4265  0.1550 -0.5025
  154MOL   H24140327   7.834   2.687   0.211  2.4623  0.4406  0.0483
  154MOL   H24240328   0.038   2.559   0.321  1.5448  1.4220 -0.6844
  154MOL   H24340329   7.614   2.532   0.171 -2.1649 -0.6731  1.4727
  154MOL   H24440330   7.467   2.687   0.291  0.4959 -1.6822 -2.0215
  154MOL   H24540331   7.599   2.773   0.232 -1.9866 -0.4149 -0.8764
  154MOL   H24640332   7.677   2.843   0.457  0.5142 -1.4034 -3.3512
  154MOL   H24740333   7.512   2.901   0.412 -0.5321  0.7665  1.5424
  154MOL   H24840334   7.546   2.772   0.536  1.0373 -2.4554 -1.2244
  154MOL   C24940335   7.672   2.393   0.318  0.4442 -0.2981 -0.6159
  154MOL   C25040336   7.536   2.338   0.349 -0.0335 -0.6201 -0.1623
  154MOL   O25140337   7.533   2.244   0.458 -0.4996  0.2742  0.0984
  154MOL   C25240338   7.409   2.186   0.489  0.8391 -0.1721 -0.2220
  154MOL   C25340339   7.416   2.116   0.630 -0.0924 -0.1813  0.7505
  154MOL   H25440340   7.732   2.382   0.409 -0.1367  2.1202  0.1038
  154MOL   H25540341   7.712   2.323   0.245 -0.3895 -2.6838  1.1256
  154MOL   H25640342   7.473   2.421   0.377 -1.2274 -1.1022 -1.3675
  154MOL   H25740343   7.394   2.109   0.414  2.0088 -0.5881 -0.0454
  154MOL   H25840344   7.335   2.266   0.490  0.6729 -0.3262 -0.3366
  154MOL   H25940345   7.456   2.164   0.720 -0.1166  1.4517 -0.0936
  154MOL   H26040346   7.318   2.077   0.658 -0.0081  1.0783  2.8944
  154MOL   H26140347   7.477   2.025   0.627  2.3316  1.4156  0.0673
  154MOL   H26240348   7.489   2.303   0.257  1.1208 -1.0225 -0.6217
  155MOL     C140349   5.433   6.276   1.304 -0.3148  0.4579  0.0293
  155MOL     C240350   5.330   6.356   1.377  0.2375 -0.3637 -0.3060
  155MOL     O340351   5.372   6.494   1.382  0.1997  0.3161  0.1092
  155MOL     C440352   5.265   6.586   1.371  0.3455 -0.0910 -0.1841
  155MOL     C540353   5.329   6.732   1.356 -0.1654  0.4387 -0.5403
  155MOL     H640354   5.386   6.178   1.294  0.1217  0.2314  0.2089
  155MOL     H740355   5.442   6.320   1.204 -0.4837 -0.6191 -0.4649
  155MOL     H840356   5.234   6.349   1.327  0.3055 -0.4921 -0.4201
  155MOL     H940357   5.211   6.588   1.466 -0.7750 -0.0297 -0.8133
  155MOL    H1040358   5.195   6.555   1.294 -1.6679  1.6528  0.8971
  155MOL    H1140359   5.259   6.808   1.391  1.4916  1.2052  1.1287
  155MOL    H1240360   5.406   6.726   1.432 -1.5909  0.2740  0.9170
  155MOL    H1340361   5.363   6.760   1.256 -0.8280  0.3294 -0.7999
  155MOL    H1440362   5.518   6.276   1.371 -0.6861 -0.2674  0.5107
  155MOL    C1540363   5.314   6.312   1.524  0.4938 -0.0757  0.2318
  155MOL    C1640364   5.211   6.196   1.532 -0.1471 -0.7523 -0.4105
  155MOL    O1740365   5.087   6.260   1.554  0.6291  0.8241  0.1924
  155MOL    C1840366   4.961   6.182   1.556 -0.0788 -0.2725 -0.0579
  155MOL    C1940367   4.862   6.234   1.654 -0.1883  0.2085 -0.2834
  155MOL    H2040368   5.294   6.387   1.601  1.2898 -0.9996  1.3636
  155MOL    H2140369   5.410   6.276   1.563  0.4700  0.8622  1.1806
  155MOL    H2240370   5.212   6.139   1.439  1.1264 -1.8349  0.2385
  155MOL    H2340371   4.968   6.076   1.578 -2.7022 -0.4841 -0.0721
  155MOL    H2440372   4.924   6.192   1.454  2.9794  0.5219 -1.1509
  155MOL    H2540373   4.778   6.166   1.665 -1.0013  1.3218  0.4815
  155MOL    H2640374   4.810   6.326   1.629  0.0297  0.5467  0.4967
  155MOL    H2740375   4.912   6.240   1.751 -1.0731  1.1398  0.1249
  155MOL    C2840376   5.232   6.108   1.651  0.6156 -0.0060 -0.1290
  155MOL    C2940377   5.367   6.019   1.657  0.3916 -0.4197  0.2175
  155MOL    O3040378   5.392   5.989   1.525  0.0042 -0.5744  0.2369
  155MOL    C3140379   5.531   5.983   1.486  0.0562 -0.0969 -0.2576
  155MOL    C3240380   5.536   5.936   1.335  0.0513  0.1196 -0.7901
  155MOL    H3340381   5.146   6.042   1.665 -0.3639  1.0783 -0.9740
  155MOL    H3440382   5.224   6.158   1.748 -1.3974 -1.9591  0.7612
  155MOL    H3540383   5.446   6.088   1.689  0.8567 -0.2151 -1.3587
  155MOL    H3640384   5.573   5.903   1.547  1.4590  1.4017  0.7866
  155MOL    H3740385   5.590   6.074   1.499  0.0198  0.0092 -0.8215
  155MOL    H3840386   5.487   6.002   1.264 -0.5141 -0.8314 -1.2890
  155MOL    H3940387   5.634   5.910   1.296 -0.1547  0.3681 -1.4851
  155MOL    H4040388   5.489   5.838   1.327 -1.7164  0.8762 -0.1088
  155MOL    C4140389   5.361   5.903   1.748 -0.4080  0.3173 -0.3580
  155MOL    C4240390   5.319   5.923   1.897  0.2478 -0.2190 -0.4452
  155MOL    O4340391   5.411   6.015   1.959  0.2292 -0.1194  0.2914
  155MOL    C4440392   5.364   6.074   2.079 -0.3921  0.0074 -0.0202
  155MOL    C4540393   5.424   6.212   2.093  1.0811 -1.0512  0.4187
  155MOL    H4640394   5.458   5.856   1.735  0.6126  2.0329  0.9316
  155MOL    H4740395   5.284   5.834   1.713 -1.0038  0.2193  1.1192
  155MOL    H4840396   5.218   5.964   1.897  0.8092  1.1972  1.1846
  155MOL    H4940397   5.385   6.009   2.165 -0.1604 -2.9077 -2.1920
  155MOL    H5040398   5.255   6.078   2.076 -0.3838 -0.0906 -0.4008
  155MOL    H5140399   5.385   6.254   2.186  1.9671  2.0612 -0.5185
  155MOL    H5240400   5.531   6.230   2.101  0.9714 -0.8402  1.3886
  155MOL    H5340401   5.403   6.288   2.017  1.4971 -1.7975 -0.4468
  155MOL    C5440402   5.298   5.796   1.982 -0.1416 -0.2735 -1.0552
  155MOL    C5540403   5.193   5.694   1.940  0.4787  0.2127 -0.4333
  155MOL    O5640404   5.073   5.759   1.940 -0.2601 -0.7086  0.1215
  155MOL    C5740405   4.989   5.766   1.820  0.0436  0.8366  0.0335
  155MOL    C5840406   4.899   5.883   1.845  0.0041 -0.0526 -0.0794
  155MOL    H5940407   5.280   5.808   2.089 -0.1793 -0.2704 -1.0619
  155MOL    H6040408   5.394   5.743   1.982  0.0379  0.0224  0.2829
  155MOL    H6140409   5.226   5.671   1.838  1.5612 -1.3215  0.2441
  155MOL    H6240410   4.928   5.675   1.816 -0.2057  1.0339 -0.8989
  155MOL    H6340411   5.039   5.775   1.723 -1.2876  0.0928 -0.7452
  155MOL    H6440412   4.824   5.889   1.766  0.7928  1.2400 -0.7511
  155MOL    H6540413   4.839   5.881   1.937 -0.4086  1.8488 -0.2809
  155MOL    H6640414   4.949   5.979   1.836 -1.1239  0.5684  0.0948
  155MOL    C6740415   5.187   5.572   2.033  0.2276 -0.4362  0.9019
  155MOL    C6840416   5.065   5.483   1.998  0.0612  0.5197  0.2122
  155MOL    O6940417   5.054   5.377   2.090 -0.5545 -0.0458  0.4352
  155MOL    C7040418   5.003   5.419   2.217 -0.6215  0.3343  0.6403
  155MOL    C7140419   4.939   5.299   2.288  0.4864  0.2229 -0.1484
  155MOL    H7240420   5.176   5.610   2.134 -0.3678  0.2962  0.5726
  155MOL    H7340421   5.278   5.512   2.037  1.0028  0.7423  1.2648
  155MOL    H7440422   4.969   5.535   1.995 -1.5764 -2.3394  0.7125
  155MOL    H7540423   4.926   5.494   2.202 -1.2100  0.2123  2.9295
  155MOL    H7640424   5.080   5.468   2.277 -1.5808  2.4294  0.2007
  155MOL    H7740425   4.862   5.254   2.227 -0.1586  2.0955 -0.7590
  155MOL    H7840426   5.025   5.233   2.299  1.6027  1.4637 -1.2385
  155MOL    H7940427   4.903   5.305   2.391  2.5628 -1.4622  0.7232
  155MOL    C8040428   5.100   5.419   1.861  0.5006  0.0493 -0.0886
  155MOL    C8140429   4.997   5.314   1.810 -0.0805  0.3375 -0.1967
  155MOL    O8240430   5.047   5.267   1.689  0.0910 -0.1905 -0.0053
  155MOL    C8340431   5.123   5.148   1.697 -0.3882  0.7845 -0.0059
  155MOL    C8440432   5.183   5.126   1.553  0.0541 -0.0739 -0.1915
  155MOL    H8540433   5.199   5.375   1.867  1.2167  1.8116  1.3284
  155MOL    H8640434   5.088   5.493   1.782 -1.9447  0.6929  0.8472
  155MOL    H8740435   4.997   5.226   1.874 -0.3223 -1.6429 -2.8382
  155MOL    H8840436   5.057   5.065   1.725  1.4093 -0.7478 -0.2481
  155MOL    H8940437   5.209   5.147   1.764 -0.4242  1.0919  0.0449
  155MOL    H9040438   5.101   5.130   1.482  0.7451 -3.8820 -1.3272
  155MOL    H9140439   5.250   5.208   1.528 -2.8011  2.3253 -0.1356
  155MOL    H9240440   5.222   5.024   1.557  0.0426 -0.0696  0.0977
  155MOL    C9340441   4.848   5.364   1.794  0.3747 -0.1610 -1.1026
  155MOL    C9440442   4.756   5.241   1.769 -0.4497 -0.4107  0.4201
  155MOL    O9540443   4.626   5.298   1.748 -0.0650  0.4069  0.3233
  155MOL    C9640444   4.603   5.335   1.613  0.3018  0.2604  0.1116
  155MOL    C9740445   4.456   5.373   1.600 -0.4352  0.2743  0.3567
  155MOL    H9840446   4.858   5.434   1.711 -0.7991  0.0480 -1.0888
  155MOL    H9940447   4.807   5.417   1.881  0.5688 -1.4854 -0.1979
  155MOL   H10040448   4.789   5.186   1.682 -0.2339 -2.5118  1.7907
  155MOL   H10140449   4.621   5.247   1.550  1.1227 -1.1180  2.2204
  155MOL   H10240450   4.670   5.413   1.578  0.1674  0.0602 -0.6055
  155MOL   H10340451   4.428   5.421   1.694  0.3375  1.1275  0.1609
  155MOL   H10440452   4.444   5.446   1.520  1.2209  0.2375  0.0386
  155MOL   H10540453   4.398   5.284   1.580  0.5337 -0.8153  2.2071
  155MOL   C10640454   4.736   5.154   1.904 -0.2057  0.0938 -0.3024
  155MOL   C10740455   4.747   5.006   1.882 -0.2857  0.7915  0.3376
  155MOL   O10840456   4.880   4.971   1.863 -0.5332  0.2540 -0.3586
  155MOL   C10940457   4.972   4.961   1.966  0.2575  0.5724 -0.0321
  155MOL   C11040458   5.025   4.820   1.968  0.1788  1.2377 -0.4131
  155MOL   H11140459   4.638   5.173   1.947 -0.4665 -1.5115 -0.1723
  155MOL   H11240460   4.798   5.184   1.988  0.9894  0.5575 -1.3298
  155MOL   H11340461   4.708   4.952   1.968 -0.1437  0.6002  0.2838
  155MOL   H11440462   4.934   4.983   2.066  1.2148 -1.9481  0.9453
  155MOL   H11540463   5.062   5.021   1.953  0.7721  0.4278  2.5686
  155MOL   H11640464   5.067   4.782   1.875  2.2571 -0.6093  1.2380
  155MOL   H11740465   5.082   4.800   2.058 -3.3162 -1.2116  1.3435
  155MOL   H11840466   4.940   4.752   1.961  0.5357  0.7462  0.0574
  155MOL   C11940467   4.671   4.963   1.743 -0.4163 -0.4367 -0.5821
  155MOL   C12040468   4.640   4.808   1.747  0.4391  0.2579 -0.1912
  155MOL   O12140469   4.639   4.779   1.609 -0.0360  0.4737 -0.5738
  155MOL   C12240470   4.708   4.664   1.564 -0.4869  0.4465  0.3911
  155MOL   C12340471   4.661   4.648   1.419 -0.0389  0.1832 -0.1045
  155MOL   H12440472   4.734   4.984   1.657 -0.3957  0.9838 -0.2426
  155MOL   H12540473   4.575   5.014   1.731 -0.8825 -1.1681 -0.0115
  155MOL   H12640474   4.719   4.755   1.802 -0.8436 -0.1487  1.3125
  155MOL   H12740475   4.670   4.584   1.627 -3.0687  0.5070 -1.0353
  155MOL   H12840476   4.815   4.675   1.580 -0.2880 -1.0216  0.0958
  155MOL   H12940477   4.553   4.633   1.412  0.1380 -1.9669  1.1680
  155MOL   H13040478   4.686   4.738   1.364  0.6441  0.2021  0.2271
  155MOL   H13140479   4.699   4.553   1.380 -1.6060 -1.1112  1.4370
  155MOL   C13240480   4.499   4.766   1.802  0.6439  0.2540 -0.0641
  155MOL   C13340481   4.470   4.776   1.958  0.0514  1.1554  0.5529
  155MOL   O13440482   4.579   4.702   2.017  0.1937 -0.6942  0.7074
  155MOL   C13540483   4.607   4.742   2.150 -0.8209  0.2539  0.0959
  155MOL   C13640484   4.719   4.654   2.199 -0.0025 -0.8424  0.0174
  155MOL   H13740485   4.489   4.660   1.781  1.0045 -0.2640  2.1916
  155MOL   H13840486   4.421   4.819   1.747  0.7982 -0.2334 -0.7536
  155MOL   H13940487   4.474   4.876   2.002 -1.8279  0.8891  1.3691
  155MOL   H14040488   4.517   4.725   2.210 -0.9068  1.4596  0.3295
  155MOL   H14140489   4.641   4.845   2.150  1.1506 -0.3506  2.6295
  155MOL   H14240490   4.748   4.694   2.296 -1.8473  0.8391 -0.0743
  155MOL   H14340491   4.707   4.546   2.200 -2.3897 -0.6087  0.0063
  155MOL   H14440492   4.806   4.668   2.135 -0.3976  0.3996 -0.2750
  155MOL   C14540493   4.328   4.732   2.002  0.1615 -0.9993  0.0897
  155MOL   C14640494   4.204   4.817   1.958  0.5560 -0.7844  0.1311
  155MOL   O14740495   4.241   4.952   1.992  0.0616 -0.3360  0.2203
  155MOL   C14840496   4.256   5.027   1.882 -0.1005  0.1503  0.3153
  155MOL   C14940497   4.303   5.159   1.934  0.7044  0.0649 -0.1636
  155MOL   H15040498   4.327   4.720   2.111  0.7698 -0.2443  0.1887
  155MOL   H15140499   4.293   4.634   1.968 -0.8226 -0.6254  0.0359
  155MOL   H15240500   4.186   4.799   1.852  0.5092 -2.0842  0.3511
  155MOL   H15340501   4.159   5.029   1.832  0.4059 -0.7900 -0.7296
  155MOL   H15440502   4.332   4.984   1.816  0.5255 -0.8525  1.6762
  155MOL   H15540503   4.300   5.227   1.849 -0.3531  0.1549 -0.0524
  155MOL   H15640504   4.240   5.203   2.011  1.3058 -1.9450  1.5427
  155MOL   H15740505   4.400   5.138   1.979  0.6820  0.9464  0.2954
  155MOL   C15840506   4.071   4.778   2.025 -0.2726 -0.2499 -0.5745
  155MOL   C15940507   4.018   4.643   1.989  0.3345 -0.5160  0.1324
  155MOL   O16040508   3.995   4.642   1.852  0.3798  0.9105  0.1689
  155MOL   C16140509   3.986   4.512   1.790  0.1747 -0.5754  1.1398
  155MOL   C16240510   3.993   4.512   1.633 -0.0697  0.1778  0.5350
  155MOL   H16340511   3.998   4.859   2.018 -1.3899 -1.2440 -0.5081
  155MOL   H16440512   4.098   4.757   2.128 -1.4845 -3.9786 -0.9605
  155MOL   H16540513   4.092   4.570   2.023  0.5961  0.0893  0.8787
  155MOL   H16640514   3.888   4.474   1.821 -0.6714  0.4612 -0.2014
  155MOL   H16740515   4.065   4.454   1.838  0.7106 -2.6293 -2.0775
  155MOL   H16840516   3.918   4.579   1.591 -0.1948 -0.4120 -0.1869
  155MOL   H16940517   4.089   4.557   1.606  0.1681  0.9918  2.5879
  155MOL   H17040518   3.976   4.416   1.586 -2.8712  2.6282 -3.7505
  155MOL   C17140519   3.885   4.614   2.065 -0.4869  0.0372  0.9514
  155MOL   C17240520   3.900   4.571   2.216 -0.1639  0.4185 -0.1388
  155MOL   O17340521   3.950   4.441   2.217  0.0865  0.3569  0.2466
  155MOL   C17440522   4.016   4.394   2.336 -0.3383 -0.4787  0.1661
  155MOL   C17540523   4.170   4.428   2.330  0.3563 -0.4372 -0.2323
  155MOL   H17640524   3.842   4.522   2.023 -0.4135  0.8112 -0.8467
  155MOL   H17740525   3.820   4.700   2.051 -2.1743 -1.1445  1.2327
  155MOL   H17840526   3.969   4.639   2.267  2.3967 -0.0015 -2.9695
  155MOL   H17940527   3.997   4.287   2.340 -0.3370 -0.4716  0.3738
  155MOL   H18040528   3.961   4.432   2.422  0.2757 -1.1055  0.8432
  155MOL   H18140529   4.170   4.537   2.324 -1.2986 -0.4442 -0.7447
  155MOL   H18240530   4.215   4.393   2.423  1.7947  0.2366 -0.6599
  155MOL   H18340531   4.217   4.391   2.240 -0.1257 -0.7942 -0.3405
  155MOL   C18440532   3.765   4.571   2.285  0.1496  0.0654 -0.0644
  155MOL   C18540533   3.705   4.709   2.326 -0.3309 -0.6503  0.1322
  155MOL   O18640534   3.780   4.774   2.425  0.4462 -0.2408  0.3165
  155MOL   C18740535   3.788   4.909   2.420 -0.5838  0.9724 -0.3400
  155MOL   C18840536   3.841   4.971   2.550  0.0953 -0.1396 -0.4078
  155MOL   H18940537   3.760   4.515   2.378 -0.6431 -1.3700 -0.9310
  155MOL   H19040538   3.698   4.521   2.214  0.4302 -0.0041 -0.2785
  155MOL   H19140539   3.723   4.774   2.240  0.2685 -2.3985 -1.0878
  155MOL   H19240540   3.687   4.952   2.412 -1.5864 -1.2763 -0.0361
  155MOL   H19340541   3.852   4.935   2.336 -0.4977 -0.3269 -0.6866
  155MOL   H19440542   3.936   4.922   2.573 -0.5599 -0.6503  1.2590
  155MOL   H19540543   3.863   5.077   2.552  0.1707 -0.1525 -0.5213
  155MOL   H19640544   3.781   4.948   2.638  1.0829 -1.1599  0.0179
  155MOL   C19740545   3.556   4.698   2.361  0.0360  0.0992  0.0860
  155MOL   C19840546   3.465   4.679   2.238  0.9018 -0.6049 -0.3228
  155MOL   O19940547   3.487   4.804   2.174  0.1423 -0.2549 -0.0309
  155MOL   C20040548   3.453   4.827   2.039 -0.3199  0.6069 -0.3197
  155MOL   C20140549   3.556   4.926   1.974 -0.2462  0.6695  0.7281
  155MOL   H20240550   3.519   4.791   2.405 -3.2490 -0.3979 -1.5228
  155MOL   H20340551   3.545   4.622   2.438  0.3084  0.6773  0.6987
  155MOL   H20440552   3.509   4.602   2.174  1.1726 -0.0067 -0.8581
  155MOL   H20540553   3.359   4.882   2.033 -1.5640 -1.3846  0.2517
  155MOL   H20640554   3.447   4.742   1.970 -1.8221 -0.1185  0.6675
  155MOL   H20740555   3.654   4.879   1.965  0.2471  1.8691 -0.2276
  155MOL   H20840556   3.526   4.966   1.877  1.5570  2.4598  0.8994
  155MOL   H20940557   3.573   5.010   2.041  0.5183 -1.1717  2.9431
  155MOL   C21040558   3.313   4.660   2.271  0.1068  0.0195 -0.0207
  155MOL   C21140559   3.280   4.516   2.332 -0.0290 -0.4457  1.1552
  155MOL   O21240560   3.338   4.427   2.246  0.0736 -0.1099  0.4703
  155MOL   C21340561   3.440   4.348   2.305 -0.3967 -0.4928  0.2800
  155MOL   C21440562   3.510   4.260   2.195 -0.0421 -1.3428 -0.6015
  155MOL   H21540563   3.264   4.662   2.174 -2.3290  0.3638  1.1637
  155MOL   H21640564   3.267   4.732   2.338 -0.8346 -1.5429  1.0530
  155MOL   H21740565   3.319   4.506   2.433 -1.3226 -2.2082  1.4964
  155MOL   H21840566   3.387   4.278   2.369  0.5657  1.4399  3.2929
  155MOL   H21940567   3.515   4.405   2.360 -0.9143 -0.6084  1.1137
  155MOL   H22040568   3.439   4.213   2.128 -0.5754  0.1296 -1.1063
  155MOL   H22140569   3.564   4.328   2.129 -1.2839 -0.4124 -0.6936
  155MOL   H22240570   3.570   4.174   2.223 -0.7409 -2.0869 -1.3722
  155MOL   C22340571   3.128   4.499   2.352  0.2087 -0.7920  0.3191
  155MOL   C22440572   3.068   4.592   2.466  0.0919  0.1773  0.6868
  155MOL   O22540573   3.105   4.543   2.595  0.2586 -0.6098  0.1130
  155MOL   C22640574   3.191   4.628   2.671 -0.4555 -0.1974 -0.2681
  155MOL   C22740575   3.188   4.578   2.813  1.0217 -0.5472  1.0331
  155MOL   H22840576   3.129   4.401   2.399  2.1298  0.2835  2.6012
  155MOL   H22940577   3.064   4.484   2.264 -0.3118  1.2058  0.3298
  155MOL   H23040578   3.085   4.698   2.445 -1.5974  1.0069  3.2398
  155MOL   H23140579   3.170   4.735   2.671  1.8793  0.2806 -0.1511
  155MOL   H23240580   3.292   4.630   2.631 -1.5333 -1.0377 -3.1525
  155MOL   H23340581   3.255   4.644   2.869  2.6714 -0.0458 -1.4160
  155MOL   H23440582   3.085   4.575   2.848  0.4049 -0.3800 -0.7281
  155MOL   H23540583   3.226   4.476   2.823  1.4359 -0.5136 -0.1356
  155MOL   C23640584   2.910   4.581   2.469 -0.4298  0.2538  0.0378
  155MOL   C23740585   2.838   4.690   2.553 -0.2948  0.5482 -0.0077
  155MOL   O23840586   2.697   4.675   2.550  0.2343 -0.2750  0.1058
  155MOL   C23940587   2.651   4.573   2.637 -0.0193 -0.4700  0.1796
  155MOL   C24040588   2.504   4.569   2.642  0.4637 -0.1492 -0.4515
  155MOL   H24140589   2.873   4.485   2.503  1.8974  0.4868  3.3778
  155MOL   H24240590   2.855   4.579   2.374 -0.8848 -0.1343  0.3074
  155MOL   H24340591   2.879   4.671   2.652  0.6607 -0.2040 -0.5268
  155MOL   H24440592   2.683   4.575   2.741  1.0534  1.7787 -0.1769
  155MOL   H24540593   2.695   4.478   2.605  0.2190  0.0304 -1.0149
  155MOL   H24640594   2.476   4.660   2.695 -1.5461  1.2396 -3.7365
  155MOL   H24740595   2.450   4.551   2.549  0.8851  1.0376 -0.9295
  155MOL   H24840596   2.471   4.481   2.698 -1.1735  0.5470 -0.2872
  155MOL   C24940597   2.867   4.835   2.514 -0.0626  0.0292 -0.0009
  155MOL   C25040598   2.817   4.934   2.619 -0.6024 -0.1307  0.2705
  155MOL   O25140599   2.907   5.046   2.611 -0.3808  0.2317  0.3822
  155MOL   C25240600   2.886   5.136   2.715 -0.2889  0.3566 -0.0280
  155MOL   C25340601   2.954   5.080   2.846 -0.6327 -0.6792 -0.2928
  155MOL   H25440602   2.824   4.865   2.418 -1.0814  1.4657  0.8798
  155MOL   H25540603   2.976   4.838   2.515 -0.0194 -1.5160  2.1591
  155MOL   H25640604   2.711   4.955   2.605 -1.1927 -2.1125  1.5375
  155MOL   H25740605   2.780   5.147   2.735 -0.2981  1.5937 -0.7156
  155MOL   H25840606   2.931   5.230   2.684 -1.3372  1.0314  0.4892
  155MOL   H25940607   2.965   5.168   2.910 -0.3404 -1.6059  0.9528
  155MOL   H26040608   2.895   4.999   2.888 -3.7282  1.9775  0.7507
  155MOL   H26140609   3.055   5.059   2.811 -0.0559 -1.0102  1.5035
  155MOL   H26240610   2.822   4.891   2.719  1.4734 -0.2033  0.1591
  156MOL     C140611   1.623   4.519   3.953 -0.5116  0.0418 -0.4501
  156MOL     C240612   1.722   4.428   3.869  0.2732  0.1148  0.1610
  156MOL     O340613   1.737   4.300   3.924 -0.1449 -0.4571  0.0841
  156MOL     C440614   1.639   4.199   3.902  0.3849 -0.1679  0.4887
  156MOL     C540615   1.684   4.064   3.960 -0.0864  0.4489 -0.4035
  156MOL     H640616   1.605   4.612   3.900 -1.1587  0.6379  0.8122
  156MOL     H740617   1.530   4.471   3.985 -0.4216 -1.4511 -2.2852
  156MOL     H840618   1.675   4.417   3.771 -0.3985  0.7315  0.4078
  156MOL     H940619   1.633   4.188   3.793  1.0781  0.4375  0.3879
  156MOL    H1040620   1.541   4.239   3.930  0.1893 -0.9106  0.8649
  156MOL    H1140621   1.767   4.026   3.900  1.3865  0.9300  1.2604
  156MOL    H1240622   1.714   4.083   4.063 -2.0065  3.6214 -0.3402
  156MOL    H1340623   1.604   3.991   3.964  0.7627 -0.4421  0.4856
  156MOL    H1440624   1.682   4.548   4.039 -0.1038 -1.5015 -0.1812
  156MOL    C1540625   1.861   4.496   3.867 -0.1729  0.9230  0.5672
  156MOL    C1640626   1.967   4.414   3.792  0.7472 -0.1173  0.0584
  156MOL    O1740627   2.105   4.457   3.811 -0.0971 -0.3142 -0.3149
  156MOL    C1840628   2.155   4.433   3.944  0.6625  0.0578  0.1450
  156MOL    C1940629   2.311   4.464   3.959 -0.1863 -0.4668 -0.9512
  156MOL    H2040630   1.888   4.508   3.971  0.1510  1.9005  0.3762
  156MOL    H2140631   1.852   4.598   3.828 -0.1213  0.5357 -0.4809
  156MOL    H2240632   1.963   4.318   3.844 -0.2066  1.5244  3.1282
  156MOL    H2340633   2.142   4.326   3.963 -4.4938  0.8138  1.4798
  156MOL    H2440634   2.096   4.496   4.010  0.2177 -0.0119 -0.1857
  156MOL    H2540635   2.366   4.404   3.887  0.1724  0.1622 -1.1990
  156MOL    H2640636   2.353   4.448   4.058  1.0363  2.3434 -0.9800
  156MOL    H2740637   2.330   4.570   3.948 -0.8354 -0.2918 -0.4356
  156MOL    C2840638   1.930   4.394   3.638  0.4875 -0.5333  0.0256
  156MOL    C2940639   2.032   4.329   3.551  0.8145  0.0076  0.6553
  156MOL    O3040640   1.980   4.300   3.421 -0.3040  0.3452  0.1758
  156MOL    C3140641   1.998   4.401   3.328 -0.7408 -0.0617  0.1562
  156MOL    C3240642   1.886   4.408   3.223 -0.3181  0.1060 -0.6958
  156MOL    H3340643   1.910   4.489   3.589  1.6472 -1.3421 -2.0680
  156MOL    H3440644   1.841   4.332   3.626  1.6603 -2.2281 -0.0475
  156MOL    H3540645   2.120   4.393   3.544 -0.6446  1.8902 -1.1490
  156MOL    H3640646   2.091   4.387   3.274 -0.4942 -0.7461  0.7528
  156MOL    H3740647   1.988   4.497   3.380 -1.3984  0.7804 -1.4743
  156MOL    H3840648   1.855   4.307   3.195  2.4943 -1.0314  0.0975
  156MOL    H3940649   1.794   4.454   3.259 -1.1917 -0.5768 -2.0266
  156MOL    H4040650   1.921   4.470   3.141  0.4161  1.9279  0.9360
  156MOL    C4140651   2.090   4.194   3.613 -0.3081  0.1429  0.1630
  156MOL    C4240652   2.237   4.183   3.573 -0.2579 -0.2248 -0.0339
  156MOL    O4340653   2.243   4.168   3.433  0.0318  0.5954 -0.0874
  156MOL    C4440654   2.355   4.239   3.374  0.6763 -0.0987  0.6942
  156MOL    C4540655   2.387   4.197   3.231  0.0789  0.0539  0.6514
  156MOL    H4640656   2.039   4.105   3.574 -0.1128  0.5923 -1.1472
  156MOL    H4740657   2.078   4.182   3.720 -0.6005 -0.8214  0.0275
  156MOL    H4840658   2.292   4.271   3.604 -3.6578  1.5935  0.9680
  156MOL    H4940659   2.437   4.202   3.435  0.3377 -2.6453 -0.3236
  156MOL    H5040660   2.328   4.343   3.390  0.7189  0.1031 -0.4776
  156MOL    H5140661   2.297   4.175   3.173  0.7316  0.5812 -0.5929
  156MOL    H5240662   2.445   4.262   3.165 -1.6479 -0.1240 -1.0940
  156MOL    H5340663   2.440   4.102   3.235  1.1375  0.6958  2.4496
  156MOL    C5440664   2.299   4.050   3.640  0.5912  0.0568  0.3205
  156MOL    C5540665   2.449   4.037   3.659  0.0186 -0.6559  0.1842
  156MOL    O5640666   2.485   3.909   3.716 -0.1282  0.0679  0.4487
  156MOL    C5740667   2.517   3.815   3.613 -0.2895 -0.3251 -0.2701
  156MOL    C5840668   2.649   3.826   3.547 -0.4553  0.3458  0.2742
  156MOL    H5940669   2.240   3.971   3.594  0.2226  0.8312 -0.5534
  156MOL    H6040670   2.261   4.053   3.742  0.9984 -1.1997  0.5163
  156MOL    H6140671   2.491   4.043   3.559  0.6684  0.5654  0.5237
  156MOL    H6240672   2.440   3.811   3.536 -0.6109 -2.4140  0.1476
  156MOL    H6340673   2.521   3.719   3.663 -1.1036 -0.2023  0.0464
  156MOL    H6440674   2.731   3.793   3.610 -0.0830  0.9031  0.0794
  156MOL    H6540675   2.650   3.773   3.451 -1.3756  1.0913 -0.1577
  156MOL    H6640676   2.653   3.931   3.517  0.1649  0.9423  2.4245
  156MOL    C6740677   2.496   4.147   3.754 -0.5763  0.2389 -0.5364
  156MOL    C6840678   2.653   4.157   3.769  0.5721  0.6740 -0.3144
  156MOL    O6940679   2.681   4.221   3.893 -0.4465  0.3637  0.0045
  156MOL    C7040680   2.661   4.144   4.008 -0.1112 -0.1513  0.7874
  156MOL    C7140681   2.574   4.220   4.106  0.2624 -0.7057  0.6035
  156MOL    H7240682   2.453   4.110   3.847 -1.4723  0.2556 -0.9382
  156MOL    H7340683   2.447   4.244   3.756 -1.7788 -0.3734  0.3658
  156MOL    H7440684   2.693   4.056   3.774 -1.8299 -0.2737  0.4686
  156MOL    H7540685   2.757   4.117   4.051 -0.0206 -2.1271 -0.5911
  156MOL    H7640686   2.614   4.049   3.985  1.0273 -1.2139  2.7600
  156MOL    H7740687   2.537   4.146   4.178 -0.3998 -1.8134 -0.8408
  156MOL    H7840688   2.626   4.301   4.156 -1.8729  0.6824  0.6322
  156MOL    H7940689   2.490   4.271   4.059  0.3694 -0.4094  0.7374
  156MOL    C8040690   2.718   4.216   3.648 -0.6109 -0.3010  0.1579
  156MOL    C8140691   2.857   4.275   3.669 -0.8459  0.6177 -0.4769
  156MOL    O8240692   2.882   4.354   3.560  0.2025 -0.2873  0.9369
  156MOL    C8340693   2.956   4.474   3.578  0.1476  0.2062  0.3281
  156MOL    C8440694   2.960   4.553   3.444 -0.0391 -0.8076  0.5636
  156MOL    H8540695   2.652   4.292   3.605  0.7642  0.1888 -1.1432
  156MOL    H8640696   2.738   4.144   3.568 -0.1222 -0.7174  0.6501
  156MOL    H8740697   2.860   4.347   3.751  0.4155  0.7520 -0.6321
  156MOL    H8840698   3.056   4.449   3.613 -0.6371 -1.1088  1.6964
  156MOL    H8940699   2.914   4.533   3.660  1.6388 -1.6148  2.4621
  156MOL    H9040700   3.020   4.503   3.368 -0.6893  0.3989 -0.7477
  156MOL    H9140701   2.856   4.562   3.412 -0.5204 -0.8276  2.0651
  156MOL    H9240702   3.003   4.650   3.469 -0.5522 -0.1320 -1.1599
  156MOL    C9340703   2.972   4.183   3.715  0.0652  1.0032  0.3407
  156MOL    C9440704   3.011   4.072   3.604 -0.6692 -0.5768 -0.4171
  156MOL    O9540705   3.091   3.975   3.670  0.2459  0.7293 -0.1770
  156MOL    C9640706   3.016   3.854   3.705 -0.1538 -0.6009  0.5195
  156MOL    C9740707   3.121   3.740   3.729 -0.9783  1.2339 -0.3168
  156MOL    H9840708   2.939   4.132   3.805 -0.2631  2.9735  1.3603
  156MOL    H9940709   3.054   4.250   3.740  1.1482 -0.1468 -0.0858
  156MOL   H10040710   2.923   4.017   3.570 -1.1119 -1.4222  1.9528
  156MOL   H10140711   2.947   3.812   3.632  1.9536 -0.5630 -1.5400
  156MOL   H10240712   2.962   3.867   3.799 -0.2363 -1.0695  0.5380
  156MOL   H10340713   3.159   3.696   3.637 -2.0289 -0.8524  0.2032
  156MOL   H10440714   3.203   3.773   3.793 -1.6509  1.8323  0.2503
  156MOL   H10540715   3.072   3.649   3.764  0.4238  0.2299 -0.9499
  156MOL   C10640716   3.094   4.130   3.486 -0.0619  0.3521 -0.2045
  156MOL   C10740717   3.114   4.029   3.369  0.2915 -0.8065  0.3186
  156MOL   O10840718   2.992   3.968   3.323  0.6857  0.2058 -0.4241
  156MOL   C10940719   2.898   4.066   3.268  0.4119  0.6458 -0.0506
  156MOL   C11040720   2.788   3.989   3.204 -0.2293  0.0163  0.5300
  156MOL   H11140721   3.189   4.170   3.521  1.6730 -3.4896 -0.2934
  156MOL   H11240722   3.035   4.217   3.457  2.0018  0.7117 -3.5694
  156MOL   H11340723   3.153   4.094   3.291 -0.3587  0.4092  0.9885
  156MOL   H11440724   2.953   4.112   3.186  1.0877 -0.0701 -0.0157
  156MOL   H11540725   2.865   4.132   3.348 -1.5719 -1.7682  1.2119
  156MOL   H11640726   2.698   4.049   3.196  0.9060  1.4881 -1.8674
  156MOL   H11740727   2.828   3.954   3.109 -3.2926 -1.0434 -0.3894
  156MOL   H11840728   2.753   3.900   3.256  0.5705 -0.2547  0.6172
  156MOL   C11940729   3.236   3.930   3.382 -0.0714 -0.6961 -0.4877
  156MOL   C12040730   3.285   3.863   3.251  0.7213  0.5880  0.0868
  156MOL   O12140731   3.377   3.764   3.289  0.4543 -0.3452 -0.7620
  156MOL   C12240732   3.316   3.633   3.301  0.4078 -0.0948  0.1634
  156MOL   C12340733   3.414   3.537   3.358 -0.4090  0.3088  0.5990
  156MOL   H12440734   3.205   3.858   3.457  4.2944 -0.4577  1.6959
  156MOL   H12540735   3.320   3.982   3.428 -0.7507  0.0339 -0.0402
  156MOL   H12640736   3.196   3.826   3.201 -0.4910 -0.1701  2.7535
  156MOL   H12740737   3.279   3.606   3.202  1.4520 -1.8367  0.2224
  156MOL   H12840738   3.239   3.646   3.377  0.6777 -1.7287  0.7524
  156MOL   H12940739   3.480   3.586   3.429  1.6469 -0.6896 -0.5693
  156MOL   H13040740   3.362   3.453   3.404 -1.2068  1.9273  2.7063
  156MOL   H13140741   3.471   3.492   3.277 -1.0563 -0.8845  0.7966
  156MOL   C13240742   3.372   3.953   3.155 -0.0501 -0.5726  0.0693
  156MOL   C13340743   3.451   3.872   3.048 -0.0049 -0.3727  0.2935
  156MOL   O13440744   3.540   3.966   2.984 -0.4250  0.2917 -0.1069
  156MOL   C13540745   3.673   3.944   3.019 -0.2968  0.2611 -0.3681
  156MOL   C13640746   3.762   4.054   2.960 -0.3969  0.1161  0.6130
  156MOL   H13740747   3.445   3.994   3.225  0.6844 -0.3221 -0.8409
  156MOL   H13840748   3.316   4.039   3.118  0.1614 -1.2606 -1.8682
  156MOL   H13940749   3.498   3.793   3.106 -0.7484 -1.3475 -0.4227
  156MOL   H14040750   3.715   3.848   2.991  0.3159  0.9234 -1.7715
  156MOL   H14140751   3.678   3.955   3.127  1.9425 -2.3958 -0.1424
  156MOL   H14240752   3.749   4.023   2.857  0.7575  1.7744 -0.0537
  156MOL   H14340753   3.725   4.153   2.989 -1.8389 -0.6589  1.4413
  156MOL   H14440754   3.869   4.041   2.981 -0.3439 -0.3086  0.0903
  156MOL   C14540755   3.376   3.823   2.927  0.3427  0.5951 -0.0308
  156MOL   C14640756   3.441   3.690   2.867 -1.1101 -0.1207 -0.0337
  156MOL   O14740757   3.379   3.672   2.736  0.0037 -0.2894 -0.2969
  156MOL   C14840758   3.437   3.754   2.638  0.5743  0.1687 -0.3788
  156MOL   C14940759   3.334   3.740   2.529  0.4213  0.0520  0.7609
  156MOL   H15040760   3.369   3.901   2.850 -0.2651 -1.0804 -1.7028
  156MOL   H15140761   3.273   3.798   2.951  0.0979  0.9125 -0.7313
  156MOL   H15240762   3.546   3.716   2.855 -1.6367  1.9919 -0.2811
  156MOL   H15340763   3.535   3.726   2.599  0.1509 -0.5895 -0.9138
  156MOL   H15440764   3.447   3.860   2.663 -1.5904 -0.0447  1.5759
  156MOL   H15540765   3.235   3.742   2.576 -0.0517 -0.8479 -0.1730
  156MOL   H15640766   3.333   3.826   2.462 -0.8555 -1.3218 -1.0241
  156MOL   H15740767   3.354   3.652   2.469  1.0375 -0.5259  1.8002
  156MOL   C15840768   3.412   3.561   2.954 -0.0758 -0.3885  0.3011
  156MOL   C15940769   3.475   3.440   2.890 -0.6819 -0.0351  0.5674
  156MOL   O16040770   3.405   3.336   2.955  0.2947  0.2415 -0.0478
  156MOL   C16140771   3.284   3.295   2.892  0.1475 -0.0740 -0.6104
  156MOL   C16240772   3.185   3.248   2.998 -0.0318 -0.0982 -0.2634
  156MOL   H16340773   3.306   3.538   2.961 -0.1537 -0.1656 -0.1611
  156MOL   H16440774   3.454   3.577   3.054  1.9315  1.1835 -0.7570
  156MOL   H16540775   3.462   3.434   2.782  2.2834  2.0321  0.0282
  156MOL   H16640776   3.301   3.218   2.816 -2.8220  0.4797 -1.8957
  156MOL   H16740777   3.239   3.379   2.839 -0.9188  0.6429  1.3885
  156MOL   H16840778   3.091   3.224   2.948  0.1768  0.1132 -0.7617
  156MOL   H16940779   3.222   3.162   3.053 -0.4983 -0.5887 -0.7186
  156MOL   H17040780   3.159   3.320   3.075  1.3561 -0.1443  0.2628
  156MOL   C17140781   3.628   3.436   2.920 -0.0363 -0.6454  0.5833
  156MOL   C17240782   3.692   3.298   2.882  0.7275  0.2807  0.1354
  156MOL   O17340783   3.823   3.278   2.927 -0.4511 -0.1490 -0.6101
  156MOL   C17440784   3.854   3.199   3.041 -0.1730  0.5949  0.4501
  156MOL   C17540785   3.799   3.244   3.174 -0.5498  0.1621 -0.1227
  156MOL   H17640786   3.666   3.453   3.021  0.4947  2.6943 -0.1180
  156MOL   H17740787   3.678   3.508   2.855 -1.0275 -0.3489  0.1498
  156MOL   H17840788   3.639   3.213   2.926  0.7669  0.2704  0.1623
  156MOL   H17940789   3.960   3.184   3.061  0.4185  1.5305 -1.8987
  156MOL   H18040790   3.809   3.102   3.022  1.5466  0.3226 -2.5440
  156MOL   H18140791   3.692   3.261   3.181 -0.4529 -0.1845  3.0362
  156MOL   H18240792   3.814   3.173   3.255  1.6359 -1.4215 -1.8558
  156MOL   H18340793   3.860   3.332   3.198  0.7057 -0.3437 -1.4131
  156MOL   C18440794   3.699   3.283   2.725  0.4493  0.0901  0.1413
  156MOL   C18540795   3.766   3.151   2.678  0.6924  0.7942 -0.2484
  156MOL   O18640796   3.784   3.145   2.534 -0.6254 -0.1757  0.4601
  156MOL   C18740797   3.905   3.195   2.468 -0.1427  0.4344  0.0392
  156MOL   C18840798   3.906   3.182   2.314 -0.3171 -0.6193  0.0104
  156MOL   H18940799   3.753   3.370   2.687  0.7860  0.7248  2.0372
  156MOL   H19040800   3.602   3.303   2.679  1.2219  0.2598 -1.4742
  156MOL   H19140801   3.869   3.150   2.715  0.7736  0.3380 -0.4928
  156MOL   H19240802   3.989   3.139   2.511  1.7046  1.2291 -2.4260
  156MOL   H19340803   3.930   3.297   2.496 -1.2741  1.2225 -1.7521
  156MOL   H19440804   3.998   3.223   2.273 -0.3829 -0.9744 -0.4981
  156MOL   H19540805   3.897   3.081   2.275  0.3823 -1.0266  0.9086
  156MOL   H19640806   3.818   3.238   2.280  0.8936  1.3606  0.0529
  156MOL   C19740807   3.704   3.019   2.724 -0.0762  0.5572  0.3364
  156MOL   C19840808   3.553   2.998   2.726 -0.5782 -0.0108  0.2117
  156MOL   O19940809   3.512   2.902   2.820  0.1684  0.8042  0.1003
  156MOL   C20040810   3.483   2.941   2.952 -0.4422 -0.1745  0.6093
  156MOL   C20140811   3.448   2.810   3.017  0.2628  0.2773 -0.3121
  156MOL   H20240812   3.745   3.010   2.824  0.3426 -2.3658 -0.0582
  156MOL   H20340813   3.748   2.935   2.670  0.0318  0.4897  0.5289
  156MOL   H20440814   3.502   3.093   2.745  2.7593  1.7535  0.8276
  156MOL   H20540815   3.403   3.015   2.957 -0.4530 -0.1117 -0.4170
  156MOL   H20640816   3.572   2.984   2.997 -0.5706  2.8601 -1.8346
  156MOL   H20740817   3.419   2.822   3.121 -2.3805  1.5760 -1.1631
  156MOL   H20840818   3.354   2.771   2.977 -0.8595  1.3712  1.2199
  156MOL   H20940819   3.528   2.736   3.010  0.5205  0.5072  0.2412
  156MOL   C21040820   3.502   2.940   2.587  0.0655  0.0331  0.6866
  156MOL   C21140821   3.370   2.987   2.546  0.1610 -0.6883  0.3833
  156MOL   O21240822   3.386   3.124   2.526 -0.4885  0.1045 -0.6449
  156MOL   C21340823   3.423   3.157   2.398 -0.1723 -0.6065 -0.0014
  156MOL   C21440824   3.410   3.313   2.380 -0.8180  0.2218  0.1464
  156MOL   H21540825   3.511   2.831   2.590  2.3593  0.1526 -0.9476
  156MOL   H21640826   3.574   2.968   2.511 -1.4914 -0.6750 -1.0975
  156MOL   H21740827   3.338   2.934   2.457 -2.3793  1.7838 -0.2482
  156MOL   H21840828   3.364   3.100   2.326 -1.2413  0.8391 -0.2791
  156MOL   H21940829   3.524   3.127   2.370 -0.6062 -1.4882 -0.6608
  156MOL   H22040830   3.499   3.349   2.433 -1.0569 -1.1095  1.4958
  156MOL   H22140831   3.407   3.354   2.280  1.2203  1.9395  0.7521
  156MOL   H22240832   3.319   3.342   2.432 -1.7188  0.9379 -1.7940
  156MOL   C22340833   3.262   2.954   2.655 -0.2346  0.4128 -0.9151
  156MOL   C22440834   3.119   2.988   2.612  0.8542 -0.3005  0.1230
  156MOL   O22540835   3.110   3.131   2.611 -0.0353 -0.1287 -0.1621
  156MOL   C22640836   3.016   3.183   2.518 -0.7411 -0.3402  0.6025
  156MOL   C22740837   2.993   3.333   2.543 -0.3466 -0.2118 -0.1604
  156MOL   H22840838   3.288   2.996   2.752  0.7669 -3.1931  0.4402
  156MOL   H22940839   3.258   2.846   2.664  2.0012  0.1704 -2.3769
  156MOL   H23040840   3.100   2.941   2.516  0.5266 -0.5490  0.3100
  156MOL   H23140841   2.920   3.132   2.525 -1.9051  1.6602 -0.1413
  156MOL   H23240842   3.056   3.162   2.419 -1.8777  0.6647 -0.0951
  156MOL   H23340843   2.942   3.353   2.637  1.3124  2.8560  0.1483
  156MOL   H23440844   3.086   3.390   2.553  0.1641 -1.0688  0.0338
  156MOL   H23540845   2.926   3.374   2.467  0.2058  0.9889 -0.0162
  156MOL   C23640846   3.008   2.936   2.714 -0.4084  0.2661 -0.0271
  156MOL   C23740847   3.002   2.785   2.732  0.0523  0.3354  0.4227
  156MOL   O23840848   3.005   2.715   2.608 -0.0423 -0.1498 -0.1446
  156MOL   C23940849   3.065   2.591   2.601  0.2672 -0.1337  0.1834
  156MOL   C24040850   2.998   2.526   2.480  0.3528 -0.1052  0.9946
  156MOL   H24140851   2.914   2.967   2.669 -0.0248  0.6808 -0.5500
  156MOL   H24240852   2.994   2.996   2.803 -0.7973  0.5329 -0.2659
  156MOL   H24340853   3.094   2.750   2.780  2.0944  4.0630 -0.6009
  156MOL   H24440854   3.036   2.536   2.691  2.4123  0.6251  1.3576
  156MOL   H24540855   3.173   2.597   2.591  0.3586  2.7491  2.2522
  156MOL   H24640856   3.032   2.422   2.481  0.2415 -0.1368  2.9940
  156MOL   H24740857   2.889   2.525   2.488  0.0453 -0.3743 -2.5006
  156MOL   H24840858   3.016   2.587   2.391 -0.0273 -0.5957  0.5776
  156MOL   C24940859   2.892   2.757   2.837  0.6079 -0.4385  0.3553
  156MOL   C25040860   2.748   2.759   2.776 -0.3110  0.0817  1.3140
  156MOL   O25140861   2.639   2.753   2.868  0.0042 -0.6034 -0.0310
  156MOL   C25240862   2.657   2.649   2.964 -0.1784  0.4354 -0.1136
  156MOL   C25340863   2.535   2.623   3.051  0.4412  0.2456 -0.1817
  156MOL   H25440864   2.899   2.828   2.919 -2.2138  1.2818 -0.8097
  156MOL   H25540865   2.915   2.662   2.884 -2.2251 -0.8933  0.9085
  156MOL   H25640866   2.736   2.858   2.733 -1.4170 -0.2489  0.8547
  156MOL   H25740867   2.742   2.691   3.020 -0.7350  0.7725  0.4887
  156MOL   H25840868   2.682   2.564   2.901  2.0287  0.5097  0.6146
  156MOL   H25940869   2.511   2.697   3.127 -0.7217 -1.8992  1.6045
  156MOL   H26040870   2.439   2.606   3.002  0.3194  1.8576 -0.5240
  156MOL   H26140871   2.546   2.528   3.103  1.3535  0.7784  0.6179
  156MOL   H26240872   2.731   2.694   2.690  0.0517  1.9307 -0.1863
  157MOL     C140873   2.316   1.105   1.935 -0.6882 -0.3121 -0.0527
  157MOL     C240874   2.264   0.961   1.927  0.2986  0.7204 -0.2099
  157MOL     O340875   2.372   0.876   1.967  0.7212 -0.7144  0.4118
  157MOL     C440876   2.380   0.856   2.106 -0.1209 -0.0563 -0.9391
  157MOL     C540877   2.499   0.753   2.128 -0.1644  0.1272 -0.2750
  157MOL     H640878   2.235   1.177   1.930 -0.4881  0.0287  1.4364
  157MOL     H740879   2.378   1.123   2.022 -0.5384  0.0409 -0.2327
  157MOL     H840880   2.186   0.940   2.001 -0.9790 -1.1581 -2.0291
  157MOL     H940881   2.291   0.804   2.140 -0.6091 -0.4964 -2.8061
  157MOL    H1040882   2.396   0.945   2.166  2.2997 -0.5915 -0.7176
  157MOL    H1140883   2.495   0.677   2.050 -0.4291 -1.8451  1.6092
  157MOL    H1240884   2.590   0.809   2.106  0.1936 -0.5925 -0.6512
  157MOL    H1340885   2.499   0.723   2.232  0.5047 -0.0190 -0.3144
  157MOL    H1440886   2.381   1.125   1.850  0.3964 -0.2715  0.7831
  157MOL    C1540887   2.227   0.914   1.787 -0.0207 -0.2055  0.6018
  157MOL    C1640888   2.165   0.777   1.769  0.3884 -0.0644  0.4894
  157MOL    O1740889   2.173   0.728   1.636  0.0043  0.0541  0.0901
  157MOL    C1840890   2.272   0.636   1.616 -0.3040  0.2889  0.0213
  157MOL    C1940891   2.287   0.622   1.463 -0.3560 -0.0606  0.9148
  157MOL    H2040892   2.313   0.914   1.720 -0.6408 -1.1457 -0.1951
  157MOL    H2140893   2.160   0.988   1.742 -0.4990  0.3774  2.2137
  157MOL    H2240894   2.218   0.698   1.822 -1.1182 -1.4813 -0.0700
  157MOL    H2340895   2.247   0.550   1.678 -1.5108  0.4964 -0.1752
  157MOL    H2440896   2.362   0.679   1.661 -1.4294  0.5555  2.0692
  157MOL    H2540897   2.354   0.540   1.436  2.0032  1.2350  2.6703
  157MOL    H2640898   2.339   0.712   1.433 -0.6175 -0.3374 -0.4134
  157MOL    H2740899   2.191   0.618   1.411 -0.2977  1.4672  0.6906
  157MOL    C2840900   2.009   0.771   1.797 -0.1777  0.0593  0.2090
  157MOL    C2940901   1.956   0.625   1.791 -0.4965  0.4364  0.3535
  157MOL    O3040902   1.812   0.623   1.811  0.8066  0.3765 -0.3677
  157MOL    C3140903   1.741   0.653   1.700  0.4104  0.4475  0.1952
  157MOL    C3240904   1.594   0.657   1.735  0.3494  0.7804  0.2539
  157MOL    H3340905   1.952   0.841   1.737 -0.3319  0.2164  0.5370
  157MOL    H3440906   1.988   0.798   1.900 -2.3178 -0.5269 -0.0462
  157MOL    H3540907   1.987   0.578   1.697  2.6576  2.3406  0.3930
  157MOL    H3640908   1.765   0.583   1.620  1.6484 -1.4975  2.2382
  157MOL    H3740909   1.765   0.753   1.663  0.3341  1.2559  2.2452
  157MOL    H3840910   1.559   0.555   1.744  0.2759  0.6371 -1.3837
  157MOL    H3940911   1.572   0.712   1.827 -0.4718  1.2636 -0.2184
  157MOL    H4040912   1.546   0.697   1.645 -0.0401 -0.3663 -0.0597
  157MOL    C4140913   2.010   0.529   1.892 -0.3307  0.3589  0.4255
  157MOL    C4240914   2.024   0.555   2.050  0.8953  0.2819 -0.6218
  157MOL    O4340915   2.097   0.444   2.099  0.5122  0.0238  0.3014
  157MOL    C4440916   2.232   0.473   2.123  0.1982  0.3158  0.5883
  157MOL    C4540917   2.304   0.336   2.115  0.3249 -0.5122  0.0859
  157MOL    H4640918   2.112   0.513   1.858 -0.0125  0.9783  1.1030
  157MOL    H4740919   1.964   0.431   1.879  0.5896  0.0117 -0.2615
  157MOL    H4840920   2.076   0.649   2.066 -0.4985  1.1025 -0.8774
  157MOL    H4940921   2.258   0.526   2.214  1.1300 -0.0830  0.5593
  157MOL    H5040922   2.268   0.534   2.041  0.0515 -1.2276 -0.6473
  157MOL    H5140923   2.412   0.344   2.127  0.1294  0.5577  1.3412
  157MOL    H5240924   2.258   0.273   2.191  0.4648  2.0549  2.4026
  157MOL    H5340925   2.294   0.298   2.014  0.5715  1.3764 -0.6688
  157MOL    C5440926   1.887   0.559   2.123 -0.7784 -0.1674 -0.3541
  157MOL    C5540927   1.882   0.606   2.266  0.1899 -0.2106  0.0813
  157MOL    O5640928   1.757   0.590   2.325  0.4235  0.0833 -0.0602
  157MOL    C5740929   1.699   0.460   2.347  0.4528 -0.6013  0.1285
  157MOL    C5840930   1.624   0.448   2.478  0.2125  0.0934  0.3276
  157MOL    H5940931   1.856   0.454   2.123  0.9131 -0.6801 -0.3181
  157MOL    H6040932   1.812   0.615   2.068 -1.6509 -1.5559 -0.5986
  157MOL    H6140933   1.947   0.548   2.332 -1.2631 -0.2853  1.4584
  157MOL    H6240934   1.776   0.383   2.338  0.9986 -0.3023  2.1624
  157MOL    H6340935   1.638   0.437   2.259 -1.0289  0.7735  0.7756
  157MOL    H6440936   1.686   0.444   2.567  0.8675 -0.7311 -0.1520
  157MOL    H6540937   1.562   0.537   2.476 -0.0434 -0.0818  0.3636
  157MOL    H6640938   1.560   0.359   2.472 -0.6085  0.7873 -1.5492
  157MOL    C6740939   1.911   0.758   2.282 -0.9113 -0.0108 -0.5166
  157MOL    C6840940   1.948   0.804   2.421 -0.2088  0.1327 -0.7002
  157MOL    O6940941   1.957   0.947   2.421  0.1543  0.3916 -0.0875
  157MOL    C7040942   1.844   1.008   2.477  0.6080  0.4613 -0.2921
  157MOL    C7140943   1.840   1.154   2.449  0.3744  0.0591 -0.0916
  157MOL    H7240944   1.828   0.818   2.245 -0.6161  1.2969  0.9441
  157MOL    H7340945   2.003   0.779   2.227 -1.6941 -2.8524 -3.1019
  157MOL    H7440946   1.874   0.772   2.495  2.1548 -2.2203  0.7191
  157MOL    H7540947   1.850   0.980   2.583 -1.0977 -1.9277 -0.7799
  157MOL    H7640948   1.750   0.984   2.427  1.2324 -2.2400 -0.2420
  157MOL    H7740949   1.919   1.213   2.494 -0.9504  1.4935  0.4085
  157MOL    H7840950   1.839   1.186   2.344 -1.5844 -2.0039 -0.7337
  157MOL    H7940951   1.749   1.192   2.496  1.1313 -0.5484  1.8764
  157MOL    C8040952   2.089   0.761   2.467  0.1502 -0.5680  1.4198
  157MOL    C8140953   2.128   0.814   2.608 -0.0518 -0.4545  0.0852
  157MOL    O8240954   2.268   0.801   2.639  0.3811 -0.2764 -0.2443
  157MOL    C8340955   2.356   0.853   2.546 -0.0295  0.4131  0.7717
  157MOL    C8440956   2.491   0.838   2.604 -0.2817 -0.8476  0.2838
  157MOL    H8540957   2.151   0.807   2.390 -1.3684  1.1195  1.1721
  157MOL    H8640958   2.106   0.654   2.455 -0.1063 -0.1752 -3.2662
  157MOL    H8740959   2.098   0.919   2.620  1.9713  0.4106 -2.0115
  157MOL    H8840960   2.321   0.952   2.516  2.5286  1.1052 -0.0417
  157MOL    H8940961   2.356   0.795   2.454 -1.2833 -0.0143  1.0202
  157MOL    H9040962   2.500   0.874   2.707 -2.5929 -2.0893  0.9610
  157MOL    H9140963   2.505   0.731   2.613 -0.2363 -1.0212 -1.7848
  157MOL    H9240964   2.573   0.865   2.538 -1.6717  2.9953 -0.0251
  157MOL    C9340965   2.066   0.729   2.712 -0.1977  0.3628 -0.2394
  157MOL    C9440966   2.024   0.789   2.847 -0.1935  0.5156  0.4302
  157MOL    O9540967   1.921   0.890   2.826  0.0158 -0.5293 -0.1415
  157MOL    C9640968   1.797   0.859   2.876  0.7020  0.1780 -0.1494
  157MOL    C9740969   1.724   0.994   2.885  0.1524 -0.2659 -0.3642
  157MOL    H9840970   2.132   0.643   2.723  1.3004  1.4217 -0.7560
  157MOL    H9940971   1.970   0.687   2.681 -0.5858 -0.3131  1.7707
  157MOL   H10040972   1.978   0.706   2.900 -0.5609  0.8233  0.6010
  157MOL   H10140973   1.818   0.834   2.980 -0.3740  0.8544  0.2394
  157MOL   H10240974   1.744   0.779   2.826 -1.7718 -0.0471  2.7196
  157MOL   H10340975   1.699   1.036   2.788  2.6098  0.1050 -0.8537
  157MOL   H10440976   1.627   1.000   2.935 -0.1658 -1.6888 -0.7992
  157MOL   H10540977   1.792   1.055   2.944 -1.5698 -0.1222  1.5259
  157MOL   C10640978   2.142   0.855   2.916  0.4801  0.0510  0.8356
  157MOL   C10740979   2.243   0.747   2.971 -0.3288 -0.3784  0.3723
  157MOL   O10840980   2.186   0.689   3.085 -0.0784  0.1605  0.2723
  157MOL   C10940981   2.144   0.556   3.086  0.0373 -0.7868  0.2129
  157MOL   C11040982   2.008   0.536   3.157 -0.1504  0.6803 -0.6935
  157MOL   H11140983   2.108   0.927   2.990  0.8114  0.4816  0.5713
  157MOL   H11240984   2.192   0.921   2.845 -0.0487 -0.1015  0.3099
  157MOL   H11340985   2.270   0.676   2.892 -2.1681 -0.3771 -0.2693
  157MOL   H11440986   2.214   0.488   3.134  1.0247 -1.6616 -2.3952
  157MOL   H11540987   2.125   0.514   2.988 -0.8508  0.2828 -0.0796
  157MOL   H11640988   1.922   0.546   3.092 -0.6210 -0.9642 -0.3479
  157MOL   H11740989   2.004   0.434   3.196  1.0191  1.3002  1.1105
  157MOL   H11840990   1.991   0.588   3.251 -1.4749  1.3500 -1.3021
  157MOL   C11940991   2.368   0.831   3.012 -0.2061  0.3107 -0.0199
  157MOL   C12040992   2.489   0.740   3.047  0.3232 -0.6910 -0.2785
  157MOL   O12140993   2.568   0.815   3.138  0.4244 -0.2381 -0.3293
  157MOL   C12240994   2.555   0.778   3.275  0.2967  0.4592  0.3012
  157MOL   C12340995   2.605   0.881   3.375 -0.5517  0.5722  0.6134
  157MOL   H12440996   2.344   0.889   3.101 -2.2809 -0.0079 -0.3489
  157MOL   H12540997   2.395   0.913   2.945 -1.5377  1.0016  0.2847
  157MOL   H12640998   2.452   0.646   3.089 -0.7329 -1.1345 -2.1331
  157MOL   H12740999   2.605   0.682   3.289  1.2169  0.4438 -2.7980
  157MOL   H12841000   2.451   0.768   3.305  0.3549  2.3906  1.2180
  157MOL   H12941001   2.553   0.976   3.374  0.0590  0.9080 -1.3206
  157MOL   H13041002   2.594   0.847   3.478  0.9639  0.2843  0.6964
  157MOL   H13141003   2.709   0.902   3.350 -0.3368  0.3952  1.3352
  157MOL   C13241004   2.578   0.704   2.923 -0.1547  0.1672  0.4492
  157MOL   C13341005   2.693   0.601   2.942 -0.7984  0.1870  0.3618
  157MOL   O13441006   2.647   0.494   3.025 -0.4863  0.7162  0.6076
  157MOL   C13541007   2.610   0.371   2.954 -0.4867 -0.0232 -0.1943
  157MOL   C13641008   2.615   0.261   3.051 -0.5078  0.3686  0.7558
  157MOL   H13741009   2.612   0.798   2.880  1.7898 -2.5448 -4.3256
  157MOL   H13841010   2.518   0.660   2.844  0.9433 -1.9878  0.7602
  157MOL   H13941011   2.734   0.561   2.849 -1.4673  2.6491 -1.0291
  157MOL   H14041012   2.684   0.353   2.876 -1.2256 -1.5866 -0.5510
  157MOL   H14141013   2.515   0.381   2.903 -1.1695  0.1295  1.0898
  157MOL   H14241014   2.549   0.273   3.138  1.2508 -1.6323  2.4271
  157MOL   H14341015   2.578   0.174   2.997  1.0438  0.6314 -0.7365
  157MOL   H14441016   2.715   0.247   3.090  0.7982  0.9152 -2.2578
  157MOL   C14541017   2.813   0.668   3.020 -0.4344  0.5942 -0.2012
  157MOL   C14641018   2.898   0.773   2.948 -0.6615 -0.2143  0.8942
  157MOL   O14741019   2.946   0.717   2.823 -0.0106  0.0738 -0.3003
  157MOL   C14841020   2.964   0.803   2.717 -0.0610 -0.5361 -0.4954
  157MOL   C14941021   3.005   0.712   2.601  0.3136 -0.2588 -0.4309
  157MOL   H15041022   2.875   0.584   3.051 -2.0800 -0.7144 -0.4277
  157MOL   H15141023   2.793   0.709   3.119 -0.9963 -2.6153  1.0525
  157MOL   H15241024   2.834   0.858   2.925 -1.4439 -1.4797 -1.7039
  157MOL   H15341025   3.045   0.875   2.731 -1.7322  1.1701  0.7067
  157MOL   H15441026   2.876   0.865   2.700  1.3860  2.0418  1.0468
  157MOL   H15541027   2.918   0.694   2.537  1.2067  0.3007 -1.8170
  157MOL   H15641028   3.079   0.758   2.536 -0.9617  0.6227 -1.2719
  157MOL   H15741029   3.052   0.619   2.633 -0.5976 -0.3114  0.8045
  157MOL   C15841030   3.021   0.826   3.034 -0.0649 -0.5598  0.7251
  157MOL   C15941031   3.027   0.976   3.054 -0.1538 -0.3115  0.1646
  157MOL   O16041032   3.021   1.030   2.917  0.0269  0.2182 -0.0722
  157MOL   C16141033   2.941   1.147   2.913 -0.1287 -0.4048 -0.3614
  157MOL   C16241034   2.949   1.225   2.781  0.0999  0.3571 -0.0020
  157MOL   H16341035   3.122   0.795   3.005 -0.9708 -1.3806 -1.6329
  157MOL   H16441036   3.018   0.785   3.135 -0.3295 -1.3113  0.4116
  157MOL   H16541037   2.937   1.000   3.112  0.5801  1.9769  0.4085
  157MOL   H16641038   2.991   1.210   2.987  0.8331 -0.7701 -0.6816
  157MOL   H16741039   2.836   1.124   2.929 -0.9259  2.1340 -1.7547
  157MOL   H16841040   3.047   1.272   2.766  0.5526 -0.3997  0.5429
  157MOL   H16941041   2.929   1.161   2.695  0.0908  1.2513 -0.6669
  157MOL   H17041042   2.888   1.315   2.785 -0.5670 -0.1742  2.3547
  157MOL   C17141043   3.155   1.026   3.135 -0.3910  0.3186  0.3486
  157MOL   C17241044   3.161   0.994   3.283  0.3614  0.0688  0.0422
  157MOL   O17341045   3.059   1.069   3.345  0.4930 -0.4634 -0.0141
  157MOL   C17441046   3.013   1.045   3.473  0.6106  0.0139  0.1538
  157MOL   C17541047   2.958   1.181   3.513 -0.8930  0.6100  0.2256
  157MOL   H17641048   3.170   1.130   3.108  1.2274 -0.3235 -1.2817
  157MOL   H17741049   3.242   0.968   3.103 -0.4744  1.4764 -2.0522
  157MOL   H17841050   3.149   0.888   3.307  1.0577 -0.5686 -2.2652
  157MOL   H17941051   3.086   1.003   3.543 -0.7693  0.2322  1.7615
  157MOL   H18041052   2.939   0.966   3.472 -1.3326  1.8224 -1.0658
  157MOL   H18141053   2.910   1.233   3.430 -2.8315  0.4581  1.2327
  157MOL   H18241054   2.891   1.173   3.598  0.7281  2.4260  1.7437
  157MOL   H18341055   3.043   1.245   3.538 -0.9872  0.6344  0.4857
  157MOL   C18441056   3.292   1.037   3.348  0.3594 -0.2693 -0.3557
  157MOL   C18541057   3.396   0.926   3.369 -1.0693  0.1968  0.4488
  157MOL   O18641058   3.342   0.837   3.466  0.4555  0.1609  0.0310
  157MOL   C18741059   3.381   0.708   3.459 -0.0675 -0.2517  0.5398
  157MOL   C18841060   3.316   0.635   3.577 -0.1189  0.2478 -0.7777
  157MOL   H18941061   3.285   1.077   3.449  2.3339 -1.3616  0.2391
  157MOL   H19041062   3.339   1.116   3.290 -0.6560  0.1805 -0.5703
  157MOL   H19141063   3.405   0.863   3.280  1.1159 -0.5844  1.1870
  157MOL   H19241064   3.490   0.702   3.462  0.1466  1.9618 -1.5150
  157MOL   H19341065   3.345   0.673   3.362 -0.3594 -0.6033  0.7744
  157MOL   H19441066   3.354   0.658   3.677 -0.2274 -1.8212 -0.2236
  157MOL   H19541067   3.210   0.659   3.576 -0.1699  0.2663  1.2915
  157MOL   H19641068   3.308   0.527   3.566 -1.3851  0.2395  0.1176
  157MOL   C19741069   3.535   0.984   3.406 -0.0600  0.4224 -0.4929
  157MOL   C19841070   3.560   1.044   3.542  0.0549 -0.7418 -0.3372
  157MOL   O19941071   3.684   1.115   3.541  0.0898 -0.4763  0.0376
  157MOL   C20041072   3.684   1.258   3.552 -0.5357 -0.3023  0.4925
  157MOL   C20141073   3.825   1.290   3.581 -0.4028  0.0611 -0.0590
  157MOL   H20241074   3.567   1.055   3.329  1.9908 -0.5943 -0.6320
  157MOL   H20341075   3.595   0.893   3.404 -1.0877 -0.4299  3.6251
  157MOL   H20441076   3.486   1.116   3.577  1.5071  1.3144 -1.4140
  157MOL   H20541077   3.609   1.291   3.624 -2.2100 -1.3932 -0.7146
  157MOL   H20641078   3.652   1.312   3.464  1.8812 -0.9723 -0.8608
  157MOL   H20741079   3.841   1.393   3.614 -0.3792  0.3574 -0.9890
  157MOL   H20841080   3.863   1.223   3.658 -0.1697 -0.5683 -0.7163
  157MOL   H20941081   3.885   1.290   3.490 -0.8383 -0.3532 -0.3492
  157MOL   C21041082   3.577   0.938   3.651 -0.1797 -0.2161  0.2169
  157MOL   C21141083   3.593   1.000   3.796  0.2285 -0.2014 -0.1794
  157MOL   O21241084   3.657   0.899   3.884  0.1579  0.1067  0.2350
  157MOL   C21341085   3.789   0.935   3.921  0.0777 -0.9235 -0.2727
  157MOL   C21441086   3.848   0.828   4.006 -0.1606 -0.2115 -0.4874
  157MOL   H21541087   3.670   0.883   3.642 -1.6138 -2.4085 -1.9153
  157MOL   H21641088   3.510   0.852   3.645 -0.2495 -0.1092 -0.5948
  157MOL   H21741089   3.656   1.089   3.792  0.5901 -0.5057 -1.2827
  157MOL   H21841090   3.791   1.022   3.988  2.3639 -0.8630 -0.3763
  157MOL   H21941091   3.845   0.955   3.830  1.4831 -2.9092  0.1403
  157MOL   H22041092   3.799   0.807   4.101  2.5546 -1.4151  0.7268
  157MOL   H22141093   3.866   0.735   3.951 -1.2772  0.7588 -2.5585
  157MOL   H22241094   3.945   0.856   4.047  0.1569 -0.0017 -1.3635
  157MOL   C22341095   3.468   1.046   3.865  0.2555 -1.0576 -0.0269
  157MOL   C22441096   3.492   1.141   3.985 -0.4756 -0.0870 -0.2250
  157MOL   O22541097   3.382   1.130   4.085 -0.4211  0.1190 -0.5605
  157MOL   C22641098   3.382   1.017   4.168  0.3333 -0.0489 -0.3608
  157MOL   C22741099   3.470   1.055   4.288  0.5327  0.0937  0.6519
  157MOL   H22841100   3.411   0.960   3.900 -2.4641 -0.4136 -2.6944
  157MOL   H22941101   3.398   1.088   3.793  1.1504 -1.7814 -1.3468
  157MOL   H23041102   3.583   1.118   4.040  0.0994  1.1348 -0.6606
  157MOL   H23141103   3.406   0.923   4.119  0.0605 -0.8672  1.0710
  157MOL   H23241104   3.275   1.010   4.185 -0.0742 -0.6341 -2.9002
  157MOL   H23341105   3.446   1.153   4.327  1.4220  0.2748  0.7620
  157MOL   H23441106   3.457   0.984   4.369  2.1489 -1.4821 -0.4205
  157MOL   H23541107   3.571   1.064   4.249 -0.0185  0.7063 -0.6598
  157MOL   C23641108   3.503   1.287   3.943 -0.2036  0.0202  0.8018
  157MOL   C23741109   3.572   1.382   4.042 -0.1488  0.2172 -0.0675
  157MOL   O23841110   3.481   1.488   4.064  0.2967 -0.2785  0.7821
  157MOL   C23941111   3.399   1.478   4.176 -0.4015  0.4238 -0.0106
  157MOL   C24041112   3.357   1.626   4.204 -0.5622 -0.8327 -0.7440
  157MOL   H24141113   3.408   1.332   3.916  1.1683  2.1246 -0.6640
  157MOL   H24241114   3.571   1.293   3.858 -0.5840 -0.7648  0.4393
  157MOL   H24341115   3.589   1.329   4.135 -1.1170 -1.6521 -0.9296
  157MOL   H24441116   3.446   1.435   4.264  0.6345  1.1785 -0.1749
  157MOL   H24541117   3.318   1.412   4.146 -0.0357 -0.2281  0.4318
  157MOL   H24641118   3.443   1.689   4.227 -2.0706  1.5162 -1.4019
  157MOL   H24741119   3.313   1.667   4.113 -0.7133  1.1603  0.2065
  157MOL   H24841120   3.282   1.638   4.283  0.7294 -1.8311  0.6694
  157MOL   C24941121   3.708   1.447   3.986 -0.4275 -0.5258  0.6491
  157MOL   C25041122   3.815   1.344   3.956 -0.4440 -0.3111 -0.0473
  157MOL   O25141123   3.935   1.416   3.923 -0.7099 -0.5002  0.0605
  157MOL   C25241124   4.056   1.342   3.925  0.1732  0.3965 -0.5433
  157MOL   C25341125   4.167   1.433   3.868  0.7356 -0.2129 -0.1061
  157MOL   H25441126   3.741   1.511   4.067  0.3716  1.6877 -1.3676
  157MOL   H25541127   3.684   1.509   3.899 -1.4307 -1.6241  0.1289
  157MOL   H25641128   3.823   1.277   4.042 -0.0894  0.1242  0.2598
  157MOL   H25741129   4.049   1.247   3.870 -0.8035  1.2136 -1.8688
  157MOL   H25841130   4.070   1.322   4.031  2.0880  0.8975 -0.6938
  157MOL   H25941131   4.168   1.528   3.921 -1.0790 -0.4626  0.3943
  157MOL   H26041132   4.268   1.392   3.874  0.8573  0.3009  1.6336
  157MOL   H26141133   4.143   1.462   3.766  0.9984 -0.8980 -0.3656
  157MOL   H26241134   3.785   1.280   3.873 -0.9629 -1.0584  0.7128
  158MOL     C141135   0.499   6.806   0.744 -0.3753 -0.1626  0.9097
  158MOL     C241136   0.593   6.714   0.818  0.1061 -0.2537 -0.2746
  158MOL     O341137   0.518   6.649   0.921 -0.7455 -0.5963 -0.4107
  158MOL     C441138   0.547   6.513   0.961 -0.6043 -0.1745  0.4267
  158MOL     C541139   0.502   6.468   1.099 -0.3636 -0.2200 -0.0515
  158MOL     H641140   0.418   6.751   0.697  1.0190  0.2676 -2.1017
  158MOL     H741141   0.452   6.872   0.816  0.5581  0.1854  1.2174
  158MOL     H841142   0.632   6.637   0.751  2.2052 -1.3322  2.1191
  158MOL     H941143   0.656   6.513   0.962 -0.6056 -0.2430  0.9935
  158MOL    H1041144   0.516   6.439   0.887 -0.6340 -1.8394  2.0511
  158MOL    H1141145   0.568   6.389   1.133 -1.5022 -0.4509  1.6587
  158MOL    H1241146   0.510   6.551   1.169  0.4842 -0.1749 -0.1983
  158MOL    H1341147   0.398   6.437   1.102  0.1786 -2.2570 -1.6329
  158MOL    H1441148   0.549   6.865   0.667  2.7262 -0.1430  2.8411
  158MOL    C1541149   0.704   6.808   0.886 -0.3067  0.4066 -0.0605
  158MOL    C1641150   0.841   6.741   0.928 -0.2293  0.2361 -0.0024
  158MOL    O1741151   0.917   6.849   0.984  0.1203  0.5181 -0.2951
  158MOL    C1841152   0.875   6.880   1.120 -0.6926 -0.3684 -0.1054
  158MOL    C1941153   0.981   6.959   1.198 -0.3052  0.1570  0.0678
  158MOL    H2041154   0.671   6.863   0.974  2.4202 -1.7941  2.4790
  158MOL    H2141155   0.722   6.888   0.815 -3.8602 -0.1755 -1.6869
  158MOL    H2241156   0.814   6.661   0.997  3.1974 -0.1334  0.9646
  158MOL    H2341157   0.868   6.787   1.176  2.5415 -0.6106 -0.0214
  158MOL    H2441158   0.777   6.925   1.133 -0.7436  0.1853 -2.1796
  158MOL    H2541159   1.006   7.053   1.148  0.7048  0.1397  0.5487
  158MOL    H2641160   1.073   6.907   1.222  0.9786  1.1468 -2.4703
  158MOL    H2741161   0.936   7.001   1.288  1.7732 -0.6685  1.5183
  158MOL    C2841162   0.923   6.683   0.816  0.0630 -0.2149  0.5774
  158MOL    C2941163   0.947   6.766   0.685 -0.9266  0.4133  0.1564
  158MOL    O3041164   1.008   6.683   0.587 -0.2438 -0.3938  0.2505
  158MOL    C3141165   0.932   6.628   0.487  0.1105  0.1447 -0.1565
  158MOL    C3241166   1.033   6.557   0.397 -0.6026 -0.0374  0.3001
  158MOL    H3341167   0.867   6.600   0.773 -3.2856  2.6349 -0.8304
  158MOL    H3441168   1.014   6.635   0.851  1.5153  0.1254 -2.5367
  158MOL    H3541169   0.854   6.807   0.645  0.1977 -1.4242 -4.6872
  158MOL    H3641170   0.867   6.704   0.444 -1.2789 -0.9208  0.0334
  158MOL    H3741171   0.859   6.556   0.526  1.3739 -2.1666 -1.9161
  158MOL    H3841172   0.989   6.477   0.338 -1.8335 -0.2537  1.4957
  158MOL    H3941173   1.092   6.619   0.329 -1.0357  0.6578  0.5444
  158MOL    H4041174   1.115   6.509   0.451 -0.6853 -1.3005 -0.6729
  158MOL    C4141175   1.036   6.885   0.703  0.6925  0.1495 -0.3089
  158MOL    C4241176   1.075   6.978   0.584  0.1471 -0.0795  0.0271
  158MOL    O4341177   1.146   7.095   0.634 -0.0391  0.2894  0.7564
  158MOL    C4441178   1.274   7.070   0.673  0.4026  0.7516  0.6630
  158MOL    C4541179   1.342   7.179   0.767  0.8105  0.0773  0.8571
  158MOL    H4641180   1.128   6.854   0.751  1.1609 -0.7800 -1.7905
  158MOL    H4741181   0.979   6.948   0.772  1.1347 -0.5361  0.6811
  158MOL    H4841182   1.130   6.924   0.507 -1.1879  1.2911 -1.9140
  158MOL    H4941183   1.330   7.046   0.582  0.3671  0.9262  0.5957
  158MOL    H5041184   1.278   6.979   0.733  1.7408 -0.5576 -1.3596
  158MOL    H5141185   1.443   7.152   0.799  0.6020 -0.7228  0.8614
  158MOL    H5241186   1.340   7.272   0.711 -1.6803 -0.6484 -0.3402
  158MOL    H5341187   1.279   7.200   0.854 -1.8655  1.7143 -1.4022
  158MOL    C5441188   0.956   7.038   0.520 -0.5197  0.6083  0.2389
  158MOL    C5541189   0.967   7.114   0.388 -0.2061  0.5411 -0.3027
  158MOL    O5641190   0.838   7.170   0.379  0.8489  0.0527  0.2957
  158MOL    C5741191   0.836   7.313   0.367  0.0526 -0.0581  0.0670
  158MOL    C5841192   0.700   7.373   0.412 -0.6469 -0.5060  0.5542
  158MOL    H5941193   0.904   7.106   0.588 -2.0144 -0.9735  0.7049
  158MOL    H6041194   0.878   6.962   0.508 -2.5602  2.6977 -0.2912
  158MOL    H6141195   1.052   7.181   0.396  0.8472 -0.6820 -1.0821
  158MOL    H6241196   0.869   7.336   0.266  1.1374 -0.1128  0.4041
  158MOL    H6341197   0.915   7.362   0.424 -0.1118  2.6594 -1.9335
  158MOL    H6441198   0.681   7.321   0.506 -0.5384 -0.9966  0.3064
  158MOL    H6541199   0.703   7.482   0.417 -1.1183 -0.5732  2.6266
  158MOL    H6641200   0.611   7.348   0.355 -1.3597 -0.7963  1.7796
  158MOL    C6741201   0.996   7.018   0.266 -0.1450  0.0838 -0.2416
  158MOL    C6841202   1.069   7.074   0.139  0.5436 -0.6716  0.3121
  158MOL    O6941203   0.971   7.067   0.029 -0.3351 -0.1940  0.1785
  158MOL    C7041204   0.952   7.189   7.799  0.0152  0.9008 -0.3326
  158MOL    C7141205   0.864   7.162   7.677 -0.1350  0.2420 -0.5517
  158MOL    H7241206   0.906   6.969   0.230 -1.4319  1.2917  1.2828
  158MOL    H7341207   1.049   6.925   0.285  0.0347 -0.0468 -1.3629
  158MOL    H7441208   1.093   7.176   0.167  0.0426 -1.3611  3.4140
  158MOL    H7541209   1.050   7.218   7.764  1.0795  0.5529  2.2630
  158MOL    H7641210   0.907   7.268   0.016 -1.4043  0.9649 -1.4386
  158MOL    H7741211   0.768   7.115   7.702  0.6051 -1.3679 -0.6877
  158MOL    H7841212   0.843   7.253   7.620 -1.2504  0.4630  0.1939
  158MOL    H7941213   0.911   7.088   7.613  0.6348 -0.0153  0.3117
  158MOL    C8041214   1.197   6.991   0.100 -0.1195 -0.1243  0.3523
  158MOL    C8141215   1.321   6.996   0.196 -0.1326  0.1187  0.1340
  158MOL    O8241216   1.354   7.136   0.187  0.1001 -0.2546  0.1703
  158MOL    C8341217   1.435   7.193   0.286 -0.1304 -0.9978  0.4261
  158MOL    C8441218   1.496   7.322   0.239 -0.7510 -0.0725  0.5111
  158MOL    H8541219   1.231   7.013   7.842 -1.1418 -2.5787 -0.5687
  158MOL    H8641220   1.165   6.888   0.089  0.5654 -0.1793 -1.2621
  158MOL    H8741221   1.282   6.993   0.298 -0.3139 -1.2884  0.0413
  158MOL    H8841222   1.515   7.128   0.323  1.5484  1.4206  1.1607
  158MOL    H8941223   1.365   7.201   0.370 -1.7853  1.4689 -1.1485
  158MOL    H9041224   1.567   7.362   0.312 -0.9976 -0.7674  1.1380
  158MOL    H9141225   1.560   7.299   0.154  2.6992  0.0837  2.9609
  158MOL    H9241226   1.422   7.398   0.215 -0.9039 -0.0649  1.0066
  158MOL    C9341227   1.445   6.897   0.183 -0.2825  0.7594  0.2256
  158MOL    C9441228   1.422   6.753   0.252 -0.5080  0.2465 -0.6222
  158MOL    O9541229   1.411   6.791   0.391 -0.1674  0.1094  0.1360
  158MOL    C9641230   1.338   6.701   0.479  0.2749 -0.1512  0.3214
  158MOL    C9741231   1.394   6.728   0.615 -0.0372 -0.9515  0.1388
  158MOL    H9841232   1.526   6.936   0.244  0.4082 -3.4273  2.1965
  158MOL    H9941233   1.478   6.881   0.080 -1.4250 -0.3290  0.0128
  158MOL   H10041234   1.329   6.709   0.217  0.4335 -1.6762 -0.7859
  158MOL   H10141235   1.367   6.602   0.445 -0.5437  0.1986 -1.4651
  158MOL   H10241236   1.230   6.710   0.475  0.1355 -1.5550  0.8058
  158MOL   H10341237   1.323   6.681   0.683 -1.0154  0.1838 -0.0815
  158MOL   H10441238   1.495   6.686   0.613  0.4907  0.3010 -0.4730
  158MOL   H10541239   1.421   6.832   0.635  2.6302 -1.7939  1.1964
  158MOL   C10641240   1.538   6.654   0.226 -0.2270 -0.4541 -0.3562
  158MOL   C10741241   1.529   6.563   0.100  0.2223 -0.0376 -0.0446
  158MOL   O10841242   1.418   6.472   0.104  0.0248 -0.4159 -0.1746
  158MOL   C10941243   1.395   6.373   0.202  0.2660  0.0818 -0.2212
  158MOL   C11041244   1.285   6.275   0.159  0.2381 -0.1740  0.0029
  158MOL   H11141245   1.546   6.593   0.316  2.2884 -0.5345 -0.6115
  158MOL   H11241246   1.631   6.711   0.234 -1.2220  1.0614  0.5929
  158MOL   H11341247   1.511   6.636   0.022  3.3814  1.8925  0.9280
  158MOL   H11441248   1.367   6.427   0.292  0.9173  3.0602 -1.7349
  158MOL   H11541249   1.479   6.311   0.233 -0.2733  0.0173  1.1399
  158MOL   H11641250   1.196   6.318   0.113 -0.4425  0.7091  2.1012
  158MOL   H11741251   1.321   6.187   0.104  0.5266  0.7670 -1.3631
  158MOL   H11841252   1.262   6.237   0.258 -0.8011  2.3434  0.7578
  158MOL   C11941253   1.655   6.478   0.068 -0.3774  0.0495 -0.2675
  158MOL   C12041254   1.790   6.548   0.076 -0.2356  0.9371  0.4204
  158MOL   O12141255   1.762   6.673   0.015 -0.0413  0.0134  0.3763
  158MOL   C12241256   1.866   6.771   0.038  0.0672 -0.3063 -0.1001
  158MOL   C12341257   1.810   6.913   0.004  0.2891  0.4116  0.0379
  158MOL   H12441258   1.641   6.446   7.808 -2.4417  0.0660 -0.0195
  158MOL   H12541259   1.658   6.383   0.122 -0.3070 -0.5572 -1.3296
  158MOL   H12641260   1.825   6.553   0.179  2.3406 -3.8537 -0.0549
  158MOL   H12741261   1.958   6.769   7.822  0.7240  3.1535  0.6521
  158MOL   H12841262   1.896   6.758   0.142  2.0016 -3.3630 -0.9875
  158MOL   H12941263   1.727   6.949   0.065 -0.5838  1.5615 -1.7982
  158MOL   H13041264   1.889   6.985   0.025  0.6841  0.1792 -0.6469
  158MOL   H13141265   1.786   6.910   7.742  0.7656  1.4977 -0.1025
  158MOL   C13241266   1.906   6.478   7.833  0.4510  0.6075 -0.2114
  158MOL   C13341267   1.944   6.327   0.035 -0.9266 -0.2247 -0.1206
  158MOL   O13441268   1.991   6.334   0.173  0.3515  0.4496  0.5575
  158MOL   C13541269   1.963   6.224   0.252 -0.2856  0.7747  0.5948
  158MOL   C13641270   2.019   6.250   0.396 -0.9129 -0.0100  0.9262
  158MOL   H13741271   2.001   6.532   7.838  1.1526 -0.7030  1.0235
  158MOL   H13841272   1.873   6.470   7.730 -0.4044  1.2939  0.0031
  158MOL   H13941273   1.847   6.279   0.045 -0.8797 -0.1079  0.9846
  158MOL   H14041274   2.003   6.131   0.213  2.1837  0.6212  3.3724
  158MOL   H14141275   1.856   6.220   0.275  0.0106 -0.2627  1.8398
  158MOL   H14241276   1.998   6.351   0.432  0.3483  0.7673 -0.4371
  158MOL   H14341277   1.994   6.184   0.478  0.0046 -0.6834  0.6715
  158MOL   H14441278   2.126   6.237   0.380 -1.4746 -3.0090 -0.7403
  158MOL   C14541279   2.045   6.250   7.794  0.0429 -0.0797  0.2431
  158MOL   C14641280   2.179   6.315   7.776  0.4112 -0.2242  0.1252
  158MOL   O14741281   2.174   6.432   7.692  0.0252  0.2595  0.0668
  158MOL   C14841282   2.282   6.526   7.709 -0.5529  0.6782  0.1495
  158MOL   C14941283   2.243   6.667   7.671 -0.6717  0.3128  0.0950
  158MOL   H15041284   1.998   6.232   7.698  2.2986  0.9220 -1.0964
  158MOL   H15141285   2.053   6.151   7.841 -0.1847 -0.5369 -0.6768
  158MOL   H15241286   2.217   6.333   0.033  0.8832  0.4413 -0.1690
  158MOL   H15341287   2.359   6.492   7.641 -0.0125  2.4835 -0.1671
  158MOL   H15441288   2.323   6.513   7.809 -0.5005 -0.6360 -0.0328
  158MOL   H15541289   2.197   6.663   7.572  1.7795 -0.6879 -1.0391
  158MOL   H15641290   2.188   6.710   7.755  3.8107  0.7927  2.9879
  158MOL   H15741291   2.330   6.731   7.659  1.1132 -2.1011 -0.1508
  158MOL   C15841292   2.272   6.218   7.703 -0.0462 -0.1797 -0.8295
  158MOL   C15941293   2.333   6.119   7.800  0.3197  0.2493 -0.2978
  158MOL   O16041294   2.427   6.191   0.028  0.0321 -0.1886 -0.3206
  158MOL   C16141295   2.413   6.165   0.166 -0.8776 -0.0186  0.7097
  158MOL   C16241296   2.494   6.259   0.256  0.1580 -0.2273  0.0831
  158MOL   H16341297   2.353   6.267   7.651  0.7733 -0.1267  0.4788
  158MOL   H16441298   2.225   6.168   7.618 -1.5157 -0.8397  0.3400
  158MOL   H16541299   2.258   6.084   0.027  1.1398  1.0595  1.0072
  158MOL   H16641300   2.439   6.061   0.188 -0.3988  0.0368  0.4027
  158MOL   H16741301   2.310   6.178   0.200 -0.8229  0.2053  0.7900
  158MOL   H16841302   2.519   6.218   0.354 -0.4817 -0.5182  0.1251
  158MOL   H16941303   2.594   6.270   0.214  0.2705  0.9449  0.6603
  158MOL   H17041304   2.461   6.360   0.277 -2.6252 -1.2666  0.8704
  158MOL   C17141305   2.409   5.999   7.733 -0.1210 -0.3453 -0.1088
  158MOL   C17241306   2.329   5.899   7.647 -0.3877 -0.2353 -0.0770
  158MOL   O17341307   2.279   5.947   7.526 -0.7745  0.1998  0.0489
  158MOL   C17441308   2.336   5.881   7.413  0.3787  0.4544  0.8135
  158MOL   C17541309   2.259   5.924   7.281  0.2889 -0.4040 -0.4749
  158MOL   H17641310   2.476   5.951   7.804  0.9153  0.1560 -0.7317
  158MOL   H17741311   2.482   6.048   7.669 -1.3732  1.3233 -0.2896
  158MOL   H17841312   2.405   5.823   7.627  0.6620  1.1053 -1.2694
  158MOL   H17941313   2.326   5.773   7.424  1.3468  0.1696 -0.8814
  158MOL   H18041314   2.443   5.904   7.414  1.1930 -2.6222 -3.5323
  158MOL   H18141315   2.151   5.931   7.291  0.6272  3.2530  1.3834
  158MOL   H18241316   2.294   6.017   7.237  1.0409 -0.2158  0.5104
  158MOL   H18341317   2.274   5.851   7.201 -0.7591 -0.1459 -0.9139
  158MOL   C18441318   2.208   5.838   7.725 -0.1403 -0.2081 -0.2665
  158MOL   C18541319   2.235   5.743   7.839 -0.2217  0.1886 -0.1941
  158MOL   O18641320   2.274   5.819   0.112 -0.2364 -0.4750 -0.8303
  158MOL   C18741321   2.181   5.799   0.223  0.6601  0.0239  0.1490
  158MOL   C18841322   2.237   5.861   0.346 -0.6788  0.9384  0.5623
  158MOL   H18941323   2.152   5.792   7.643 -0.7731 -1.7077  0.9892
  158MOL   H19041324   2.136   5.918   7.744 -2.1723 -1.6607 -1.5848
  158MOL   H19141325   2.143   5.686   0.009 -0.1320 -0.7192 -3.0120
  158MOL   H19241326   2.179   5.692   0.248  2.1721  0.2655  1.3626
  158MOL   H19341327   2.080   5.832   0.200  1.2889  1.4567 -0.6083
  158MOL   H19441328   2.276   5.961   0.330 -0.9826  0.7972 -1.2060
  158MOL   H19541329   2.160   5.850   0.422 -0.3255  2.1010  1.0910
  158MOL   H19641330   2.327   5.804   0.369  0.1319  1.4874 -1.1669
  158MOL   C19741331   2.345   5.641   7.819  0.2179 -0.0172 -0.0115
  158MOL   C19841332   2.313   5.547   7.705  0.9612  0.0871  0.3627
  158MOL   O19941333   2.188   5.477   7.721  0.1956 -0.0114 -0.2245
  158MOL   C20041334   2.114   5.481   7.598  1.1012  0.0298 -0.2570
  158MOL   C20141335   1.993   5.396   7.617 -0.8513  0.8208  0.1034
  158MOL   H20241336   2.356   5.585   0.069  0.6469 -0.5223 -0.3665
  158MOL   H20341337   2.440   5.695   7.816 -0.7205  1.7636  0.9501
  158MOL   H20441338   2.309   5.614   7.619  0.3809  0.2008  0.4817
  158MOL   H20541339   2.164   5.440   7.510 -0.3746 -0.6455 -0.8018
  158MOL   H20641340   2.074   5.579   7.572 -0.7971 -0.3876  0.9640
  158MOL   H20741341   1.925   5.402   7.532  1.4889 -1.4060 -1.9856
  158MOL   H20841342   2.005   5.294   7.653  1.6903  0.7967 -0.7191
  158MOL   H20941343   1.942   5.438   7.705 -1.2224 -0.9211  0.7369
  158MOL   C21041344   2.420   5.430   7.681  0.4387  0.2234  0.1439
  158MOL   C21141345   2.554   5.464   7.618 -0.3429 -0.3438  0.2567
  158MOL   O21241346   2.540   5.538   7.492 -0.2375  0.5456 -0.3451
  158MOL   C21341347   2.491   5.462   7.387 -0.7646 -0.0184  0.2464
  158MOL   C21441348   2.511   5.538   7.254 -0.6848  0.4467  1.1725
  158MOL   H21541349   2.372   5.357   7.615 -0.1166  1.6679 -1.0763
  158MOL   H21641350   2.434   5.381   7.777 -0.2335  2.2748  1.3244
  158MOL   H21741351   2.604   5.527   7.692 -0.7476  2.1676 -1.5280
  158MOL   H21841352   2.383   5.453   7.401 -0.9568  2.0447  0.1923
  158MOL   H21941353   2.543   5.366   7.380  0.4225  0.2937  3.8697
  158MOL   H22041354   2.467   5.469   7.182 -1.4410  3.2322 -1.1161
  158MOL   H22141355   2.470   5.639   7.259 -1.7565  0.1399 -1.0976
  158MOL   H22241356   2.615   5.530   7.224 -0.6772 -1.4800  1.6356
  158MOL   C22341357   2.648   5.341   7.602  0.1669 -0.3432  0.0699
  158MOL   C22441358   2.714   5.293   7.732  0.7670  0.5834 -0.5466
  158MOL   O22541359   2.791   5.398   7.789 -0.1635 -0.0753  0.0200
  158MOL   C22641360   2.787   5.398   0.090 -0.6595  0.0118  0.1222
  158MOL   C22741361   2.663   5.471   0.141 -0.2909 -0.7325  0.7898
  158MOL   H22841362   2.727   5.375   7.535  0.2840 -2.5584 -0.9822
  158MOL   H22941363   2.612   5.258   7.542 -0.1312 -0.5517  0.5270
  158MOL   H23041364   2.635   5.256   7.797  1.4925  0.4235  0.2500
  158MOL   H23141365   2.869   5.448   0.143 -1.6275  1.3482  0.3749
  158MOL   H23241366   2.785   5.295   0.125 -4.2336 -0.3721 -1.0061
  158MOL   H23341367   2.578   5.413   0.103 -0.2934 -1.9595  2.5850
  158MOL   H23441368   2.660   5.458   0.249  1.5447 -0.2429  0.9009
  158MOL   H23541369   2.647   5.577   0.122 -2.1646 -1.1794 -0.3313
  158MOL   C23641370   2.808   5.166   7.708 -0.6574 -0.0091 -0.1167
  158MOL   C23741371   2.745   5.034   7.654  0.2597 -0.1232  0.0174
  158MOL   O23841372   2.643   4.985   7.743 -0.0011 -0.4686 -0.3186
  158MOL   C23941373   2.550   4.895   7.684  0.4109 -0.1895 -0.1661
  158MOL   C24041374   2.439   4.852   7.784 -0.2028  0.0512 -1.1480
  158MOL   H24141375   2.851   5.145   7.806 -3.3404 -2.4251  0.6071
  158MOL   H24241376   2.884   5.200   7.638  0.6104  0.2592  1.3617
  158MOL   H24341377   2.702   5.054   7.556  0.9391 -3.7969 -1.1189
  158MOL   H24441378   2.605   4.808   7.651  0.9836 -0.6945  2.0758
  158MOL   H24541379   2.504   4.943   7.597 -1.2871 -2.8971 -0.8329
  158MOL   H24641380   2.380   4.933   7.826  0.0204 -1.7823  2.9616
  158MOL   H24741381   2.358   4.794   7.741  0.3468 -1.3067 -0.4149
  158MOL   H24841382   2.471   4.793   0.026 -0.8851  2.5473  0.8919
  158MOL   C24941383   2.855   4.926   7.631 -0.0060 -1.0320 -0.1131
  158MOL   C25041384   2.890   4.853   7.763  0.0522  0.1956  0.8725
  158MOL   O25141385   3.014   4.778   7.737 -0.0291 -0.7652  0.1274
  158MOL   C25241386   3.032   4.682   7.840 -0.0975  0.2023 -0.1491
  158MOL   C25341387   3.162   4.607   7.827 -0.1964  0.2715 -0.6222
  158MOL   H25441388   2.942   4.983   7.599  0.9223 -1.6914  1.1795
  158MOL   H25541389   2.819   4.860   7.552  0.4959 -0.8999 -0.4519
  158MOL   H25641390   2.909   4.924   7.843  4.5679  1.1852 -0.9146
  158MOL   H25741391   2.957   4.604   7.827  1.8304 -1.7427  0.0272
  158MOL   H25841392   3.024   4.721   0.098  0.6300 -0.2255  0.0779
  158MOL   H25941393   3.240   4.683   7.830  1.7057 -1.6353 -0.3401
  158MOL   H26041394   3.181   4.535   0.064  0.0738  0.4242 -0.5483
  158MOL   H26141395   3.168   4.560   7.729  2.2146  1.5003 -1.0953
  158MOL   H26241396   2.796   4.803   7.787  0.5945  0.3677  3.4742
  159MOL     C141397   5.132   0.248   7.016 -0.3799  0.8028 -0.1751
  159MOL     C241398   5.195   0.125   7.082  0.3931  0.3159  0.7582
  159MOL     O341399   5.115   0.074   7.191  0.5426  0.2648 -0.1799
  159MOL     C441400   5.046   7.797   7.167 -0.1789 -0.1382  0.3105
  159MOL     C541401   4.936   7.808   7.064  0.3708  0.4878 -0.0225
  159MOL     H641402   5.026   0.229   6.999  0.1511 -2.3340 -0.1809
  159MOL     H741403   5.157   0.335   7.077  0.2918  0.7182 -0.3246
  159MOL     H841404   5.201   0.045   7.009 -1.2003  1.4341 -0.6541
  159MOL     H941405   5.002   7.764   7.261  0.0773 -0.9821  0.1448
  159MOL    H1041406   5.115   7.718   7.137 -0.5135 -1.0789  1.9664
  159MOL    H1141407   4.959   7.800   6.958  0.3169  0.6630 -0.0474
  159MOL    H1241408   4.854   7.740   7.085  0.8677 -1.0923 -3.0385
  159MOL    H1341409   4.888   0.060   7.084  0.1939  0.5342 -0.6659
  159MOL    H1441410   5.179   0.259   6.918  1.9468  0.8863  0.9126
  159MOL    C1541411   5.336   0.155   7.136 -0.2871  0.3775  0.0006
  159MOL    C1641412   5.427   0.202   7.018 -0.0294  0.6357 -0.3268
  159MOL    O1741413   5.421   0.105   6.912 -0.5977 -0.3018  0.5721
  159MOL    C1841414   5.450   7.814   6.942 -0.0196 -0.4411 -0.3198
  159MOL    C1941415   5.470   7.713   6.827  0.1140 -0.5764  0.1780
  159MOL    H2041416   5.380   0.067   7.183  0.9343  0.2185 -1.4116
  159MOL    H2141417   5.330   0.234   7.211  0.1737 -1.5237  2.1081
  159MOL    H2241418   5.387   0.294   6.976 -0.0681  0.7539 -0.0344
  159MOL    H2341419   5.368   7.768   6.997 -1.9216  2.8981 -0.2312
  159MOL    H2441420   5.536   7.800   7.009 -0.0936  1.7364  0.2535
  159MOL    H2541421   5.384   7.728   6.762  1.0424  1.1444 -0.7008
  159MOL    H2641422   5.463   7.613   6.871 -0.7899  0.5494  2.6863
  159MOL    H2741423   5.566   7.717   6.774 -0.5647  0.6921 -0.9994
  159MOL    C2841424   5.570   0.223   7.074 -0.2598  0.1154 -0.2029
  159MOL    C2941425   5.679   0.284   6.974  0.0773 -0.1753 -0.3904
  159MOL    O3041426   5.791   0.301   7.054  0.2951 -0.1463  0.3302
  159MOL    C3141427   5.878   0.188   7.061 -0.5280 -0.2787  0.0688
  159MOL    C3241428   6.007   0.224   7.140 -0.2537  0.3197 -0.0290
  159MOL    H3341429   5.607   0.126   7.108  0.7023  1.1327  1.6953
  159MOL    H3441430   5.558   0.282   7.164 -0.6406  2.8291 -1.9780
  159MOL    H3541431   5.694   0.213   6.892 -0.3241  0.2109 -0.8036
  159MOL    H3641432   5.917   0.157   6.965 -0.8690 -1.7316  0.3832
  159MOL    H3741433   5.827   0.101   7.105  0.6660 -0.2820  1.4937
  159MOL    H3841434   6.063   0.136   7.171  2.1289  1.0034 -2.2381
  159MOL    H3941435   6.082   0.270   7.075 -0.5874  0.1932 -0.5104
  159MOL    H4041436   5.985   0.284   7.228  1.0436 -1.6779  1.6874
  159MOL    C4141437   5.645   0.421   6.917 -0.4154  0.3992 -0.4765
  159MOL    C4241438   5.777   0.486   6.861 -0.2055 -0.2752  0.1945
  159MOL    O4341439   5.750   0.616   6.810 -0.2175  0.2507 -0.7647
  159MOL    C4441440   5.830   0.725   6.864 -0.0994  0.5454  0.4463
  159MOL    C4541441   5.758   0.853   6.807 -1.1383  0.2987  0.1481
  159MOL    H4641442   5.612   0.480   7.003 -2.2825 -0.4377 -0.6077
  159MOL    H4741443   5.567   0.428   6.842 -0.1835 -0.2885 -0.7896
  159MOL    H4841444   5.839   0.495   6.951  0.2468  1.1636 -0.2520
  159MOL    H4941445   5.927   0.732   6.815  0.0883 -0.8447  0.5885
  159MOL    H5041446   5.844   0.718   6.972 -1.2457 -2.3840  0.4608
  159MOL    H5141447   5.655   0.849   6.842 -0.9144 -1.1396  0.6645
  159MOL    H5241448   5.813   0.940   6.843 -0.7294 -0.4035  1.2318
  159MOL    H5341449   5.749   0.865   6.699 -1.1940  1.5141  0.2860
  159MOL    C5441450   5.822   0.408   6.734  0.0057  0.2595 -0.3528
  159MOL    C5541451   5.978   0.437   6.691  0.4453  0.0253  0.1512
  159MOL    O5641452   6.014   0.380   6.567 -0.1025  0.0257  0.2446
  159MOL    C5741453   5.953   0.450   6.453 -0.3228  0.7862 -0.8470
  159MOL    C5841454   6.035   0.425   6.326 -0.1728  0.0865 -0.1448
  159MOL    H5941455   5.766   0.442   6.647  1.8114 -0.7697 -1.9530
  159MOL    H6041456   5.809   0.300   6.742  1.2025  0.2755  2.2686
  159MOL    H6141457   6.003   0.543   6.689  0.5913  0.0115  0.9593
  159MOL    H6241458   5.973   0.555   6.472  1.1451  0.0690  1.8421
  159MOL    H6341459   5.845   0.433   6.447 -0.1571 -0.1585 -1.2684
  159MOL    H6441460   6.051   0.322   6.297  0.2457  0.5744 -1.6988
  159MOL    H6541461   5.996   0.469   6.234  0.1076  0.0906 -0.2602
  159MOL    H6641462   6.139   0.457   6.325 -0.7263  2.1275  2.0974
  159MOL    C6741463   6.075   0.387   6.801  0.3301 -0.0184 -0.1584
  159MOL    C6841464   6.228   0.386   6.764 -0.3534 -0.6086 -0.0310
  159MOL    O6941465   6.293   0.322   6.866  0.1692  0.2435  0.2699
  159MOL    C7041466   6.326   0.186   6.842 -0.2971 -0.0296 -0.0560
  159MOL    C7141467   6.388   0.133   6.965 -0.3819 -0.4181  0.1317
  159MOL    H7241468   6.051   0.285   6.827  2.1786  0.1653  2.4372
  159MOL    H7341469   6.066   0.452   6.888  2.1688 -0.9096  0.7221
  159MOL    H7441470   6.251   0.325   6.676  0.4783  0.6521 -0.7013
  159MOL    H7541471   6.398   0.181   6.760 -0.1687  1.4047 -0.0523
  159MOL    H7641472   6.227   0.144   6.823 -0.2794 -0.0178 -0.1738
  159MOL    H7741473   6.336   0.169   7.054  2.4309  2.2517  0.7877
  159MOL    H7841474   6.388   0.025   6.978  1.7739 -0.3552  0.8618
  159MOL    H7941475   6.494   0.159   6.970 -0.3099 -1.0633  3.2178
  159MOL    C8041476   6.275   0.530   6.742 -0.1022  0.0900 -0.0555
  159MOL    C8141477   6.425   0.559   6.757  0.3851 -0.1913  0.0377
  159MOL    O8241478   6.470   0.692   6.749  0.2033 -0.1264  0.0585
  159MOL    C8341479   6.428   0.778   6.854  0.0935  0.6212  0.4438
  159MOL    C8441480   6.511   0.903   6.836 -0.7187  0.2925  0.1888
  159MOL    H8541481   6.222   0.606   6.799  2.1884  1.2931  0.5307
  159MOL    H8641482   6.245   0.554   6.640  1.7041  1.4509 -0.2928
  159MOL    H8741483   6.453   0.531   6.859  0.0484  1.2750  0.5480
  159MOL    H8841484   6.435   0.728   6.951 -0.6716 -1.6096 -0.6215
  159MOL    H8941485   6.322   0.801   6.847 -0.2434 -1.3875 -1.8031
  159MOL    H9041486   6.477   0.975   6.910 -2.3380 -0.2324 -0.0259
  159MOL    H9141487   6.617   0.881   6.852 -0.4237  2.1061  0.8575
  159MOL    H9241488   6.495   0.952   6.740 -0.8580 -0.5777 -0.2460
  159MOL    C9341489   6.514   0.478   6.663  0.5262  0.0455 -0.8979
  159MOL    C9441490   6.476   0.461   6.509  0.4411  0.4980  0.1791
  159MOL    O9541491   6.575   0.369   6.457  0.0577  0.1711  0.7032
  159MOL    C9641492   6.523   0.237   6.443  0.2593 -0.0352 -0.4132
  159MOL    C9741493   6.627   0.129   6.391  0.4670  0.5748 -0.1545
  159MOL    H9841494   6.507   0.373   6.694 -3.4388  0.4368 -0.2555
  159MOL    H9941495   6.620   0.502   6.662  0.7071 -0.7373 -0.8819
  159MOL   H10041496   6.381   0.407   6.499  0.1260  0.2641  3.6906
  159MOL   H10141497   6.438   0.240   6.374  0.0861  1.7545 -0.1331
  159MOL   H10241498   6.476   0.198   6.534 -1.0368  2.8675  0.2127
  159MOL   H10341499   6.663   0.169   6.296  0.4234  1.3883  0.1679
  159MOL   H10441500   6.710   0.109   6.459  1.6593  1.0282 -1.4478
  159MOL   H10541501   6.576   0.039   6.357  2.0622  0.3050 -1.9499
  159MOL   C10641502   6.469   0.589   6.432 -0.2022  0.6093 -0.4681
  159MOL   C10741503   6.591   0.680   6.437 -0.2937 -0.0031  0.6032
  159MOL   O10841504   6.531   0.787   6.364 -0.0432 -0.3546 -0.5011
  159MOL   C10941505   6.569   0.916   6.392 -0.3355  0.7550 -0.6332
  159MOL   C11041506   6.508   1.015   6.284  0.4320  0.1314 -0.3350
  159MOL   H11141507   6.379   0.641   6.466 -0.7178 -1.3236  1.2524
  159MOL   H11241508   6.449   0.564   6.327 -1.4667  2.8286 -0.8037
  159MOL   H11341509   6.619   0.710   6.538  1.1035 -2.6944  1.0510
  159MOL   H11441510   6.677   0.924   6.398 -0.2287 -1.6490  1.4697
  159MOL   H11541511   6.529   0.932   6.493  0.2502  0.0517 -0.2860
  159MOL   H11641512   6.537   0.988   6.183 -0.5525  2.0011 -1.1399
  159MOL   H11741513   6.399   1.017   6.288  0.4360 -0.5580  0.2922
  159MOL   H11841514   6.541   1.117   6.301  1.4889 -0.1491 -0.7015
  159MOL   C11941515   6.711   0.628   6.352  0.4751  0.0524  0.2786
  159MOL   C12041516   6.829   0.563   6.436  0.4195  0.4421  0.3604
  159MOL   O12141517   6.912   0.661   6.488 -0.0847  0.5074 -0.2017
  159MOL   C12241518   6.922   0.667   6.628 -0.1572 -0.0973  0.3552
  159MOL   C12341519   7.002   0.793   6.655 -0.6998 -0.2107  0.0199
  159MOL   H12441520   6.742   0.711   6.289  2.2074 -0.8805 -0.1384
  159MOL   H12541521   6.662   0.558   6.284  1.6117 -1.3160  0.8408
  159MOL   H12641522   6.790   0.495   6.512 -0.3499  0.4612 -0.0074
  159MOL   H12741523   6.964   0.575   6.668  3.0101 -0.1581 -2.8495
  159MOL   H12841524   6.828   0.682   6.680  0.4346  0.1605  1.3601
  159MOL   H12941525   7.090   0.769   6.595 -0.5351 -0.4743  0.3645
  159MOL   H13041526   6.961   0.889   6.627 -0.6519  0.9380  3.6503
  159MOL   H13141527   7.041   0.796   6.756  2.3280 -0.8892 -1.0669
  159MOL   C13241528   6.931   0.480   6.347 -0.0554 -0.2064 -0.2161
  159MOL   C13341529   7.033   0.398   6.422 -0.4709 -0.3193  0.3559
  159MOL   O13441530   7.108   0.338   6.319 -0.2606 -0.0541  0.2698
  159MOL   C13541531   7.208   0.423   6.263  0.3153  0.0420  0.8469
  159MOL   C13641532   7.241   0.393   6.122  0.5207 -0.1222  0.4234
  159MOL   H13741533   6.977   0.559   6.287 -2.0695  0.6257 -0.7152
  159MOL   H13841534   6.890   0.409   6.276 -0.7270  0.7554 -0.8045
  159MOL   H13941535   7.090   0.468   6.482 -0.8191 -0.8634  1.3540
  159MOL   H14041536   7.301   0.408   6.317  0.4503 -0.2091  0.5495
  159MOL   H14141537   7.185   0.528   6.275 -1.4893 -0.2276 -0.0226
  159MOL   H14241538   7.271   0.290   6.100 -5.1108 -1.7357 -0.6716
  159MOL   H14341539   7.155   0.404   6.056  0.9867  1.7598  0.0990
  159MOL   H14441540   7.314   0.468   6.092 -2.1748  2.3733 -0.1036
  159MOL   C14541541   6.968   0.274   6.500  0.5543 -0.5286  0.1298
  159MOL   C14641542   7.083   0.180   6.563 -0.3218 -0.0957 -0.0478
  159MOL   O14741543   7.025   0.050   6.589  0.0221  0.2747  0.2369
  159MOL   C14841544   7.104   7.779   6.552 -0.8465 -0.4841  0.4806
  159MOL   C14941545   7.048   7.644   6.590  0.2309 -0.3147  0.3158
  159MOL   H15041546   6.912   0.217   6.426  0.2322 -0.5267  0.3707
  159MOL   H15141547   6.912   0.303   6.589  1.7335  0.6048  0.5162
  159MOL   H15241548   7.156   0.162   6.484 -0.4115  2.4981 -0.7671
  159MOL   H15341549   7.201   7.787   6.601 -1.0327  0.0678  0.7554
  159MOL   H15441550   7.110   7.785   6.443 -0.0498 -1.8039  0.4392
  159MOL   H15541551   7.058   7.637   6.698  3.1759 -2.2569 -0.0142
  159MOL   H15641552   6.942   7.629   6.573 -0.1984  1.0738  1.6521
  159MOL   H15741553   7.105   7.558   6.554  1.7980  0.9078 -0.1994
  159MOL   C15841554   7.151   0.234   6.690  0.2477 -0.0257 -0.3076
  159MOL   C15941555   7.283   0.307   6.665 -0.3615 -0.0885 -0.3764
  159MOL   O16041556   7.387   0.212   6.649  0.1807  0.1949  0.0392
  159MOL   C16141557   7.440   0.197   6.518  0.0434 -0.2258  0.2216
  159MOL   C16241558   7.573   0.124   6.549  0.1416 -0.5354  0.0965
  159MOL   H16341559   7.190   0.152   6.750 -1.5912 -1.6366 -1.2506
  159MOL   H16441560   7.093   0.276   6.772  0.5496 -0.3459  0.0717
  159MOL   H16541561   7.262   0.368   6.577 -1.7040 -1.3320 -0.9637
  159MOL   H16641562   7.453   0.293   6.468  0.4335 -0.9328 -1.0746
  159MOL   H16741563   7.377   0.136   6.453  1.7461 -1.9392  0.1516
  159MOL   H16841564   7.554   0.025   6.592  1.5399 -0.1046  1.7388
  159MOL   H16941565   7.626   0.111   6.454  0.0343 -1.8825  0.1998
  159MOL   H17041566   7.634   0.177   6.622  0.8679 -1.0326 -0.1426
  159MOL   C17141567   7.320   0.393   6.786  0.2739 -0.4152 -0.5760
  159MOL   C17241568   7.447   0.479   6.764  0.0191  0.1741  0.0858
  159MOL   O17341569   7.477   0.552   6.884  0.4362  0.3208  0.0598
  159MOL   C17441570   7.598   0.519   6.947 -0.2078  0.3652 -0.0736
  159MOL   C17541571   7.610   0.588   7.084 -0.6174  0.0198  0.5037
  159MOL   H17641572   7.338   0.319   6.863  1.2569  0.5961  0.1747
  159MOL   H17741573   7.242   0.465   6.811  1.8411  0.4941  1.8663
  159MOL   H17841574   7.529   0.416   6.729 -1.5198 -2.2807  0.7309
  159MOL   H17941575   7.677   0.560   6.885  0.4439  0.4645  0.8061
  159MOL   H18041576   7.611   0.411   6.959 -3.1294  0.0630  0.6772
  159MOL   H18141577   7.577   0.692   7.087 -1.5950 -0.3093  1.5335
  159MOL   H18241578   7.553   0.542   7.165 -0.4242  0.7464  1.0571
  159MOL   H18341579   7.714   0.589   7.117 -0.2426  1.7102 -0.6790
  159MOL   C18441580   7.424   0.578   6.641  0.0207 -0.4002 -0.2775
  159MOL   C18541581   7.551   0.652   6.589 -0.2760  0.1434 -0.0572
  159MOL   O18641582   7.513   0.738   6.483 -0.5607  0.9085  0.3448
  159MOL   C18741583   7.460   0.858   6.523  0.2417  0.7194 -0.3172
  159MOL   C18841584   7.496   0.956   6.411  0.2993 -0.1869  0.2032
  159MOL   H18941585   7.353   0.655   6.670  0.7160  0.0676  0.1999
  159MOL   H19041586   7.373   0.528   6.558 -0.3425  0.3008 -0.4765
  159MOL   H19141587   7.593   0.703   6.676 -1.5836 -0.2014  0.7855
  159MOL   H19241588   7.506   0.892   6.615 -0.7597  1.1760  0.0284
  159MOL   H19341589   7.354   0.857   6.548  0.1156 -1.9864 -0.7828
  159MOL   H19441590   7.601   0.943   6.386  0.6172  1.8320  0.3626
  159MOL   H19541591   7.434   0.939   6.324  1.6525 -2.9361 -0.2788
  159MOL   H19641592   7.471   1.055   6.451  1.0313 -0.3303  1.0534
  159MOL   C19741593   7.649   0.557   6.521 -0.0021  0.3101  0.3769
  159MOL   C19841594   7.783   0.622   6.476  0.1350  0.0398  0.0184
  159MOL   O19941595   7.837   0.523   6.391 -0.3419 -0.1533 -0.1196
  159MOL   C20041596   0.097   0.572   6.306 -0.0432  0.5197  0.9755
  159MOL   C20141597   0.126   0.449   6.219  0.0681  0.9619 -0.0365
  159MOL   H20241598   7.588   0.507   6.446  0.9380 -1.2583  0.6553
  159MOL   H20341599   7.671   0.478   6.593 -0.7532 -0.9534 -0.7703
  159MOL   H20441600   7.762   0.715   6.424 -0.4439 -2.1832 -3.9217
  159MOL   H20541601   0.191   0.606   6.351  1.1808 -0.6065 -0.6523
  159MOL   H20641602   0.059   0.653   6.244  0.0124 -0.9940 -1.1137
  159MOL   H20741603   0.217   0.461   6.160 -0.0306  1.3886 -0.1044
  159MOL   H20841604   0.139   0.360   6.280 -2.0885  0.5968 -0.0499
  159MOL   H20941605   0.039   0.432   6.155 -0.7066 -1.4899  1.6261
  159MOL   C21041606   0.025   0.644   6.595  0.5886 -0.0198  0.4572
  159MOL   C21141607   0.090   0.787   6.611 -0.8624 -0.1489 -0.5508
  159MOL   O21241608   0.159   0.793   6.736  0.0813  0.2214 -0.6044
  159MOL   C21341609   0.301   0.773   6.753  0.2038  0.6043  0.0895
  159MOL   C21441610   0.316   0.756   6.901 -0.3707  0.2783  0.0235
  159MOL   H21541611   0.107   0.573   6.590  1.2104  0.7918 -2.3961
  159MOL   H21641612   7.814   0.610   6.683 -0.1499 -0.1623 -0.0444
  159MOL   H21741613   0.167   0.804   6.537 -1.1569 -0.5939 -0.9662
  159MOL   H21841614   0.367   0.850   6.714  2.4420 -0.8334  0.9123
  159MOL   H21941615   0.315   0.683   6.693  0.0905 -1.3525  2.8952
  159MOL   H22041616   0.283   0.852   6.940  0.3569  0.5222  0.0560
  159MOL   H22141617   0.257   0.678   6.948  1.2123 -1.9263 -1.5124
  159MOL   H22241618   0.418   0.740   6.935 -0.3562 -2.0519 -1.0539
  159MOL   C22341619   7.837   0.905   6.592 -0.0723 -0.3067 -0.2578
  159MOL   C22441620   0.034   1.031   6.659 -0.2241 -0.1164 -0.1432
  159MOL   O22541621   7.777   1.135   6.658 -0.1791 -0.5131 -0.4758
  159MOL   C22641622   7.685   1.125   6.765  0.0456 -0.0825 -0.5647
  159MOL   C22741623   7.560   1.202   6.734 -0.9119  0.6284 -0.3826
  159MOL   H22841624   7.742   0.881   6.640 -0.9255  2.4739 -0.4302
  159MOL   H22941625   7.810   0.920   6.487 -0.6685 -2.2579 -0.4055
  159MOL   H23041626   0.052   1.008   6.764  0.4815 -2.4545 -0.7349
  159MOL   H23141627   7.729   1.162   6.857 -2.5515  0.2613  0.5730
  159MOL   H23241628   7.660   1.021   6.786 -0.9740  0.3390  0.3485
  159MOL   H23341629   7.569   1.308   6.756 -0.9144  0.5222  0.1337
  159MOL   H23441630   7.539   1.187   6.628 -1.6600 -0.4806 -0.0852
  159MOL   H23541631   7.472   1.163   6.785 -0.9291 -1.1461 -1.7406
  159MOL   C23641632   0.159   1.098   6.595  0.1098 -0.1655 -0.0804
  159MOL   C23741633   0.228   1.218   6.662  0.1984 -0.1944  0.1395
  159MOL   O23841634   0.340   1.274   6.583 -0.1776 -0.0448 -0.0861
  159MOL   C23941635   0.458   1.207   6.567  0.2373 -0.6536  0.2906
  159MOL   C24041636   0.522   1.239   6.430 -0.4270 -0.3099 -0.2823
  159MOL   H24141637   0.134   1.134   6.495  0.6088  2.8435  0.8321
  159MOL   H24241638   0.235   1.021   6.581 -2.1802 -2.3364 -1.0865
  159MOL   H24341639   0.157   1.299   6.671  3.2429  2.5875  0.1364
  159MOL   H24441640   0.442   1.099   6.562  3.5038 -1.1571 -1.1649
  159MOL   H24541641   0.530   1.239   6.642  2.1075 -0.1008 -1.6960
  159MOL   H24641642   0.616   1.187   6.410 -0.3561 -0.2119 -0.2053
  159MOL   H24741643   0.452   1.216   6.349 -1.9079  1.4518  0.4655
  159MOL   H24841644   0.536   1.344   6.407 -1.4072 -0.4533 -1.5762
  159MOL   C24941645   0.290   1.190   6.800 -0.6036 -0.8214 -0.4837
  159MOL   C25041646   0.344   1.309   6.872  0.7310 -0.2690  0.5980
  159MOL   O25141647   0.395   1.270   7.005  0.3656 -0.2298 -0.0890
  159MOL   C25241648   0.407   1.371   7.097 -0.1895 -0.5354 -0.2538
  159MOL   C25341649   0.457   1.299   7.222  0.4711 -0.5040 -0.0419
  159MOL   H25441650   0.379   1.128   6.793 -0.0748 -0.1030 -0.2624
  159MOL   H25541651   0.215   1.142   6.863  1.2070 -1.0886  1.5573
  159MOL   H25641652   0.425   1.357   6.816 -0.7786  0.7629 -0.7570
  159MOL   H25741653   0.307   1.414   7.110  0.3833  1.0919 -1.0792
  159MOL   H25841654   0.482   1.448   7.079 -0.3814  0.2383  2.0580
  159MOL   H25941655   0.554   1.252   7.201  0.4362 -0.1607 -0.9826
  159MOL   H26041656   0.472   1.362   7.310  0.3371 -0.1203 -0.2982
  159MOL   H26141657   0.390   1.221   7.260  2.1849 -2.8952 -1.7456
  159MOL   H26241658   0.266   1.385   6.882 -1.0122 -2.0650  0.8485
  160MOL     C141659   3.433   2.926   6.453 -0.3925 -0.0085  0.3423
  160MOL     C241660   3.354   3.054   6.466  0.7564  0.0872  0.3211
  160MOL     O341661   3.230   3.032   6.398  0.4814 -0.1487 -0.0863
  160MOL     C441662   3.109   3.062   6.478 -0.4017  0.4607 -0.0442
  160MOL     C541663   2.988   3.026   6.386  0.6802  0.0290 -1.2259
  160MOL     H641664   3.525   2.930   6.512 -1.2805 -2.9552  1.9945
  160MOL     H741665   3.369   2.852   6.499  1.4855 -1.7171  0.2974
  160MOL     H841666   3.344   3.070   6.573  1.1941 -1.7850  0.6544
  160MOL     H941667   3.105   3.165   6.515  0.7430  0.7259 -0.6247
  160MOL    H1041668   3.113   2.996   6.564 -1.7344 -0.3164 -0.5598
  160MOL    H1141669   2.986   3.094   6.301 -3.0554  0.5355 -0.8540
  160MOL    H1241670   2.989   2.923   6.351  0.5963 -0.5497  0.3917
  160MOL    H1341671   2.894   3.034   6.442  1.1084  0.8996 -0.6194
  160MOL    H1441672   3.448   2.891   6.351 -0.9437 -2.2111  0.9878
  160MOL    C1541673   3.414   3.176   6.405 -0.0061 -1.0682  0.8837
  160MOL    C1641674   3.562   3.213   6.453 -0.2895 -0.3407 -0.0784
  160MOL    O1741675   3.554   3.225   6.597  0.4215  0.4262  0.1410
  160MOL    C1841676   3.672   3.222   6.671 -0.6352 -0.4867 -0.3234
  160MOL    C1941677   3.637   3.154   6.800  0.8877  0.1691  0.3805
  160MOL    H2041678   3.348   3.253   6.444 -0.6048 -1.4498  0.6467
  160MOL    H2141679   3.416   3.166   6.296 -0.7232  0.3151  0.7378
  160MOL    H2241680   3.626   3.126   6.434  0.7228 -0.2621  2.7614
  160MOL    H2341681   3.702   3.327   6.681  0.3111 -0.9866  2.5522
  160MOL    H2441682   3.756   3.171   6.626 -0.1079 -0.3615  0.5057
  160MOL    H2541683   3.583   3.061   6.786  1.4783 -0.0145 -0.7324
  160MOL    H2641684   3.568   3.222   6.850  1.4253  0.1048  1.2100
  160MOL    H2741685   3.724   3.145   6.865  1.0441  0.8292  0.2738
  160MOL    C2841686   3.617   3.342   6.392  0.0087 -0.0132  0.2837
  160MOL    C2941687   3.671   3.338   6.247  1.0665  0.4345  0.5235
  160MOL    O3041688   3.769   3.234   6.235  0.2214  0.2119 -0.3941
  160MOL    C3141689   3.759   3.145   6.127  0.0641 -1.2646  0.5430
  160MOL    C3241690   3.660   3.034   6.157  1.0043 -0.1586  0.4004
  160MOL    H3341691   3.692   3.384   6.459 -0.4880  3.3221 -1.1510
  160MOL    H3441692   3.536   3.415   6.385  1.5172  1.6295 -0.6409
  160MOL    H3541693   3.594   3.318   6.172  1.0942 -1.9191  1.0769
  160MOL    H3641694   3.856   3.096   6.111  1.6286  1.3553  1.6731
  160MOL    H3741695   3.735   3.199   6.035  0.3800  0.9420  1.7378
  160MOL    H3841696   3.677   2.986   6.253 -0.4432  0.3801  0.9330
  160MOL    H3941697   3.557   3.066   6.171  0.1835 -2.2734 -0.5917
  160MOL    H4041698   3.648   2.961   6.077 -0.6458  0.2322  0.2819
  160MOL    C4141699   3.750   3.468   6.208  0.3043 -0.2785  0.1489
  160MOL    C4241700   3.687   3.605   6.212 -0.3435  0.6596 -0.3123
  160MOL    O4341701   3.660   3.646   6.346 -0.3300  0.1242 -0.2275
  160MOL    C4441702   3.748   3.751   6.387  0.5309  0.6228  0.1862
  160MOL    C4541703   3.717   3.783   6.534  0.1940 -0.0862 -0.3836
  160MOL    H4641704   3.776   3.454   6.103 -0.6871 -0.1370 -0.1235
  160MOL    H4741705   3.847   3.464   6.256  1.4277 -2.5869 -2.2030
  160MOL    H4841706   3.759   3.670   6.161 -0.7988 -0.9435 -3.0981
  160MOL    H4941707   3.733   3.836   6.320  1.0100  0.9366  0.4778
  160MOL    H5041708   3.853   3.736   6.361  0.0303 -0.2521 -1.3899
  160MOL    H5141709   3.780   3.859   6.579 -0.7184 -0.2596  1.2348
  160MOL    H5241710   3.624   3.837   6.553  0.0143  0.9007 -3.8002
  160MOL    H5341711   3.719   3.698   6.603 -1.0295 -0.5338 -0.8852
  160MOL    C5441712   3.558   3.617   6.125  0.3936 -0.7932 -0.7636
  160MOL    C5541713   3.561   3.572   5.978 -0.2843 -0.2743  0.2033
  160MOL    O5641714   3.646   3.676   5.921 -0.2800 -0.5869 -0.2067
  160MOL    C5741715   3.754   3.614   5.847 -0.0334  0.5122  0.3476
  160MOL    C5841716   3.841   3.730   5.797  0.1738  0.2455  0.3289
  160MOL    H5941717   3.537   3.723   6.130  3.3857 -0.1021 -2.1466
  160MOL    H6041718   3.479   3.569   6.183  1.1651  0.6403  1.5560
  160MOL    H6141719   3.598   3.471   5.959  0.1065 -0.0165 -0.4320
  160MOL    H6241720   3.731   3.552   5.760 -0.3122  0.3530  0.5334
  160MOL    H6341721   3.816   3.553   5.913  0.4902  0.3874 -0.2584
  160MOL    H6441722   3.779   3.798   5.737 -0.6576 -0.5984  0.2192
  160MOL    H6541723   3.874   3.801   5.873 -0.5562  0.9772 -0.0240
  160MOL    H6641724   3.931   3.695   5.747 -1.0787 -1.2779 -0.9085
  160MOL    C6741725   3.422   3.585   5.917 -0.5822  0.0922  0.2950
  160MOL    C6841726   3.336   3.468   5.962  0.1093 -0.2460  0.2950
  160MOL    O6941727   3.376   3.347   5.895  0.0471  0.1956 -0.5472
  160MOL    C7041728   3.362   3.222   5.960 -0.2776 -0.2322 -0.2246
  160MOL    C7141729   3.429   3.119   5.868 -0.2415 -0.1934 -0.5092
  160MOL    H7241730   3.435   3.574   5.809 -1.0261 -0.0823  0.2583
  160MOL    H7341731   3.374   3.682   5.931  1.6020  1.3693 -0.8905
  160MOL    H7441732   3.351   3.453   6.068 -2.5125 -0.4309  0.6849
  160MOL    H7541733   3.257   3.200   5.979 -0.5232  1.4508  0.4631
  160MOL    H7641734   3.410   3.219   6.058  2.3007 -1.0895 -1.4465
  160MOL    H7741735   3.438   3.022   5.917 -0.5249  0.5841  1.1230
  160MOL    H7841736   3.380   3.099   5.773  2.8613 -1.0718 -1.9776
  160MOL    H7941737   3.530   3.151   5.842  0.1980 -1.4469 -0.3414
  160MOL    C8041738   3.181   3.501   5.937 -0.2564 -0.2794 -1.1391
  160MOL    C8141739   3.115   3.607   6.030 -0.3435 -0.5733 -0.2265
  160MOL    O8241740   3.055   3.554   6.155 -0.5466  0.5015 -0.2267
  160MOL    C8341741   3.124   3.505   6.270  0.2524  0.5797 -0.5423
  160MOL    C8441742   3.020   3.439   6.358  0.1111  0.2221  0.5637
  160MOL    H8541743   3.123   3.408   5.945 -1.0415  0.3599  0.8907
  160MOL    H8641744   3.178   3.536   5.834  0.2066  1.7527 -0.4781
  160MOL    H8741745   3.190   3.675   6.070 -1.1654  0.2305 -0.0364
  160MOL    H8841746   3.163   3.596   6.316  0.6570  0.7537 -1.2199
  160MOL    H8941747   3.206   3.444   6.233  1.4427  2.3124 -0.8013
  160MOL    H9041748   2.967   3.523   6.402  0.4154 -0.3687  2.0754
  160MOL    H9141749   2.960   3.369   6.298 -0.4210  0.0900  1.2447
  160MOL    H9241750   3.070   3.381   6.435  1.9351 -2.5927 -2.5697
  160MOL    C9341751   2.991   3.683   5.971 -0.5884  0.3519 -0.2140
  160MOL    C9441752   3.033   3.803   5.887 -0.6271  0.4617 -0.1539
  160MOL    O9541753   3.109   3.762   5.773 -0.2323  0.1214 -0.5590
  160MOL    C9641754   3.027   3.745   5.662 -0.3359  0.4654  0.5674
  160MOL    C9741755   3.127   3.728   5.547  0.2323  0.3452 -0.3612
  160MOL    H9841756   2.930   3.723   6.052  0.9583  1.4488  0.4264
  160MOL    H9941757   2.920   3.629   5.908 -1.9565 -0.0400  1.6125
  160MOL   H10041758   2.936   3.849   5.864  0.2030  3.6555  2.3910
  160MOL   H10141759   2.960   3.829   5.645  0.3405  0.5011 -2.1206
  160MOL   H10241760   2.965   3.656   5.669 -0.3473  0.4423  0.1406
  160MOL   H10341761   3.209   3.799   5.537 -0.4951  1.5232  1.7590
  160MOL   H10441762   3.185   3.636   5.549  1.7382  1.3054  0.7104
  160MOL   H10541763   3.082   3.726   5.448 -0.0072 -0.1300 -0.2490
  160MOL   C10641764   3.115   3.905   5.973  0.4473 -0.8489 -0.4180
  160MOL   C10741765   3.108   4.043   5.907  0.4827 -0.0621 -0.4277
  160MOL   O10841766   3.198   4.137   5.962 -0.1199  0.6253 -0.1752
  160MOL   C10941767   3.336   4.122   5.928 -0.4549  0.3049  0.4187
  160MOL   C11041768   3.412   4.250   5.981 -0.8092 -0.3357  0.0033
  160MOL   H11141769   3.216   3.873   5.997  0.6547 -0.5087 -0.8401
  160MOL   H11241770   3.084   3.913   6.077  1.6099 -0.9255 -0.0635
  160MOL   H11341771   3.146   4.020   5.808  0.2647  1.1627 -0.8101
  160MOL   H11441772   3.344   4.115   5.819  0.6792 -0.9609  0.5725
  160MOL   H11541773   3.385   4.036   5.973 -1.1506 -1.5016 -2.1481
  160MOL   H11641774   3.369   4.283   6.076 -1.6442 -0.7021 -0.2394
  160MOL   H11741775   3.516   4.218   5.980 -0.4300  0.8865 -1.2189
  160MOL   H11841776   3.397   4.333   5.912  2.0287 -0.0776 -0.3693
  160MOL   C11941777   2.967   4.110   5.917 -0.4399 -0.6344  0.0967
  160MOL   C12041778   2.959   4.231   5.823  0.5031  0.4324 -0.1175
  160MOL   O12141779   2.834   4.292   5.817 -0.1207  0.6054 -0.0982
  160MOL   C12241780   2.792   4.376   5.936 -0.0151  0.0321 -0.1542
  160MOL   C12341781   2.661   4.316   5.992  0.7957 -0.1330 -0.2875
  160MOL   H12441782   2.946   4.136   6.020 -0.3818  0.0148 -0.0526
  160MOL   H12541783   2.885   4.043   5.890 -2.3076  0.8314  1.9370
  160MOL   H12641784   3.028   4.310   5.852 -1.6052  2.1131  0.4898
  160MOL   H12741785   2.775   4.480   5.910  0.3252 -0.0639 -0.7551
  160MOL   H12841786   2.868   4.384   6.013 -0.9961 -1.8647  1.0719
  160MOL   H12941787   2.620   4.373   6.076  0.7683 -0.9014  0.2331
  160MOL   H13041788   2.587   4.302   5.913 -0.4251  1.0461  0.6143
  160MOL   H13141789   2.676   4.215   6.031  2.2259  0.3461  0.4405
  160MOL   C13241790   2.994   4.184   5.679  0.4840  0.1367 -0.1396
  160MOL   C13341791   2.964   4.278   5.559  0.0395  0.3289 -0.0781
  160MOL   O13441792   2.992   4.202   5.444  0.3165 -0.1352  0.0156
  160MOL   C13541793   2.876   4.121   5.406 -0.6738 -0.5161  0.6480
  160MOL   C13641794   2.926   4.013   5.307  0.5657 -0.0051 -0.1744
  160MOL   H13741795   2.940   4.095   5.647 -0.3716  1.5896 -2.9258
  160MOL   H13841796   3.097   4.150   5.676  0.0035 -1.5007  0.9223
  160MOL   H13941797   2.865   4.321   5.548  0.1421  0.4285 -0.6277
  160MOL   H14041798   2.806   4.189   5.359  0.4302  0.7624  0.8063
  160MOL   H14141799   2.815   4.071   5.482  0.8568 -1.3565  1.3618
  160MOL   H14241800   2.902   4.044   5.205  0.8225  0.2424 -0.1592
  160MOL   H14341801   3.030   3.985   5.322  0.2312 -1.5596 -0.6042
  160MOL   H14441802   2.864   3.926   5.328 -0.7901  1.1454  0.6767
  160MOL   C14541803   3.066   4.388   5.562 -0.5001  0.0183  0.7168
  160MOL   C14641804   3.033   4.518   5.473  0.0934  0.1966  0.3010
  160MOL   O14741805   3.148   4.547   5.386 -0.3731 -0.0090 -0.1343
  160MOL   C14841806   3.143   4.484   5.259  0.2635  0.1689 -0.1299
  160MOL   C14941807   3.264   4.535   5.178 -0.5104  0.3238  0.3128
  160MOL   H15041808   3.166   4.350   5.544  0.0725  1.6387  0.3690
  160MOL   H15141809   3.083   4.432   5.660  1.1363 -1.4996  1.1378
  160MOL   H15241810   2.941   4.500   5.416 -1.2639  2.1803  1.8106
  160MOL   H15341811   3.047   4.498   5.209 -0.7150 -0.9016  1.3909
  160MOL   H15441812   3.161   4.378   5.280  3.4555  0.4606 -1.1160
  160MOL   H15541813   3.357   4.502   5.224 -0.4932 -0.5486 -0.3439
  160MOL   H15641814   3.265   4.503   5.074 -0.1318 -0.0037  0.4172
  160MOL   H15741815   3.262   4.644   5.181 -0.1317  0.3521 -0.5676
  160MOL   C15841816   3.015   4.640   5.562  0.8546 -0.1943 -0.0217
  160MOL   C15941817   2.886   4.638   5.656  0.8358 -0.1003  0.3178
  160MOL   O16041818   2.774   4.647   5.568  0.7730  0.1639 -0.3247
  160MOL   C16141819   2.660   4.570   5.605 -0.7138 -0.1346  0.2203
  160MOL   C16241820   2.540   4.604   5.519  0.5864 -0.3709  0.1950
  160MOL   H16341821   3.009   4.736   5.509 -1.3813 -0.2495  0.0833
  160MOL   H16441822   3.105   4.654   5.623  0.3291  0.0229  0.7073
  160MOL   H16541823   2.885   4.545   5.712  0.3527  0.3596  1.0835
  160MOL   H16641824   2.634   4.576   5.711  0.1854 -1.3437  0.5257
  160MOL   H16741825   2.690   4.466   5.593  2.1829  0.6813 -0.0472
  160MOL   H16841826   2.461   4.537   5.551  0.1508  0.6203  1.2265
  160MOL   H16941827   2.507   4.706   5.537 -0.9449 -0.8514  0.1908
  160MOL   H17041828   2.558   4.577   5.415 -0.6503 -1.5595  0.2692
  160MOL   C17141829   2.877   4.764   5.745  0.1536 -0.4781  0.1412
  160MOL   C17241830   2.993   4.775   5.849  0.5214  0.0000 -0.1941
  160MOL   O17341831   3.033   4.643   5.901  0.0919  0.0472 -0.2484
  160MOL   C17441832   3.178   4.630   5.918  0.6986 -1.0079 -1.0176
  160MOL   C17541833   3.242   4.721   6.024  0.4416 -0.2188 -0.1970
  160MOL   H17641834   2.781   4.759   5.795 -0.4188  3.0142 -0.4822
  160MOL   H17741835   2.876   4.856   5.687  0.4998 -0.2129  0.5523
  160MOL   H17841836   3.077   4.812   5.790  1.5009 -0.9614  0.5741
  160MOL   H17941837   3.229   4.649   5.824  0.9765 -0.6728 -0.8035
  160MOL   H18041838   3.196   4.524   5.940 -1.1928 -0.6196  2.8641
  160MOL   H18141839   3.350   4.711   6.033  0.7247 -0.4024 -3.0492
  160MOL   H18241840   3.244   4.827   6.000  1.4201  0.1594  1.4716
  160MOL   H18341841   3.202   4.695   6.122  0.0947 -3.9694 -1.2305
  160MOL   C18441842   2.963   4.876   5.963 -0.1373  0.6954  0.4656
  160MOL   C18541843   2.956   5.023   5.907  0.8788  0.4700 -0.7784
  160MOL   O18641844   3.078   5.051   5.850  0.1578 -0.2566 -0.5466
  160MOL   C18741845   3.076   5.122   5.722  0.4205  0.5183 -0.4610
  160MOL   C18841846   3.214   5.125   5.655 -0.4447  0.1407  0.2365
  160MOL   H18941847   3.043   4.868   6.037 -0.0327  2.8671  0.6165
  160MOL   H19041848   2.873   4.844   6.015 -1.0574  0.6569 -1.1226
  160MOL   H19141849   2.887   5.036   5.824 -1.2815 -2.6317  0.4559
  160MOL   H19241850   3.032   5.220   5.740 -0.3095 -0.2280  1.9447
  160MOL   H19341851   3.008   5.072   5.653 -1.6672  1.0673  1.1697
  160MOL   H19441852   3.286   5.183   5.714  0.5533  0.3518 -1.1617
  160MOL   H19541853   3.269   5.032   5.640  2.1588  1.5984  0.3875
  160MOL   H19641854   3.203   5.175   5.559 -2.2685 -0.8603 -0.0985
  160MOL   C19741855   2.936   5.126   6.014  0.5772 -0.5242 -0.1859
  160MOL   C19841856   3.038   5.141   6.132  0.1419  0.0531 -0.3132
  160MOL   O19941857   3.002   5.032   6.222 -0.1621 -0.5568 -0.3579
  160MOL   C20041858   3.107   4.981   6.294 -0.3007 -0.2090 -0.4519
  160MOL   C20141859   3.053   4.853   6.354  0.0264 -0.1534 -0.8213
  160MOL   H20241860   2.842   5.100   6.064  1.6687 -0.0713  2.1580
  160MOL   H20341861   2.912   5.224   5.971 -2.2656 -1.0792  0.0331
  160MOL   H20441862   3.139   5.122   6.097  1.2923  3.5614  0.8033
  160MOL   H20541863   3.110   5.054   6.375 -0.6579  0.3350 -0.9345
  160MOL   H20641864   3.199   4.973   6.237  1.3384 -0.6084  2.1426
  160MOL   H20741865   3.142   4.801   6.388  1.8392  2.0174 -2.1032
  160MOL   H20841866   2.983   4.867   6.437 -0.3656  3.7044 -1.6877
  160MOL   H20941867   3.008   4.781   6.285  0.7004 -1.5806  0.2111
  160MOL   C21041868   3.006   5.274   6.203  0.5974  0.6571  0.1225
  160MOL   C21141869   3.017   5.404   6.129  0.2031 -0.1000 -0.2710
  160MOL   O21241870   3.153   5.436   6.093  0.0966 -0.5034  0.0647
  160MOL   C21341871   3.191   5.412   5.958 -0.1407  0.1254 -0.5156
  160MOL   C21441872   3.333   5.458   5.947  0.3349  0.1419  0.1790
  160MOL   H21541873   3.065   5.274   6.295 -0.6097  1.3576  0.9126
  160MOL   H21641874   2.904   5.264   6.241  0.8038 -3.2601 -0.0911
  160MOL   H21741875   2.955   5.403   6.040 -0.8864  0.0342  0.4827
  160MOL   H21841876   3.138   5.469   5.882 -1.3497 -0.5647 -0.2018
  160MOL   H21941877   3.179   5.305   5.938 -0.1460 -0.3790  1.9403
  160MOL   H22041878   3.346   5.562   5.976 -1.4164  0.0763  1.2971
  160MOL   H22141879   3.385   5.396   6.020  0.6534  0.5219  0.2736
  160MOL   H22241880   3.363   5.428   5.847 -2.0764 -1.0587 -0.2409
  160MOL   C22341881   2.976   5.522   6.223 -0.5430  0.4023 -0.5049
  160MOL   C22441882   3.066   5.549   6.346  0.0480  0.2877 -1.0481
  160MOL   O22541883   3.031   5.446   6.448 -0.0514 -0.1853 -0.1281
  160MOL   C22641884   3.144   5.405   6.522 -0.1261 -0.1767  0.3922
  160MOL   C22741885   3.101   5.285   6.607  0.2253 -0.0742  0.7122
  160MOL   H22841886   2.875   5.493   6.253  0.0653 -0.9565  0.2907
  160MOL   H22941887   2.952   5.616   6.173 -1.3213  0.0619 -0.7781
  160MOL   H23041888   3.169   5.534   6.317  0.2334 -0.7783  0.1159
  160MOL   H23141889   3.179   5.484   6.588  3.6037 -0.0433 -1.6253
  160MOL   H23241890   3.220   5.369   6.452  0.8739 -0.4726  1.6239
  160MOL   H23341891   3.186   5.227   6.645  2.3365  2.0318 -0.6317
  160MOL   H23441892   3.040   5.319   6.690 -0.3066 -0.1635  0.3600
  160MOL   H23541893   3.038   5.210   6.559 -0.3916  0.9441 -0.0847
  160MOL   C23641894   3.058   5.690   6.404  0.6618 -0.9588  0.1811
  160MOL   C23741895   3.106   5.804   6.317  0.7492 -0.2975 -0.7699
  160MOL   O23841896   3.253   5.817   6.327 -0.2667 -0.2660  0.3436
  160MOL   C23941897   3.326   5.750   6.226  0.2280  0.1776  0.5644
  160MOL   C24041898   3.435   5.681   6.306  0.4141  0.0111 -0.6453
  160MOL   H24141899   3.125   5.685   6.490 -0.7594  1.4993  1.5002
  160MOL   H24241900   2.963   5.710   6.453  1.0412 -2.1241  1.4113
  160MOL   H24341901   3.083   5.783   6.212 -0.9461 -0.7148 -0.3262
  160MOL   H24441902   3.365   5.818   6.151 -0.0828 -0.0096  0.2296
  160MOL   H24541903   3.261   5.682   6.171 -0.6029  0.2674  1.4316
  160MOL   H24641904   3.499   5.752   6.358 -0.2073 -0.0282  0.1982
  160MOL   H24741905   3.396   5.605   6.374  0.1822  1.8422  1.3528
  160MOL   H24841906   3.488   5.614   6.238  1.9525 -0.7192  1.2262
  160MOL   C24941907   3.052   5.945   6.364  0.4330 -0.3289 -0.5536
  160MOL   C25041908   3.059   6.054   6.259  0.4366 -0.0465 -0.4352
  160MOL   O25141909   2.973   6.016   6.150 -0.0161 -0.0570  0.2556
  160MOL   C25241910   2.971   6.096   6.034 -0.3204 -0.1760 -0.7822
  160MOL   C25341911   2.878   6.027   5.932 -0.5435 -0.3521  0.4987
  160MOL   H25441912   3.097   5.977   6.459 -1.2718  4.3884 -1.1963
  160MOL   H25541913   2.946   5.936   6.383  0.8145 -0.7652  1.5035
  160MOL   H25641914   3.026   6.153   6.291  0.9040  0.7922 -2.4862
  160MOL   H25741915   3.074   6.104   6.001  0.6352 -0.1639  2.0708
  160MOL   H25841916   2.927   6.194   6.054  2.0010  0.3086  2.2560
  160MOL   H25941917   2.900   5.921   5.915 -0.9510 -0.3979  0.2512
  160MOL   H26041918   2.779   6.010   5.973 -1.0576 -1.7811 -1.2485
  160MOL   H26141919   2.878   6.088   5.842 -1.2056  0.5559  1.0999
  160MOL   H26241920   3.164   6.060   6.231 -0.3905  1.3568 -3.4183
  161MOL     C141921   5.194   1.101   4.402 -0.4816  0.0106 -0.3991
  161MOL     C241922   5.198   1.226   4.319  0.1709  0.1730 -0.2270
  161MOL     O341923   5.331   1.248   4.277  0.2251  0.1136 -0.0439
  161MOL     C441924   5.378   1.168   4.170  0.2305  0.4678 -0.5823
  161MOL     C541925   5.526   1.175   4.138  0.0488  0.2602  0.4355
  161MOL     H641926   5.191   1.026   4.323  0.3328  0.3766 -0.7828
  161MOL     H741927   5.279   1.077   4.466 -0.7224  2.4004  0.8668
  161MOL     H841928   5.131   1.217   4.234  0.1173  2.2762 -0.4288
  161MOL     H941929   5.325   1.193   4.078 -1.0722 -3.5145 -0.9956
  161MOL    H1041930   5.355   1.065   4.198 -1.5424  1.3257  1.2335
  161MOL    H1141931   5.567   1.123   4.225 -1.2243 -1.6151 -0.0454
  161MOL    H1241932   5.562   1.119   4.052 -1.6364 -3.3279  1.9236
  161MOL    H1341933   5.560   1.278   4.131  1.3162 -0.3368 -2.7622
  161MOL    H1441934   5.104   1.083   4.459  0.5098  1.2757  1.6339
  161MOL    C1541935   5.160   1.361   4.394  0.0312 -0.0470  0.1246
  161MOL    C1641936   5.010   1.373   4.448  0.1923 -0.2658 -1.1152
  161MOL    O1741937   4.937   1.365   4.334 -0.3125  0.4392  0.6055
  161MOL    C1841938   4.844   1.262   4.336 -0.3140  0.0690 -0.1171
  161MOL    C1941939   4.763   1.248   4.203  0.2826 -0.2470 -0.4482
  161MOL    H2041940   5.187   1.450   4.337 -1.9137  0.8004  0.4707
  161MOL    H2141941   5.231   1.379   4.476 -0.1748 -1.3757  0.5960
  161MOL    H2241942   4.993   1.288   4.514  0.2263  1.4212  1.1795
  161MOL    H2341943   4.765   1.281   4.409 -0.0571  2.3123 -0.4051
  161MOL    H2441944   4.893   1.169   4.365  0.4381  0.3532 -0.4808
  161MOL    H2541945   4.679   1.180   4.209  1.3382 -1.3392  2.6222
  161MOL    H2641946   4.835   1.221   4.125  0.1726 -1.8323  0.0014
  161MOL    H2741947   4.709   1.335   4.165 -1.5055 -1.3553 -0.4738
  161MOL    C2841948   4.990   1.502   4.532 -0.0635  0.5979 -0.1328
  161MOL    C2941949   4.855   1.525   4.597 -0.5091 -0.7079  0.2055
  161MOL    O3041950   4.804   1.400   4.645 -0.1274  0.4449 -0.2305
  161MOL    C3141951   4.785   1.398   4.784 -0.5625  0.7219 -0.1311
  161MOL    C3241952   4.742   1.258   4.809 -0.1852 -0.4734 -0.0437
  161MOL    H3341953   5.029   1.583   4.470 -0.2152  1.1238  0.4525
  161MOL    H3441954   5.061   1.502   4.615  0.3006  0.7614 -0.4495
  161MOL    H3541955   4.855   1.599   4.678 -1.3146 -0.0767 -0.3638
  161MOL    H3641956   4.705   1.458   4.828 -0.5152  0.2176  0.6618
  161MOL    H3741957   4.879   1.411   4.838 -0.4611  0.2484 -0.1864
  161MOL    H3841958   4.743   1.244   4.917  1.2488  1.9911  0.3099
  161MOL    H3941959   4.640   1.234   4.779  0.2630 -2.9541  0.3585
  161MOL    H4041960   4.811   1.191   4.759  0.4169 -0.2289  0.4568
  161MOL    C4141961   4.754   1.585   4.489 -0.0065  0.4638 -0.3125
  161MOL    C4241962   4.606   1.621   4.536 -0.1415 -0.8227 -0.9339
  161MOL    O4341963   4.515   1.613   4.428  0.1678 -0.1091  0.4306
  161MOL    C4441964   4.466   1.486   4.393 -0.2094  0.0485  0.5847
  161MOL    C4541965   4.370   1.498   4.275  0.0898  0.0164  0.2572
  161MOL    H4641966   4.756   1.525   4.399  0.0245 -1.5122  0.9791
  161MOL    H4741967   4.798   1.678   4.452  1.3693 -1.3081 -3.2788
  161MOL    H4841968   4.572   1.554   4.615  1.6037 -0.4270  0.2097
  161MOL    H4941969   4.411   1.445   4.477 -0.9803 -1.3665 -0.5831
  161MOL    H5041970   4.550   1.420   4.369 -1.0012 -0.5631 -0.5737
  161MOL    H5141971   4.415   1.532   4.182  0.7636 -0.3197  0.4599
  161MOL    H5241972   4.335   1.395   4.264 -0.5171  0.4800 -2.5451
  161MOL    H5341973   4.278   1.555   4.287 -0.5378 -0.1252 -3.3187
  161MOL    C5441974   4.599   1.762   4.601  0.1174  0.3888 -0.1988
  161MOL    C5541975   4.455   1.809   4.646  0.3148  0.2999  0.7616
  161MOL    O5641976   4.462   1.949   4.661  0.2750  0.5149  0.6236
  161MOL    C5741977   4.519   2.008   4.777  0.5879  0.0190 -0.4741
  161MOL    C5841978   4.481   2.151   4.775 -0.2767  0.1640 -0.7406
  161MOL    H5941979   4.637   1.839   4.534 -0.0956 -0.6024 -1.4782
  161MOL    H6041980   4.643   1.758   4.701 -2.2460  1.2247  0.9157
  161MOL    H6141981   4.390   1.778   4.564 -0.3261 -0.2915  1.4848
  161MOL    H6241982   4.625   1.997   4.756  0.8161 -1.3666  1.2797
  161MOL    H6341983   4.491   1.960   4.871 -1.6092  3.3155  0.6406
  161MOL    H6441984   4.388   2.159   4.832 -0.4792  1.2738 -1.2179
  161MOL    H6541985   4.540   2.210   4.845 -0.8627  0.7885 -0.7725
  161MOL    H6641986   4.472   2.199   4.678  0.3068  0.0771 -0.8427
  161MOL    C6741987   4.404   1.732   4.764  0.4094  0.7693 -0.7192
  161MOL    C6841988   4.268   1.778   4.814 -0.9317  0.6513 -0.3950
  161MOL    O6941989   4.261   1.711   4.944 -0.4537 -0.1397  0.1286
  161MOL    C7041990   4.154   1.720   5.034 -0.5504  0.6486 -0.4116
  161MOL    C7141991   4.193   1.673   5.173 -0.3011 -0.0550  0.4912
  161MOL    H7241992   4.471   1.724   4.849 -0.4408 -0.7657 -0.1918
  161MOL    H7341993   4.395   1.628   4.735  1.1025  0.8507 -1.2691
  161MOL    H7441994   4.262   1.879   4.854 -2.1383 -0.5272  2.5449
  161MOL    H7541995   4.074   1.656   4.997  0.6552 -2.0644  1.5058
  161MOL    H7641996   4.114   1.820   5.050  2.7972  1.5665  3.0244
  161MOL    H7741997   4.103   1.680   5.235  0.4864  4.3784  1.2592
  161MOL    H7841998   4.222   1.568   5.173  0.9661  0.2858  1.0567
  161MOL    H7941999   4.265   1.742   5.218  0.4334  0.5275 -1.5332
  161MOL    C8042000   4.148   1.748   4.728 -0.4412  0.3423  0.6564
  161MOL    C8142001   4.117   1.845   4.607  0.2639  0.5144  0.2106
  161MOL    O8242002   4.013   1.934   4.641 -0.5712 -0.4637 -0.6647
  161MOL    C8342003   4.039   2.023   4.751 -0.0013 -0.3256 -0.0867
  161MOL    C8442004   3.918   2.111   4.761  0.2946 -0.4116  0.2972
  161MOL    H8542005   4.057   1.739   4.788  0.1153 -0.0663  1.4541
  161MOL    H8642006   4.164   1.648   4.688  0.5596  0.1253  1.5694
  161MOL    H8742007   4.208   1.903   4.592  1.2867 -1.1583 -0.2317
  161MOL    H8842008   4.134   2.076   4.745  1.2209 -2.3355  1.1962
  161MOL    H8942009   4.038   1.963   4.842 -3.9272  0.6239  0.5774
  161MOL    H9042010   3.943   2.198   4.822 -1.0076  0.3925 -0.2969
  161MOL    H9142011   3.892   2.159   4.666 -0.8128 -1.0036  0.3001
  161MOL    H9242012   3.831   2.062   4.805 -0.8165  0.2672 -1.0992
  161MOL    C9342013   4.081   1.778   4.479 -0.4235  0.3045 -0.1374
  161MOL    C9442014   4.065   1.880   4.364  0.8067  0.0100  0.8668
  161MOL    O9542015   4.029   1.819   4.248 -0.4112 -0.1680 -0.3524
  161MOL    C9642016   3.943   1.894   4.158 -0.2655 -0.4728 -0.2156
  161MOL    C9742017   3.904   1.809   4.041  0.1081  0.7335 -0.6652
  161MOL    H9842018   3.995   1.713   4.491 -1.1658  1.3859  0.5158
  161MOL    H9942019   4.166   1.713   4.459 -2.2313 -2.4038  0.6864
  161MOL   H10042020   3.980   1.939   4.396  0.6550  1.0059 -1.2377
  161MOL   H10142021   4.000   1.983   4.130 -0.6163 -0.2830 -0.3401
  161MOL   H10242022   3.854   1.930   4.210 -0.3190  1.6709 -1.6912
  161MOL   H10342023   3.814   1.750   4.064  0.8101  0.4942  1.6198
  161MOL   H10442024   3.871   1.882   3.968  0.2714  2.0058  0.5226
  161MOL   H10542025   3.987   1.750   4.002 -0.9754 -1.2785 -0.0453
  161MOL   C10642026   4.195   1.964   4.325 -0.1268  0.3563  0.4697
  161MOL   C10742027   4.189   2.110   4.386  0.3914  0.2201 -0.6590
  161MOL   O10842028   4.113   2.189   4.286 -1.0170  0.0818 -0.4264
  161MOL   C10942029   3.999   2.247   4.341  0.2354 -0.0879 -0.4636
  161MOL   C11042030   3.936   2.319   4.229  0.1018 -0.3929  0.4147
  161MOL   H11142031   4.207   1.980   4.217 -1.1736  1.0263  0.4471
  161MOL   H11242032   4.284   1.917   4.366  1.8837  2.9577 -0.7007
  161MOL   H11342033   4.135   2.093   4.479 -1.0940 -0.6322 -1.6610
  161MOL   H11442034   4.039   2.316   4.415 -1.9556  0.6055  0.1375
  161MOL   H11542035   3.941   2.169   4.390  3.0442 -1.2217  1.1701
  161MOL   H11642036   4.001   2.396   4.189  1.1635 -0.1781  2.5034
  161MOL   H11742037   3.915   2.247   4.149 -0.0162 -1.1193  1.0931
  161MOL   H11842038   3.835   2.351   4.254 -0.2557 -0.1758 -1.2131
  161MOL   C11942039   4.334   2.162   4.421 -0.0453  0.5031  0.1030
  161MOL   C12042040   4.435   2.164   4.302  0.3233 -0.8281  0.1738
  161MOL   O12142041   4.576   2.158   4.346 -0.4002 -0.4535  0.2587
  161MOL   C12242042   4.644   2.049   4.293  0.4134  0.1113  0.2034
  161MOL   C12342043   4.791   2.059   4.329  0.9072  0.3064 -0.7283
  161MOL   H12442044   4.382   2.103   4.499 -0.2577  1.7647  1.2211
  161MOL   H12542045   4.333   2.265   4.457 -1.9242  0.4354  0.2748
  161MOL   H12642046   4.408   2.080   4.238 -0.8345 -0.4296  0.1114
  161MOL   H12742047   4.633   2.050   4.185 -2.0986  1.8780  0.4110
  161MOL   H12842048   4.610   1.955   4.337  0.7129  0.7848  1.9424
  161MOL   H12942049   4.834   2.155   4.301  0.8894  0.2117 -1.0803
  161MOL   H13042050   4.803   2.039   4.436 -1.2722  1.0807 -0.3356
  161MOL   H13142051   4.833   1.971   4.279  2.1723 -0.2332  1.1938
  161MOL   C13242052   4.413   2.286   4.207  0.3514 -0.6469 -0.0085
  161MOL   C13342053   4.432   2.272   4.056  0.5654 -0.0144 -0.3145
  161MOL   O13442054   4.575   2.286   4.051 -0.3296 -0.3575  0.0764
  161MOL   C13542055   4.638   2.200   3.954  0.2700  0.2864  0.1351
  161MOL   C13642056   4.784   2.222   3.973 -0.1029  0.0630 -0.0637
  161MOL   H13742057   4.467   2.375   4.241  0.7570 -0.4475 -1.1692
  161MOL   H13842058   4.310   2.321   4.212 -0.3574 -2.4941 -1.4409
  161MOL   H13942059   4.399   2.178   4.014  1.6546 -1.3047  1.6271
  161MOL   H14042060   4.611   2.238   3.855 -0.8863  0.8460  0.6575
  161MOL   H14142061   4.615   2.094   3.966 -0.5680  0.5675  1.0155
  161MOL   H14242062   4.847   2.182   3.893  1.3073  2.5108 -0.2330
  161MOL   H14342063   4.820   2.325   3.965  0.3897 -0.1854 -1.2813
  161MOL   H14442064   4.799   2.183   4.074 -1.2032 -1.3717 -0.4291
  161MOL   C14542065   4.378   2.386   3.967  0.7732  0.3418  0.5130
  161MOL   C14642066   4.231   2.372   3.918 -0.5427 -0.0027 -0.7886
  161MOL   O14742067   4.236   2.253   3.831 -0.2267  0.9234 -0.7095
  161MOL   C14842068   4.112   2.181   3.825 -0.3084 -0.0052 -0.0757
  161MOL   C14942069   4.149   2.064   3.739 -0.7972 -0.1319  0.3354
  161MOL   H15042070   4.453   2.399   3.889  2.6502 -1.6631  1.9381
  161MOL   H15142071   4.386   2.466   4.040  0.0431  0.9387 -0.0580
  161MOL   H15242072   4.180   2.339   4.008 -0.6777  0.2987 -0.7556
  161MOL   H15342073   4.034   2.243   3.781  1.9795  1.3638 -2.3753
  161MOL   H15442074   4.089   2.150   3.927 -0.3924 -1.9274 -0.6586
  161MOL   H15542075   4.060   2.005   3.719  0.4458 -1.9869  0.1955
  161MOL   H15642076   4.197   2.112   3.654 -0.2053  1.2998  1.4469
  161MOL   H15742077   4.224   1.997   3.780 -1.2680 -1.0264 -0.2660
  161MOL   C15842078   4.166   2.502   3.863  0.4908  0.7595 -0.5260
  161MOL   C15942079   4.194   2.638   3.941 -0.9272 -0.3984 -0.3515
  161MOL   O16042080   4.109   2.650   4.059  0.0199 -0.0511  0.4283
  161MOL   C16142081   4.173   2.631   4.191 -0.0007  0.1606  0.7527
  161MOL   C16242082   4.065   2.678   4.293 -0.2946 -0.0362 -0.1502
  161MOL   H16342083   4.061   2.472   3.860  0.6610 -0.0090  0.7343
  161MOL   H16442084   4.199   2.521   3.761 -2.4200  0.1836 -1.6142
  161MOL   H16542085   4.302   2.641   3.957 -0.5164 -0.6220 -2.8632
  161MOL   H16642086   4.268   2.686   4.188 -0.5677  1.0883 -1.5515
  161MOL   H16742087   4.205   2.532   4.223  1.3694 -0.0348 -1.1163
  161MOL   H16842088   4.095   2.671   4.398 -1.8503 -1.3152  0.2262
  161MOL   H16942089   4.045   2.785   4.282 -2.3554 -0.4509 -0.6250
  161MOL   H17042090   3.975   2.618   4.284 -0.0903 -0.2551 -0.7925
  161MOL   C17142091   4.154   2.751   3.854 -0.3155  0.6387  0.1229
  161MOL   C17242092   4.172   2.894   3.914  0.1587  0.3819  0.4494
  161MOL   O17342093   4.166   2.983   3.807  0.0573  0.5007  0.0745
  161MOL   C17442094   4.122   3.114   3.843  0.0111  0.1420 -0.6163
  161MOL   C17542095   4.101   3.184   3.715 -0.4106 -0.5664  0.1057
  161MOL   H17642096   4.051   2.729   3.828 -0.5773  1.2524  0.6168
  161MOL   H17742097   4.199   2.745   3.755 -2.4202 -0.7002 -0.7953
  161MOL   H17842098   4.091   2.911   3.985 -0.5687  2.4214 -0.8244
  161MOL   H17942099   4.201   3.162   3.901 -2.1203  2.2658  0.6378
  161MOL   H18042100   4.022   3.128   3.886 -0.0279  0.5721 -0.8398
  161MOL   H18142101   4.014   3.138   3.670 -0.0797  0.0427 -1.1707
  161MOL   H18242102   4.098   3.292   3.734 -0.1288 -0.6154  0.4336
  161MOL   H18342103   4.190   3.156   3.659  0.9227  0.0189  1.8655
  161MOL   C18442104   4.307   2.923   3.988 -0.3879 -0.1036  0.3285
  161MOL   C18542105   4.430   2.938   3.891  0.4267  0.0094  0.0229
  161MOL   O18642106   4.479   2.806   3.871 -0.0704 -0.2285  0.2325
  161MOL   C18742107   4.529   2.777   3.743  1.3376  0.0543  0.6988
  161MOL   C18842108   4.552   2.631   3.727  0.6798  1.0468  0.0103
  161MOL   H18942109   4.329   2.851   4.066  0.0109  1.4826  1.7063
  161MOL   H19042110   4.307   3.021   4.036 -2.5362 -0.3143  0.8269
  161MOL   H19142111   4.407   2.988   3.797 -0.6473  0.4025  0.5002
  161MOL   H19242112   4.627   2.814   3.714  0.8070 -0.5502 -1.9548
  161MOL   H19342113   4.452   2.812   3.674  1.3754 -0.4855  0.3781
  161MOL   H19442114   4.617   2.583   3.800  0.4308  0.6831 -0.0080
  161MOL   H19542115   4.456   2.580   3.737  1.6559 -1.2513 -1.7893
  161MOL   H19642116   4.581   2.617   3.623  0.6885 -0.7404  0.2337
  161MOL   C19742117   4.552   2.998   3.956 -0.2538 -0.1057 -0.1122
  161MOL   C19842118   4.563   3.152   3.974 -0.3176 -0.0375  0.0073
  161MOL   O19942119   4.457   3.211   4.047  0.0345 -0.3340 -0.0398
  161MOL   C20042120   4.494   3.279   4.164 -0.9440  0.4072 -0.1721
  161MOL   C20142121   4.546   3.174   4.269 -0.1349 -0.8957  0.5176
  161MOL   H20242122   4.645   2.960   3.914  0.8707  2.2183  0.2040
  161MOL   H20342123   4.561   2.954   4.056  1.5355  0.1599 -0.1502
  161MOL   H20442124   4.659   3.166   4.023 -0.3069 -0.3350  0.0721
  161MOL   H20542125   4.407   3.335   4.200 -0.4010  1.0833  0.1192
  161MOL   H20642126   4.569   3.358   4.153 -0.9983  0.3512 -0.9374
  161MOL   H20742127   4.618   3.109   4.219  1.1402  1.3570 -0.6575
  161MOL   H20842128   4.586   3.220   4.360 -0.7387  2.2842 -0.7588
  161MOL   H20942129   4.467   3.104   4.298 -0.9998  0.0872  0.5599
  161MOL   C21042130   4.572   3.227   3.847  0.2862 -0.2569 -0.4445
  161MOL   C21142131   4.605   3.375   3.848  0.0496 -0.5730  0.5969
  161MOL   O21242132   4.613   3.427   3.716 -0.1266 -0.6789  0.3632
  161MOL   C21342133   4.484   3.443   3.654  0.2321  0.0046  0.0683
  161MOL   C21442134   4.497   3.522   3.515 -0.3615  0.3492 -0.6597
  161MOL   H21542135   4.475   3.212   3.800 -0.4621 -0.7478  1.2180
  161MOL   H21642136   4.652   3.172   3.796 -0.3545 -1.3233 -0.2986
  161MOL   H21742137   4.523   3.421   3.904  0.3320  0.7554 -0.0555
  161MOL   H21842138   4.413   3.486   3.724 -0.0841 -1.2457  0.5291
  161MOL   H21942139   4.443   3.344   3.634  1.0922 -0.3172 -0.1235
  161MOL   H22042140   4.570   3.601   3.531  0.2425 -0.5198  1.0107
  161MOL   H22142141   4.547   3.450   3.451  1.2779  1.3272 -0.4866
  161MOL   H22242142   4.409   3.561   3.462 -0.6302  1.8728  0.8378
  161MOL   C22342143   4.736   3.413   3.914 -0.7001 -0.0340 -0.5723
  161MOL   C22442144   4.781   3.564   3.928 -0.2167 -0.2588 -0.3517
  161MOL   O22542145   4.921   3.573   3.924 -0.0997  0.1304  0.6976
  161MOL   C22642146   4.974   3.568   3.796 -0.1450  0.2809  0.6040
  161MOL   C22742147   5.127   3.533   3.801 -0.1712 -0.3873 -0.5705
  161MOL   H22842148   4.813   3.353   3.867  0.0502  0.7154 -0.3091
  161MOL   H22942149   4.742   3.365   4.012  0.7385  3.0139  0.9069
  161MOL   H23042150   4.727   3.609   3.845  1.5718  1.2229 -0.7445
  161MOL   H23142151   4.954   3.664   3.749  0.9030  0.1605 -0.0928
  161MOL   H23242152   4.929   3.489   3.735  3.9826 -2.1639  0.5289
  161MOL   H23342153   5.167   3.510   3.702  1.2695  0.5148 -0.2177
  161MOL   H23442154   5.180   3.616   3.847 -2.6681  1.4552 -0.8965
  161MOL   H23542155   5.151   3.440   3.852  1.1414 -1.1085 -2.4238
  161MOL   C23642156   4.746   3.630   4.066  0.9284  0.5799 -0.5465
  161MOL   C23742157   4.603   3.678   4.087  0.5017  0.7870  0.0459
  161MOL   O23842158   4.572   3.779   3.991 -0.6058 -0.5809 -0.0360
  161MOL   C23942159   4.460   3.758   3.909 -0.2463  0.5382 -0.8293
  161MOL   C24042160   4.443   3.883   3.816 -0.5464  0.4637 -0.2467
  161MOL   H24142161   4.804   3.722   4.066  0.3584  0.9418  0.0858
  161MOL   H24242162   4.775   3.570   4.152  0.1742  1.4125  0.2816
  161MOL   H24342163   4.539   3.593   4.064  0.1071  0.4344  2.3024
  161MOL   H24442164   4.373   3.749   3.973  1.0773 -0.6242  0.8614
  161MOL   H24542165   4.482   3.660   3.866 -0.6424  1.0104 -2.1630
  161MOL   H24642166   4.372   3.866   3.735 -0.9080 -2.3453  0.6009
  161MOL   H24742167   4.421   3.970   3.878  1.1703  1.2731 -0.7549
  161MOL   H24842168   4.533   3.910   3.761 -1.1042  1.7187 -0.5521
  161MOL   C24942169   4.589   3.712   4.238  0.1461  0.2297  0.6567
  161MOL   C25042170   4.453   3.770   4.278 -0.1053  0.7958 -0.3618
  161MOL   O25142171   4.368   3.654   4.284 -0.2504 -0.8588 -0.0169
  161MOL   C25242172   4.238   3.687   4.341 -0.6723  0.3541  0.2048
  161MOL   C25342173   4.165   3.554   4.365 -0.3683  0.4662 -0.5214
  161MOL   H25442174   4.670   3.779   4.266  1.7788 -1.8606  1.0939
  161MOL   H25542175   4.620   3.628   4.301 -0.2596  1.5263  2.6324
  161MOL   H25642176   4.452   3.824   4.373  2.0707 -2.2145  1.4888
  161MOL   H25742177   4.190   3.748   4.264  0.3475  0.2416 -0.5231
  161MOL   H25842178   4.249   3.739   4.436  3.3504  1.2498 -0.6636
  161MOL   H25942179   4.143   3.501   4.272  0.1433 -1.4174  0.4058
  161MOL   H26042180   4.231   3.494   4.428  2.2308  2.9219 -0.8647
  161MOL   H26142181   4.070   3.568   4.417  0.6715  0.4110  1.4427
  161MOL   H26242182   4.418   3.839   4.202 -1.0956 -0.2524 -0.8792
  162MOL     C142183   0.903   0.860   5.222 -0.1352 -0.7687 -0.2332
  162MOL     C242184   0.997   0.892   5.107 -0.1039  0.0423 -0.0493
  162MOL     O342185   1.078   0.777   5.105 -0.1455  0.3843  0.1111
  162MOL     C442186   1.036   0.681   5.011 -0.4185 -0.2257 -0.1072
  162MOL     C542187   1.049   0.542   5.065 -0.4250  0.0715 -0.1990
  162MOL     H642188   0.836   0.777   5.200  0.0230 -0.8459 -0.4249
  162MOL     H742189   0.956   0.838   5.315 -0.6647 -0.0837  0.2380
  162MOL     H842190   0.953   0.905   5.008  2.5928 -0.6629 -1.4090
  162MOL     H942191   1.094   0.686   4.919 -0.5254 -0.8300 -0.2123
  162MOL    H1042192   0.933   0.708   4.989 -0.3756  0.1826  0.1887
  162MOL    H1142193   0.987   0.539   5.155 -1.2096 -2.0433 -0.7937
  162MOL    H1242194   1.008   0.467   4.999 -1.5029 -1.2441  1.9022
  162MOL    H1342195   1.154   0.520   5.085 -0.3667 -0.2725 -0.8879
  162MOL    H1442196   0.830   0.937   5.245 -0.2896 -0.3938 -1.9601
  162MOL    C1542197   1.093   1.009   5.137  0.0464  0.5101  0.2394
  162MOL    C1642198   1.024   1.137   5.202  1.0649 -0.6877  0.9326
  162MOL    O1742199   0.938   1.183   5.099  0.1287  0.2714  0.7983
  162MOL    C1842200   0.812   1.223   5.138 -0.2354 -0.7674 -0.3619
  162MOL    C1942201   0.737   1.280   5.020  0.0717  0.6286 -0.3704
  162MOL    H2042202   1.141   1.043   5.044 -0.1955 -1.6165 -0.6828
  162MOL    H2142203   1.174   0.971   5.200  0.3827 -0.4139 -0.7257
  162MOL    H2242204   0.961   1.106   5.286 -1.8926  0.9579 -0.6094
  162MOL    H2342205   0.824   1.303   5.210  1.0880 -1.9042  0.7170
  162MOL    H2442206   0.751   1.145   5.186  0.4446 -0.1107  1.6265
  162MOL    H2542207   0.740   1.231   4.923  1.3409  1.6137 -0.8417
  162MOL    H2642208   0.761   1.386   5.012 -0.2013  0.7261  0.0955
  162MOL    H2742209   0.636   1.267   5.058  0.1535 -0.6132 -0.5579
  162MOL    C2842210   1.115   1.254   5.242 -0.5606 -0.2972 -0.3045
  162MOL    C2942211   1.243   1.225   5.313  1.0580 -0.1910  0.1776
  162MOL    O3042212   1.226   1.194   5.453 -0.2404 -0.2914 -0.5021
  162MOL    C3142213   1.249   1.061   5.474  0.1407  0.1093 -0.4093
  162MOL    C3242214   1.266   1.032   5.629  0.0896 -0.2799 -0.0973
  162MOL    H3342215   1.039   1.301   5.305 -0.9504  0.1895 -1.1340
  162MOL    H3442216   1.124   1.316   5.154  2.0674  1.4545  1.1438
  162MOL    H3542217   1.288   1.142   5.258 -2.3284 -1.0691 -1.3958
  162MOL    H3642218   1.338   1.019   5.426  1.2053  0.7117  1.0113
  162MOL    H3742219   1.166   1.002   5.434  1.1930 -0.0912 -2.3351
  162MOL    H3842220   1.355   1.084   5.665 -0.2700 -0.0109  0.4028
  162MOL    H3942221   1.181   1.062   5.690  1.2778 -0.0414  1.4698
  162MOL    H4042222   1.281   0.925   5.641  0.5536 -0.1616  0.3936
  162MOL    C4142223   1.340   1.342   5.309  0.2946 -0.2974  0.5812
  162MOL    C4242224   1.406   1.377   5.174  0.0016 -0.5817 -0.6339
  162MOL    O4342225   1.456   1.261   5.105  0.6764  0.0053 -0.3128
  162MOL    C4442226   1.417   1.269   4.973  0.4184  0.7772 -0.2129
  162MOL    C4542227   1.464   1.116   4.924 -0.7446  0.1114 -0.2906
  162MOL    H4642228   1.429   1.321   5.368  0.0723  0.5072  1.2101
  162MOL    H4742229   1.296   1.429   5.357 -0.3357 -0.0662 -0.4110
  162MOL    H4842230   1.325   1.421   5.116  2.0095  1.9027 -1.6632
  162MOL    H4942231   1.468   1.340   4.907  0.2750  0.4352 -0.6984
  162MOL    H5042232   1.310   1.286   4.956 -0.1460 -1.7038  0.6543
  162MOL    H5142233   1.443   1.096   4.819 -0.3193  0.8197 -0.5153
  162MOL    H5242234   1.568   1.094   4.952 -1.4111  1.0422  3.1709
  162MOL    H5342235   1.416   1.037   4.981  0.5112 -0.6683 -0.2960
  162MOL    C5442236   1.533   1.461   5.175 -0.5873 -0.3347 -0.5383
  162MOL    C5542237   1.522   1.607   5.229 -0.0713  0.5161  0.1118
  162MOL    O5642238   1.432   1.677   5.134  0.0607  0.4620  0.2654
  162MOL    C5742239   1.317   1.728   5.196  0.6849 -0.1614 -0.7533
  162MOL    C5842240   1.353   1.861   5.268  0.4745  0.4966  0.1703
  162MOL    H5942241   1.567   1.479   5.073 -2.3186  1.3217 -0.8519
  162MOL    H6042242   1.607   1.406   5.234  0.5606  2.7615  1.0973
  162MOL    H6142243   1.478   1.611   5.329 -2.7593  1.4518 -1.0683
  162MOL    H6242244   1.284   1.667   5.280 -2.0324  1.5535 -0.4958
  162MOL    H6342245   1.235   1.739   5.124  0.7518 -0.1231 -0.8231
  162MOL    H6442246   1.369   1.945   5.201  1.7900  0.9260  0.9979
  162MOL    H6542247   1.267   1.888   5.328  0.5291  1.7775 -0.3297
  162MOL    H6642248   1.437   1.843   5.335 -0.5248 -3.1719  0.5460
  162MOL    C6742249   1.655   1.679   5.226 -0.1754  0.3398  0.0337
  162MOL    C6842250   1.764   1.623   5.327  0.5028  0.8226 -0.2564
  162MOL    O6942251   1.730   1.674   5.454 -0.2978  0.7989  0.3402
  162MOL    C7042252   1.753   1.596   5.568 -0.3412  0.0320  0.3951
  162MOL    C7142253   1.787   1.696   5.684 -0.1350 -0.0592 -0.3586
  162MOL    H7242254   1.637   1.783   5.254 -1.1603 -0.2121  1.5040
  162MOL    H7342255   1.688   1.679   5.122  1.0227 -2.5315  0.3815
  162MOL    H7442256   1.772   1.516   5.312 -3.4679  0.1198  1.8133
  162MOL    H7542257   1.827   1.521   5.540 -0.2575  0.9358 -1.9004
  162MOL    H7642258   1.668   1.536   5.598 -0.1777 -1.0643 -1.3127
  162MOL    H7742259   1.871   1.760   5.657  2.1621 -1.8022  2.4215
  162MOL    H7842260   1.704   1.757   5.721  1.3172  0.6213  1.8716
  162MOL    H7942261   1.829   1.633   5.762 -1.1249  1.2832  1.2860
  162MOL    C8042262   1.899   1.692   5.306 -0.2360 -0.1760 -0.3682
  162MOL    C8142263   1.954   1.687   5.160  0.1437 -0.2426  0.1262
  162MOL    O8242264   1.956   1.548   5.116 -0.4327 -0.0028  0.3080
  162MOL    C8342265   1.915   1.539   4.982 -1.0594 -0.0985 -0.0718
  162MOL    C8442266   1.916   1.384   4.961 -0.1928  0.7258 -0.5001
  162MOL    H8542267   1.967   1.647   5.378  1.3729  0.2288 -1.5983
  162MOL    H8642268   1.892   1.799   5.325 -1.2137  0.0939 -2.0987
  162MOL    H8742269   1.905   1.759   5.094 -0.1238 -0.5921 -0.0558
  162MOL    H8842270   1.987   1.586   4.915  2.1001 -2.6105  1.3896
  162MOL    H8942271   1.815   1.580   4.968 -1.1786 -0.3467  0.0407
  162MOL    H9042272   1.867   1.328   5.040  5.3012 -4.0060 -0.1423
  162MOL    H9142273   1.862   1.366   4.868 -0.4212  0.7297 -0.3665
  162MOL    H9242274   2.019   1.349   4.957 -0.5689 -0.6306  1.0842
  162MOL    C9342275   2.108   1.710   5.156  0.2142  1.1258 -0.0123
  162MOL    C9442276   2.150   1.847   5.213 -0.2080 -0.2351  0.6629
  162MOL    O9542277   2.111   1.955   5.126 -0.5657  0.3109  0.8121
  162MOL    C9642278   2.005   2.045   5.166  0.2516 -0.1520 -0.2026
  162MOL    C9742279   2.069   2.171   5.219  0.0233 -0.3914 -0.1139
  162MOL    H9842280   2.148   1.701   5.055 -0.6056 -0.4023 -0.2195
  162MOL    H9942281   2.155   1.628   5.209 -0.8793 -0.3379 -1.2717
  162MOL   H10042282   2.096   1.860   5.307 -2.8032  2.1911 -1.0436
  162MOL   H10142283   1.920   2.001   5.218 -0.9480  2.1355 -0.1696
  162MOL   H10242284   1.957   2.073   5.071 -0.1090  1.6556  0.4968
  162MOL   H10342285   2.147   2.210   5.154  1.7920 -0.3911  1.9555
  162MOL   H10442286   1.992   2.245   5.241 -0.5213 -1.0478  0.2147
  162MOL   H10542287   2.129   2.155   5.309  1.6958  2.7503 -0.5792
  162MOL   C10642288   2.301   1.871   5.227  0.3632 -0.2637  0.8224
  162MOL   C10742289   2.377   1.774   5.313 -0.8102 -0.2436 -0.3105
  162MOL   O10842290   2.324   1.798   5.441  0.2487 -0.4321  0.1890
  162MOL   C10942291   2.275   1.685   5.513 -0.1663 -0.2721 -0.6012
  162MOL   C11042292   2.200   1.734   5.647 -0.1217  0.3207  0.2838
  162MOL   H11142293   2.307   1.967   5.279  0.5240  0.0270  0.2704
  162MOL   H11242294   2.355   1.868   5.132  0.2012  0.9730  0.6798
  162MOL   H11342295   2.344   1.681   5.267 -2.6665  2.2372 -4.2135
  162MOL   H11442296   2.356   1.619   5.546 -1.3569 -2.2057 -1.4503
  162MOL   H11542297   2.203   1.634   5.449 -2.5945  0.9446  1.1357
  162MOL   H11642298   2.179   1.642   5.702 -1.0484  1.3761  1.7179
  162MOL   H11742299   2.281   1.782   5.702  1.4257 -1.5039 -0.3337
  162MOL   H11842300   2.118   1.804   5.631 -0.5004  0.5398  3.0361
  162MOL   C11942301   2.528   1.801   5.328 -0.0998  0.4427  0.1646
  162MOL   C12042302   2.604   1.682   5.398  0.0581  0.5892  0.3431
  162MOL   O12142303   2.734   1.726   5.419 -0.8924  0.3151  0.2615
  162MOL   C12242304   2.795   1.669   5.528  0.8427 -0.2501 -0.0372
  162MOL   C12342305   2.920   1.743   5.573 -0.3814 -0.2491  0.0451
  162MOL   H12442306   2.546   1.883   5.398 -0.8332  0.3442  0.4638
  162MOL   H12542307   2.576   1.838   5.237 -0.7683  1.9177  0.3974
  162MOL   H12642308   2.554   1.663   5.493  1.5415  0.0133  1.0276
  162MOL   H12742309   2.824   1.569   5.495 -1.6907 -0.9015 -0.4036
  162MOL   H12842310   2.724   1.659   5.610 -0.5490  0.0535 -1.1900
  162MOL   H12942311   2.986   1.682   5.634 -0.9380 -0.5580  0.3406
  162MOL   H13042312   2.983   1.754   5.485  0.1802 -1.7663  0.2385
  162MOL   H13142313   2.904   1.841   5.618  1.5973 -0.6588  1.7188
  162MOL   C13242314   2.594   1.546   5.332  0.6861  0.4471 -0.0520
  162MOL   C13342315   2.678   1.520   5.208  0.4629 -0.1103 -0.6152
  162MOL   O13442316   2.633   1.598   5.097  0.4495  0.3409  0.1039
  162MOL   C13542317   2.738   1.662   5.026 -0.1334 -0.2852 -0.0607
  162MOL   C13642318   2.675   1.757   4.920  0.0312 -0.5469  0.0343
  162MOL   H13742319   2.490   1.521   5.315  0.4707  1.5882 -0.4134
  162MOL   H13842320   2.629   1.478   5.410 -1.5910 -0.3997  0.2618
  162MOL   H13942321   2.778   1.551   5.239  0.8003 -1.1255 -0.6465
  162MOL   H14042322   2.807   1.589   4.983  1.5498  0.7317  0.8796
  162MOL   H14142323   2.789   1.722   5.101 -2.1548  0.6342  0.6080
  162MOL   H14242324   2.602   1.705   4.859 -1.7965 -0.9247  2.4666
  162MOL   H14342325   2.619   1.840   4.964  1.6115 -0.0410  1.1622
  162MOL   H14442326   2.761   1.798   4.868 -0.5915  1.0564  0.2531
  162MOL   C14542327   2.679   1.371   5.173  0.4033 -0.2726 -0.4354
  162MOL   C14642328   2.559   1.304   5.103  0.3018  0.7343  0.3640
  162MOL   O14742329   2.453   1.294   5.189 -0.0786  0.2367 -0.1544
  162MOL   C14842330   2.340   1.361   5.143 -0.4202  0.0393  0.7159
  162MOL   C14942331   2.232   1.355   5.245 -0.6658  0.0488 -0.7404
  162MOL   H15042332   2.682   1.314   5.266 -0.8695  1.0021  0.3984
  162MOL   H15142333   2.773   1.347   5.123  1.4034  0.0787  1.2250
  162MOL   H15242334   2.532   1.362   5.014 -3.3713  0.1533  1.0069
  162MOL   H15342335   2.299   1.327   5.047  0.9177  2.5479 -0.7831
  162MOL   H15442336   2.367   1.464   5.123  2.1491 -0.7712 -0.1698
  162MOL   H15542337   2.140   1.396   5.203 -2.7680 -3.2658  0.4041
  162MOL   H15642338   2.221   1.253   5.283 -0.2127  0.3586  0.2294
  162MOL   H15742339   2.253   1.421   5.329  0.2033 -1.6346  0.4044
  162MOL   C15842340   2.597   1.173   5.049 -0.0811  0.7725  0.2380
  162MOL   C15942341   2.490   1.088   4.980 -0.3324 -0.1789 -0.1028
  162MOL   O16042342   2.549   0.958   4.984 -0.0420 -0.3897  0.3192
  162MOL   C16142343   2.504   0.870   5.091 -0.4226  0.3934 -0.8052
  162MOL   C16242344   2.558   0.727   5.058 -0.3745 -0.7321 -0.0071
  162MOL   H16342345   2.634   1.110   5.129  1.0471 -1.7127 -2.1479
  162MOL   H16442346   2.680   1.189   4.980  0.7638  2.9801  1.7220
  162MOL   H16542347   2.396   1.093   5.035  0.4345 -1.8382  1.4181
  162MOL   H16642348   2.396   0.871   5.102 -0.1935  0.6845  1.9850
  162MOL   H16742349   2.546   0.900   5.188 -0.4194  0.1467 -0.7285
  162MOL   H16842350   2.508   0.646   5.110 -1.5820 -0.8237 -1.2910
  162MOL   H16942351   2.553   0.705   4.951  0.1195  0.7101 -0.3414
  162MOL   H17042352   2.660   0.702   5.087 -0.2716  0.3254  0.5789
  162MOL   C17142353   2.463   1.119   4.826  0.2615 -0.4891  0.2569
  162MOL   C17242354   2.367   1.023   4.749  0.8200 -0.0758 -0.4257
  162MOL   O17342355   2.442   0.929   4.668  0.3106 -0.1086 -0.8059
  162MOL   C17442356   2.391   0.795   4.674 -0.8452 -0.2192 -0.1995
  162MOL   C17542357   2.492   0.713   4.599 -0.8917 -0.4338 -0.1020
  162MOL   H17642358   2.561   1.125   4.778 -1.3441  1.2139 -2.9402
  162MOL   H17742359   2.421   1.219   4.816  2.3231  0.6798  2.7021
  162MOL   H17842360   2.308   0.971   4.824 -1.3316  1.2037 -1.1828
  162MOL   H17942361   2.293   0.791   4.629 -0.7189  0.3067 -0.5303
  162MOL   H18042362   2.391   0.768   4.780  2.1637 -1.2004 -0.3824
  162MOL   H18142363   2.481   0.731   4.492 -0.0837  3.1220  0.3618
  162MOL   H18242364   2.591   0.745   4.631 -0.2276 -2.3151 -0.2289
  162MOL   H18342365   2.485   0.606   4.621  2.8144 -0.6690  0.2337
  162MOL   C18442366   2.268   1.088   4.646  0.3449 -0.1207  0.2158
  162MOL   C18542367   2.128   1.105   4.721 -0.0325 -0.0077  0.5124
  162MOL   O18642368   2.077   0.976   4.745 -0.3552 -0.1854 -0.3157
  162MOL   C18742369   1.976   0.969   4.843  1.0448 -0.1557 -0.5680
  162MOL   C18842370   1.927   0.826   4.860  1.0716 -0.1587  0.5912
  162MOL   H18942371   2.253   1.024   4.559  0.3955 -0.1225  0.2081
  162MOL   H19042372   2.310   1.184   4.618 -0.6147  0.5808  1.1650
  162MOL   H19142373   2.133   1.164   4.812  0.9984 -0.8597  1.0128
  162MOL   H19242374   1.893   1.038   4.830  2.1019  1.5528  1.4468
  162MOL   H19342375   2.020   0.996   4.939 -1.8576 -0.3414  0.8616
  162MOL   H19442376   1.847   0.820   4.934 -0.9211 -0.1271 -1.5072
  162MOL   H19542377   1.892   0.796   4.761 -0.2763 -0.5128  1.1635
  162MOL   H19642378   2.008   0.763   4.897  1.1537  0.3836  1.3695
  162MOL   C19742379   2.028   1.186   4.627  0.5634 -0.2853  0.2845
  162MOL   C19842380   2.080   1.326   4.592 -0.0768  0.7408  0.0839
  162MOL   O19942381   2.103   1.398   4.706 -0.1709  0.4098 -0.2042
  162MOL   C20042382   2.186   1.515   4.691  0.0024  0.2096  0.4899
  162MOL   C20142383   2.275   1.528   4.820 -0.8191  0.3560  0.1090
  162MOL   H20242384   1.925   1.187   4.663 -0.8126 -3.1876 -3.2783
  162MOL   H20342385   2.026   1.120   4.540  0.4413 -1.8749  1.4682
  162MOL   H20442386   2.166   1.316   4.526 -1.0214  0.4388 -1.1251
  162MOL   H20542387   2.115   1.596   4.673 -0.9401 -0.3639  1.5434
  162MOL   H20642388   2.259   1.509   4.611  0.9623 -0.4817  1.3924
  162MOL   H20742389   2.217   1.526   4.912 -3.4528  1.0210 -1.4973
  162MOL   H20842390   2.354   1.452   4.820 -1.1274  0.0242  0.8955
  162MOL   H20942391   2.320   1.627   4.828  0.1749  0.1419 -2.3783
  162MOL   C21042392   1.976   1.411   4.502 -0.2735  0.1264 -0.3002
  162MOL   C21142393   1.840   1.464   4.560  0.7393  0.6262 -0.2041
  162MOL   O21242394   1.747   1.355   4.561 -0.3485  0.9966  0.1796
  162MOL   C21342395   1.648   1.355   4.661 -0.0968  0.5276  0.2609
  162MOL   C21442396   1.508   1.336   4.594  0.1938  0.4469  0.1952
  162MOL   H21542397   1.949   1.344   4.420 -2.3930  1.2094 -0.5358
  162MOL   H21642398   2.033   1.492   4.457  0.4522 -0.1193  0.1849
  162MOL   H21742399   1.862   1.491   4.663 -1.6326 -0.0183  0.5076
  162MOL   H21842400   1.660   1.450   4.713  0.6218  0.2846  0.5520
  162MOL   H21942401   1.678   1.277   4.731 -0.7135  0.9412  0.9831
  162MOL   H22042402   1.488   1.229   4.591  1.1835  0.2841 -1.7810
  162MOL   H22142403   1.432   1.369   4.665 -2.2800 -0.8057 -1.7895
  162MOL   H22242404   1.502   1.382   4.495 -0.3947  0.2550  0.1407
  162MOL   C22342405   1.783   1.575   4.470 -0.0907 -0.1470 -0.1475
  162MOL   C22442406   1.859   1.711   4.471 -0.1147 -0.0123  0.6505
  162MOL   O22542407   1.807   1.768   4.592  0.6384  0.4215 -0.0129
  162MOL   C22642408   1.882   1.845   4.678 -0.1625  0.3803 -0.2187
  162MOL   C22742409   1.775   1.870   4.787 -0.6349 -0.0302  0.3968
  162MOL   H22842410   1.684   1.597   4.508 -0.1623 -0.4495 -0.1598
  162MOL   H22942411   1.782   1.530   4.371 -1.9306 -2.7214  0.9850
  162MOL   H23042412   1.965   1.694   4.491  0.1347  0.1352 -0.5212
  162MOL   H23142413   1.906   1.936   4.622  0.1603  0.1844 -0.4004
  162MOL   H23242414   1.973   1.795   4.709 -0.5404  0.0210  0.3109
  162MOL   H23342415   1.685   1.920   4.752 -0.3660  0.2046  0.0382
  162MOL   H23442416   1.740   1.779   4.836  0.9789 -2.1643 -2.2857
  162MOL   H23542417   1.827   1.936   4.858 -1.3961 -0.1008  1.0347
  162MOL   C23642418   1.838   1.804   4.353  0.3440 -0.1268  0.4721
  162MOL   C23742419   1.921   1.760   4.225 -0.0789 -0.2160  0.0541
  162MOL   O23842420   2.054   1.831   4.223 -0.2742 -0.8756 -0.1872
  162MOL   C23942421   2.156   1.779   4.143 -0.3261 -0.2905  0.4830
  162MOL   C24042422   2.281   1.854   4.188  0.4005 -0.5952 -0.2357
  162MOL   H24142423   1.864   1.905   4.383  1.8726  0.1910 -1.7851
  162MOL   H24242424   1.732   1.805   4.330  0.5399  0.2467 -0.4295
  162MOL   H24342425   1.939   1.653   4.228  1.2925 -0.0417 -1.1429
  162MOL   H24442426   2.138   1.787   4.035  0.0786 -0.9288  0.3654
  162MOL   H24542427   2.162   1.672   4.164  0.6109 -0.3284  0.0417
  162MOL   H24642428   2.298   1.856   4.295  1.6205  0.3638 -0.4318
  162MOL   H24742429   2.372   1.811   4.147 -0.0484 -1.8950  0.1177
  162MOL   H24842430   2.264   1.955   4.150 -0.4650 -0.4633  0.4866
  162MOL   C24942431   1.841   1.798   4.100  0.1990  0.0866 -0.3712
  162MOL   C25042432   1.718   1.714   4.062  0.1037 -0.5897 -0.7170
  162MOL   O25142433   1.748   1.573   4.067 -0.4369 -0.6599 -0.3919
  162MOL   C25242434   1.632   1.495   4.053  0.1974 -0.0915  0.2031
  162MOL   C25342435   1.663   1.345   4.078  0.1649 -0.1418 -0.5774
  162MOL   H25442436   1.905   1.777   4.014 -1.1845  0.6288 -1.5505
  162MOL   H25542437   1.832   1.905   4.116  0.3831 -0.2587  2.3433
  162MOL   H25642438   1.633   1.725   4.129  0.3077  0.9111 -0.6893
  162MOL   H25742439   1.574   1.516   3.964 -0.2827 -0.6330  0.3835
  162MOL   H25842440   1.566   1.523   4.135  0.0170 -0.2877  0.1257
  162MOL   H25942441   1.725   1.320   4.164 -0.9751  4.0867  1.6112
  162MOL   H26042442   1.569   1.290   4.071  0.1453  0.0169 -1.6865
  162MOL   H26142443   1.717   1.308   3.991 -0.6243 -0.4604 -0.9332
  162MOL   H26242444   1.676   1.721   3.962  1.4825 -0.6878 -1.3164
  163MOL     C142445   4.574   5.606   7.449 -0.7415 -0.4131  0.2395
  163MOL     C242446   4.492   5.505   7.531  0.4512  0.0580  0.0884
  163MOL     O342447   4.353   5.516   7.510  0.4817 -0.0293 -0.2489
  163MOL     C442448   4.299   5.469   7.383 -0.2496  0.1896 -0.1031
  163MOL     C542449   4.174   5.555   7.350  0.1342  0.5106  0.7896
  163MOL     H642450   4.586   5.576   7.345 -1.7741  0.7275 -0.2222
  163MOL     H742451   4.534   5.706   7.433  0.8802  0.4097  1.3015
  163MOL     H842452   4.520   5.416   7.475  0.4004  0.5086 -0.6551
  163MOL     H942453   4.276   5.363   7.392  0.6180 -0.0517 -0.7110
  163MOL    H1042454   4.374   5.480   7.305  0.4559  0.7888  0.6345
  163MOL    H1142455   4.137   5.529   7.251  2.0419 -0.2855  0.2581
  163MOL    H1242456   4.091   5.520   7.412 -0.4495  1.4455  0.5475
  163MOL    H1342457   4.189   5.662   7.362  0.6566  0.7198 -1.4397
  163MOL    H1442458   4.677   5.610   7.484 -0.2262  2.6797 -1.4311
  163MOL    C1542459   4.515   5.489   7.684 -0.7392 -0.3774  0.0012
  163MOL    C1642460   4.665   5.487   7.735 -0.3032  0.2825 -0.6428
  163MOL    O1742461   4.733   5.365   7.703 -0.4539 -0.3856 -0.1434
  163MOL    C1842462   4.836   5.380   7.600  0.0603  0.7690  0.2656
  163MOL    C1942463   4.883   5.244   7.549 -0.2641  0.1571  0.0335
  163MOL    H2042464   4.470   5.397   7.721  1.5971 -1.4735  0.1943
  163MOL    H2142465   4.477   5.580   7.731 -0.3025 -0.6865  0.9658
  163MOL    H2242466   4.719   5.570   7.688 -0.7615  0.7851 -0.2930
  163MOL    H2342467   4.917   5.437   7.646  0.1685 -0.3871  1.5524
  163MOL    H2442468   4.800   5.437   7.515  0.7526 -0.7120 -1.0505
  163MOL    H2542469   4.825   5.187   7.478  1.3156 -1.0063 -0.3519
  163MOL    H2642470   4.902   5.187   7.640 -1.5557  0.0980  0.2800
  163MOL    H2742471   4.980   5.261   7.503 -1.5367  2.5185 -1.9075
  163MOL    C2842472   4.664   5.504   0.050  0.5489  0.1852 -0.0453
  163MOL    C2942473   4.799   5.495   0.121  0.0908  0.3197 -0.2361
  163MOL    O3042474   4.776   5.509   0.267 -0.5854  0.0781 -0.4364
  163MOL    C3142475   4.715   5.390   0.322  0.2364  0.1311  0.1459
  163MOL    C3242476   4.736   5.407   0.476 -0.2786  0.0889  0.0888
  163MOL    H3342477   4.598   5.426   0.088 -1.3206  1.2162 -1.0969
  163MOL    H3442478   4.619   5.599   0.076 -1.4674 -1.0018  0.9041
  163MOL    H3542479   4.841   5.398   0.093  0.1235 -0.1122  1.2773
  163MOL    H3642480   4.766   5.301   0.286 -1.4108 -0.5508 -0.5567
  163MOL    H3742481   4.608   5.379   0.305  0.1676  1.1810 -0.1770
  163MOL    H3842482   4.717   5.312   0.526 -0.3734 -1.1872 -2.3033
  163MOL    H3942483   4.841   5.417   0.504  0.4474 -0.1965 -2.4773
  163MOL    H4042484   4.678   5.485   0.526 -1.4193 -0.8021  0.1900
  163MOL    C4142485   4.894   5.608   0.092  0.4939  0.4100  0.4242
  163MOL    C4242486   5.033   5.595   0.153  0.0552 -0.1877  0.1220
  163MOL    O4342487   5.098   5.722   0.144 -0.3141  0.8362 -0.4873
  163MOL    C4442488   5.096   5.795   0.265  0.6304 -0.2514  0.2081
  163MOL    C4542489   5.155   5.943   0.247 -0.5178 -0.9104  0.5358
  163MOL    H4642490   4.851   5.693   0.146 -1.1295 -1.0389  1.4633
  163MOL    H4742491   4.902   5.633   7.830  0.7576 -1.6325 -0.0498
  163MOL    H4842492   5.024   5.569   0.259 -0.6326  0.5353  0.2464
  163MOL    H4942493   5.150   5.749   0.347 -1.4971 -0.4238  1.5370
  163MOL    H5042494   4.991   5.802   0.293  0.5260 -2.1760  0.3544
  163MOL    H5142495   5.112   5.989   0.159 -1.0976 -0.2974  1.1398
  163MOL    H5242496   5.137   5.998   0.340  0.0332 -2.6289  1.6979
  163MOL    H5342497   5.264   5.950   0.237 -0.5030 -0.2880  1.0659
  163MOL    C5442498   5.123   5.495   0.075  0.3112 -0.6720 -0.3830
  163MOL    C5542499   5.263   5.470   0.132  0.2740 -0.1232 -0.1542
  163MOL    O5642500   5.349   5.420   0.032 -1.1149  0.4071  0.3090
  163MOL    C5742501   5.391   5.511   7.777 -0.1398 -0.1306 -0.3027
  163MOL    C5842502   5.512   5.455   7.691  0.2558 -0.2296 -0.1134
  163MOL    H5942503   5.121   5.524   7.814  0.3584 -2.2589 -0.8335
  163MOL    H6042504   5.063   5.403   0.077 -0.6937 -0.0227 -0.0317
  163MOL    H6142505   5.304   5.569   0.150  2.0141 -0.8652  0.0439
  163MOL    H6242506   5.414   5.605   7.827 -0.9558  0.2228 -0.5757
  163MOL    H6342507   5.312   5.549   7.713  0.3415 -0.3473 -1.0245
  163MOL    H6442508   5.566   5.528   7.630  2.4287 -1.5149  0.2154
  163MOL    H6542509   5.595   5.412   7.748  2.4122  3.7630 -0.0719
  163MOL    H6642510   5.478   5.389   7.612  1.3015  0.8373 -1.4834
  163MOL    C6742511   5.264   5.374   0.256  0.2344  0.0488  0.7328
  163MOL    C6842512   5.404   5.351   0.311 -0.4395 -0.2469 -0.1453
  163MOL    O6942513   5.397   5.240   0.399 -0.1285 -0.2052 -0.3030
  163MOL    C7042514   5.427   5.114   0.331  0.6039 -0.2565  0.6752
  163MOL    C7142515   5.460   5.012   0.435  0.2100 -0.4130 -0.1017
  163MOL    H7242516   5.226   5.276   0.227  1.4739 -1.1014  2.8449
  163MOL    H7342517   5.197   5.413   0.334 -1.6265 -1.1836 -0.2170
  163MOL    H7442518   5.478   5.328   0.235  1.8108 -0.4235  2.0598
  163MOL    H7542519   5.520   5.120   0.275  1.8435 -1.3723  2.5451
  163MOL    H7642520   5.354   5.086   0.256 -1.7521  3.0657  1.5859
  163MOL    H7742521   5.519   5.047   0.520  3.8190 -2.5140 -1.6195
  163MOL    H7842522   5.365   4.984   0.479 -1.0300  0.8836 -1.8854
  163MOL    H7942523   5.489   4.918   0.387 -1.9694 -1.9244  1.5012
  163MOL    C8042524   5.459   5.471   0.399 -0.1405  0.1708  0.3328
  163MOL    C8142525   5.600   5.434   0.456  0.2814  0.3866 -0.5352
  163MOL    O8242526   5.584   5.442   0.592 -0.3006 -0.3184  0.5969
  163MOL    C8342527   5.548   5.320   0.655 -0.4928 -0.4045 -0.1008
  163MOL    C8442528   5.575   5.331   0.802 -0.2169  0.4944  0.0443
  163MOL    H8542529   5.383   5.508   0.468 -1.7817  1.4579 -2.1075
  163MOL    H8642530   5.477   5.552   0.329 -0.7601 -1.2473 -1.5108
  163MOL    H8742531   5.633   5.335   0.424 -1.6971 -0.2384 -0.6874
  163MOL    H8842532   5.598   5.229   0.621  0.3771  0.6269 -1.6194
  163MOL    H8942533   5.440   5.305   0.649 -0.4895 -0.1207 -0.8526
  163MOL    H9042534   5.681   5.349   0.818 -0.2091  0.4678  0.0223
  163MOL    H9142535   5.529   5.422   0.842 -0.8054  0.3741 -0.3373
  163MOL    H9242536   5.549   5.237   0.849 -3.2094  0.0212 -2.3697
  163MOL    C9342537   5.718   5.531   0.430  0.2083  0.0839 -0.2774
  163MOL    C9442538   5.787   5.514   0.297 -0.3667  0.1410  0.0295
  163MOL    O9542539   5.816   5.380   0.274 -0.6281  0.0191 -0.0889
  163MOL    C9642540   5.800   5.342   0.131 -0.1376 -0.4818  0.0316
  163MOL    C9742541   5.810   5.190   0.117  0.3118 -0.2622 -0.0405
  163MOL    H9842542   5.798   5.512   0.501 -0.4368 -0.5379  0.2851
  163MOL    H9942543   5.686   5.632   0.454 -0.9733 -0.8794  2.3863
  163MOL   H10042544   5.709   5.538   0.225  0.4699  0.2281 -0.8541
  163MOL   H10142545   5.863   5.398   0.062  1.5332  1.8832  3.3017
  163MOL   H10242546   5.699   5.365   0.099  0.5054  3.4584  0.5858
  163MOL   H10342547   5.804   5.165   0.011 -0.7534 -0.2717  0.0190
  163MOL   H10442548   5.912   5.160   0.144  0.1008 -1.9405 -1.0441
  163MOL   H10542549   5.736   5.129   0.169 -1.8852 -0.1177 -2.8984
  163MOL   C10642550   5.919   5.593   0.275  0.2166  0.6067  0.7848
  163MOL   C10742551   5.906   5.740   0.293  0.2415 -0.1487  0.4808
  163MOL   O10842552   5.818   5.789   0.204  0.1459 -0.0722 -0.2190
  163MOL   C10942553   5.741   5.900   0.248 -0.1908 -0.6780  0.3587
  163MOL   C11042554   5.639   5.918   0.128  0.1946  0.1065 -0.3334
  163MOL   H11142555   5.957   5.572   0.175  1.5289  0.1883  1.3651
  163MOL   H11242556   5.990   5.559   0.349 -0.8328 -2.7340  0.3141
  163MOL   H11342557   5.877   5.768   0.394  0.2678  0.0243  0.4405
  163MOL   H11442558   5.796   5.993   0.260 -0.2889 -0.8776  2.6824
  163MOL   H11542559   5.690   5.894   0.345  2.4921 -0.1903  1.8398
  163MOL   H11642560   5.692   5.946   0.037  1.0079  1.5330  0.5612
  163MOL   H11742561   5.581   5.826   0.117  0.2871  0.2679 -2.3520
  163MOL   H11842562   5.568   5.999   0.142 -2.0960 -1.7671 -0.7347
  163MOL   C11942563   6.040   5.812   0.255  0.8717  0.0316 -0.2018
  163MOL   C12042564   6.176   5.776   0.320  0.4313 -0.3498 -0.6011
  163MOL   O12142565   6.261   5.884   0.287 -0.4847 -0.2263  1.0740
  163MOL   C12242566   6.281   5.976   0.394 -0.2120  0.3796 -0.2644
  163MOL   C12342567   6.409   6.055   0.361 -0.0900  0.1873  0.7452
  163MOL   H12442568   6.028   5.919   0.271 -0.9631  0.2027 -2.4801
  163MOL   H12542569   6.047   5.790   0.149  0.9255  0.0662 -0.2052
  163MOL   H12642570   6.160   5.769   0.428  2.0792 -0.5101 -0.3586
  163MOL   H12742571   6.287   5.941   0.497  1.0550  1.0763 -0.0871
  163MOL   H12842572   6.203   6.052   0.392  1.1881  1.9403  1.5375
  163MOL   H12942573   6.427   6.126   0.441 -0.9453  1.1868  0.0640
  163MOL   H13042574   6.490   5.983   0.360  0.0731  0.3735  0.6082
  163MOL   H13142575   6.396   6.112   0.269  0.6462  1.2154  1.2730
  163MOL   C13242576   6.254   5.654   0.262  0.1687 -0.2483  0.1252
  163MOL   C13342577   6.407   5.649   0.316  0.6656 -0.6234 -0.2504
  163MOL   O13442578   6.468   5.529   0.273 -0.0626 -0.1358 -0.4106
  163MOL   C13542579   6.452   5.500   0.139 -0.4976  0.1510 -0.7820
  163MOL   C13642580   6.562   5.408   0.092  0.1776 -0.3170  0.2446
  163MOL   H13742581   6.253   5.661   0.154  0.9708 -0.1707  0.1259
  163MOL   H13842582   6.199   5.562   0.286 -2.1656  0.2291 -3.0428
  163MOL   H13942583   6.460   5.737   0.278 -0.2454  1.6918  3.5650
  163MOL   H14042584   6.462   5.588   0.075 -0.3432 -0.2980 -1.3795
  163MOL   H14142585   6.354   5.455   0.120  0.4958 -1.7366 -1.5250
  163MOL   H14242586   6.661   5.450   0.106 -0.8214  1.4729  2.2595
  163MOL   H14342587   6.557   5.318   0.154  0.4517 -0.6281 -0.1827
  163MOL   H14442588   6.559   5.388   7.828 -0.5758 -0.0694  0.2139
  163MOL   C14542589   6.426   5.643   0.464  0.2921  0.7001 -0.0471
  163MOL   C14642590   6.373   5.515   0.528 -0.8610  0.0212  0.2433
  163MOL   O14742591   6.248   5.550   0.579  0.4157  0.6445 -0.3649
  163MOL   C14842592   6.157   5.441   0.594  0.3445  0.0230 -0.0775
  163MOL   C14942593   6.033   5.495   0.664  0.0303  0.2019  0.7906
  163MOL   H15042594   6.367   5.722   0.510  1.3140  0.6371  1.3964
  163MOL   H15142595   6.525   5.670   0.501  0.6660 -1.5773  0.6727
  163MOL   H15242596   6.363   5.428   0.464 -1.0958  0.4864 -0.3624
  163MOL   H15342597   6.212   5.365   0.650 -0.1976 -1.5680 -1.6444
  163MOL   H15442598   6.133   5.398   0.497 -0.0772  0.4364 -0.1586
  163MOL   H15542599   5.981   5.555   0.590 -1.4120 -0.6035  1.1300
  163MOL   H15642600   5.958   5.418   0.678 -0.9000  1.2533  1.7095
  163MOL   H15742601   6.057   5.553   0.754  1.0144 -0.7663  1.1731
  163MOL   C15842602   6.459   5.481   0.658  0.1380 -0.2984  0.6320
  163MOL   C15942603   6.609   5.455   0.636 -0.7736 -0.1022  0.3995
  163MOL   O16042604   6.637   5.317   0.645  0.0326 -0.4282 -0.6332
  163MOL   C16142605   6.692   5.265   0.529  0.1755 -0.2084  0.0174
  163MOL   C16242606   6.693   5.121   0.547  0.5913 -0.7025 -0.0746
  163MOL   H16342607   6.412   5.391   0.697  1.4685 -2.0492 -1.6762
  163MOL   H16442608   6.436   5.557   0.733  0.9186  0.1844  0.3903
  163MOL   H16542609   6.642   5.503   0.544  0.0387 -1.6811 -0.1602
  163MOL   H16642610   6.795   5.296   0.509 -0.5835  1.2293 -1.7733
  163MOL   H16742611   6.630   5.298   0.446 -0.4374 -1.5063 -0.0583
  163MOL   H16842612   6.747   5.062   0.473 -2.2187 -2.0940 -1.0759
  163MOL   H16942613   6.753   5.100   0.636  2.1469  0.1698 -0.9108
  163MOL   H17042614   6.593   5.078   0.561 -0.0453  0.5896 -0.5577
  163MOL   C17142615   6.682   5.509   0.756 -0.1308 -0.0937  0.0110
  163MOL   C17242616   6.831   5.538   0.739  0.4261 -0.3751  0.2027
  163MOL   O17342617   6.879   5.559   0.869 -0.4145  0.3959  0.1912
  163MOL   C17442618   7.008   5.517   0.900 -0.4812 -0.2041  0.1238
  163MOL   C17542619   7.047   5.578   1.035  0.4775  0.1086  0.0375
  163MOL   H17642620   6.671   5.450   0.847  1.5307  0.7658  0.7851
  163MOL   H17742621   6.637   5.606   0.781  1.5996  0.4364  1.1750
  163MOL   H17842622   6.868   5.447   0.693 -1.6839 -0.2019 -1.9599
  163MOL   H17942623   7.076   5.561   0.828  0.1090 -3.2229 -1.2469
  163MOL   H18042624   7.010   5.408   0.904 -0.2482 -0.1541  2.9787
  163MOL   H18142625   7.057   5.686   1.020  1.5401  0.1200  0.7787
  163MOL   H18242626   6.967   5.554   1.105 -1.8326  1.5780 -2.0084
  163MOL   H18342627   7.146   5.536   1.055 -0.2114 -0.8373  1.4629
  163MOL   C18442628   6.861   5.665   0.656 -0.0644  0.4449 -0.1138
  163MOL   C18542629   6.832   5.801   0.716  0.3641 -0.2597  0.1912
  163MOL   O18642630   6.693   5.824   0.697  0.3280  0.1723  0.2166
  163MOL   C18742631   6.621   5.860   0.818  0.5211 -0.4556 -0.3960
  163MOL   C18842632   6.482   5.895   0.772  0.2596  0.2966 -0.0086
  163MOL   H18942633   6.810   5.656   0.560  0.4710  0.8192 -0.4336
  163MOL   H19042634   6.966   5.661   0.628 -0.2987 -1.7411 -0.7228
  163MOL   H19142635   6.856   5.793   0.822  0.5071 -1.1180  0.0988
  163MOL   H19242636   6.668   5.943   0.872 -1.5349  0.4570  0.0266
  163MOL   H19342637   6.619   5.784   0.896 -0.1646  0.1163  0.1516
  163MOL   H19442638   6.486   5.967   0.691 -0.3723 -1.8537 -2.0039
  163MOL   H19542639   6.433   5.804   0.736  0.6734 -0.0982  0.4199
  163MOL   H19642640   6.412   5.935   0.845  0.2883 -4.0701  2.6126
  163MOL   C19742641   6.914   5.925   0.658  0.5259 -0.0016 -0.6269
  163MOL   C19842642   7.061   5.929   0.683 -0.6289 -0.1826 -0.5211
  163MOL   O19942643   7.104   6.013   0.793  0.9160  0.0989 -0.3294
  163MOL   C20042644   7.098   5.960   0.919 -0.3283 -0.8032  0.2064
  163MOL   C20142645   7.176   6.050   1.011 -0.0332  0.5027 -0.4975
  163MOL   H20242646   6.877   6.014   0.709 -1.1920 -1.6377  1.0490
  163MOL   H20342647   6.890   5.929   0.552  2.7715  2.5080 -1.1017
  163MOL   H20442648   7.103   5.829   0.696  0.1069  0.2751  0.7643
  163MOL   H20542649   7.135   5.858   0.915  0.4810 -0.4613 -2.0218
  163MOL   H20642650   6.993   5.953   0.948 -0.5944 -2.0032 -0.9909
  163MOL   H20742651   7.136   6.151   0.999  0.0663  0.4985 -0.8549
  163MOL   H20842652   7.170   6.029   1.118  1.4031 -0.0184 -0.5046
  163MOL   H20942653   7.280   6.069   0.984 -1.0457  2.4448 -3.2688
  163MOL   C21042654   7.139   5.984   0.561 -0.1440  0.0430 -0.3895
  163MOL   C21142655   7.293   5.938   0.563 -0.0328  0.8647  0.7912
  163MOL   O21242656   7.370   6.033   0.489 -0.4135  1.0061 -0.2957
  163MOL   C21342657   7.397   6.159   0.554  0.4907  0.1236  0.2679
  163MOL   C21442658   7.489   6.244   0.463  0.1512 -0.3010 -0.3927
  163MOL   H21542659   7.144   6.093   0.564  3.0841 -0.0084 -1.4489
  163MOL   H21642660   7.087   5.966   0.467  0.8892 -1.0345 -0.7746
  163MOL   H21742661   7.344   5.932   0.659 -0.5198 -0.8834  0.9595
  163MOL   H21842662   7.449   6.146   0.649  2.1954 -1.5745 -0.8552
  163MOL   H21942663   7.308   6.219   0.572  1.5060  2.5599 -2.4546
  163MOL   H22042664   7.502   6.338   0.517  2.2736 -0.5104 -0.4875
  163MOL   H22142665   7.575   6.181   0.443 -0.1638 -0.6673 -0.5838
  163MOL   H22242666   7.444   6.262   0.366 -0.2254 -3.3099 -0.8291
  163MOL   C22342667   7.313   5.795   0.505  0.3253 -0.5405  0.9780
  163MOL   C22442668   7.248   5.766   0.371  0.3016  0.7747 -0.0611
  163MOL   O22542669   7.246   5.623   0.370 -0.1854 -0.0384  0.0601
  163MOL   C22642670   7.138   5.565   0.305  0.4618  0.5943 -0.4660
  163MOL   C22742671   7.128   5.423   0.352 -0.0835  0.3520 -0.3438
  163MOL   H22842672   7.287   5.716   0.576 -0.6680 -1.3073 -0.2167
  163MOL   H22942673   7.420   5.777   0.503  0.4952  0.4693 -1.9503
  163MOL   H23042674   7.146   5.802   0.360  0.8122  2.2354 -0.1701
  163MOL   H23142675   7.158   5.577   0.199  1.6255  1.1582 -0.1844
  163MOL   H23242676   7.045   5.619   0.328  0.6145  0.4464  0.5177
  163MOL   H23342677   7.030   5.386   0.323 -0.5851  2.3089 -1.2220
  163MOL   H23442678   7.211   5.365   0.310 -1.1197 -1.7303  0.4355
  163MOL   H23542679   7.122   5.415   0.460  1.8462  0.5244 -0.2022
  163MOL   C23642680   7.328   5.814   0.249  0.4515 -0.0610 -0.1345
  163MOL   C23742681   7.245   5.851   0.122  0.4587 -0.7595  0.4487
  163MOL   O23842682   7.330   5.873   0.014  0.2013 -0.3488 -0.1188
  163MOL   C23942683   7.398   5.762   7.795 -0.6161  0.0767 -0.1555
  163MOL   C24042684   7.493   5.805   7.684  0.0503 -0.4357  0.6817
  163MOL   H24142685   7.407   5.742   0.229  1.8313  1.3976 -0.0292
  163MOL   H24242686   7.386   5.902   0.276  1.3951 -1.4538  2.6273
  163MOL   H24342687   7.176   5.771   0.096  1.8909 -1.8336 -0.1265
  163MOL   H24442688   7.316   5.705   7.751 -0.5563  1.7880 -2.5863
  163MOL   H24542689   7.459   5.702   0.019  0.3046  0.4676 -0.6352
  163MOL   H24642690   7.456   5.904   7.659  2.3936  0.1212 -0.7885
  163MOL   H24742691   7.599   5.817   7.707  0.3105 -1.5148  0.1168
  163MOL   H24842692   7.472   5.757   7.588 -0.8754 -0.4659  0.8928
  163MOL   C24942693   7.160   5.980   0.126 -0.3064 -0.2544  0.0335
  163MOL   C25042694   7.230   6.110   0.145  0.3009  0.4386  0.1986
  163MOL   O25142695   7.139   6.214   0.143  0.0613 -0.3270  0.0094
  163MOL   C25242696   7.198   6.338   0.184  0.5451  0.7797  0.2242
  163MOL   C25342697   7.111   6.463   0.169 -0.3979  0.3304  0.5445
  163MOL   H25442698   7.086   5.969   0.205 -0.6597 -0.5781 -0.3415
  163MOL   H25542699   7.103   5.987   0.033  1.6457  2.6386 -1.0192
  163MOL   H25642700   7.278   6.100   0.242  0.6698 -1.2677 -0.1464
  163MOL   H25742701   7.284   6.349   0.117  0.4114 -1.1004 -0.2819
  163MOL   H25842702   7.248   6.334   0.281  2.4250 -0.9601 -0.7552
  163MOL   H25942703   7.151   6.539   0.236  1.3451  0.1479 -0.2650
  163MOL   H26042704   7.111   6.488   0.063 -2.1860  1.3798  0.7760
  163MOL   H26142705   7.008   6.438   0.195 -1.1102  2.8928  0.2755
  163MOL   H26242706   7.294   6.115   0.057  0.1213  1.4355  0.1173
  164MOL     C142707   2.435   1.439   1.689 -0.0060  0.0447 -1.1980
  164MOL     C242708   2.295   1.498   1.644 -0.2636  0.5117  0.4781
  164MOL     O342709   2.321   1.621   1.577 -0.0867 -0.5705 -0.2366
  164MOL     C442710   2.253   1.646   1.460  0.8638  0.1368  0.3319
  164MOL     C542711   2.289   1.551   1.346  0.0688 -0.4899  0.1456
  164MOL     H642712   2.429   1.354   1.756 -1.7564  0.3823 -0.9130
  164MOL     H742713   2.494   1.407   1.602  1.4530 -1.2403  0.2309
  164MOL     H842714   2.257   1.415   1.585 -0.1715  0.4684  0.4791
  164MOL     H942715   2.263   1.751   1.433  2.4587 -0.2080 -0.5102
  164MOL    H1042716   2.148   1.625   1.480  1.3466 -2.4692  0.3251
  164MOL    H1142717   2.312   1.449   1.375 -1.7683 -1.2274 -0.9061
  164MOL    H1242718   2.203   1.538   1.281  1.8025  0.3352 -2.4224
  164MOL    H1342719   2.374   1.582   1.284 -0.6397 -0.7812 -0.9800
  164MOL    H1442720   2.487   1.520   1.740 -2.1012  0.9789 -0.4933
  164MOL    C1542721   2.213   1.518   1.773  0.0911 -0.1781  0.1057
  164MOL    C1642722   2.064   1.539   1.758 -0.4791  0.0327  0.1800
  164MOL    O1742723   2.010   1.564   1.889 -0.1968 -0.5381  0.1433
  164MOL    C1842724   2.018   1.694   1.938 -0.1433 -0.7312 -0.4205
  164MOL    C1942725   2.018   1.684   2.088  0.1994 -0.0367  0.2280
  164MOL    H2042726   2.255   1.608   1.819 -0.2658 -0.9839  2.0681
  164MOL    H2142727   2.245   1.444   1.846  1.2223 -1.3371 -1.5310
  164MOL    H2242728   2.040   1.625   1.695 -1.3959 -0.8519 -0.6971
  164MOL    H2342729   1.950   1.765   1.891  2.0281  0.9701 -1.1023
  164MOL    H2442730   2.111   1.748   1.918 -0.6387  0.9437  1.5186
  164MOL    H2542731   1.919   1.651   2.119 -0.4904  2.6016  0.9165
  164MOL    H2642732   2.023   1.783   2.133 -1.5859  0.6035 -0.9274
  164MOL    H2742733   2.104   1.621   2.113 -1.1587 -1.1780  2.0758
  164MOL    C2842734   2.000   1.413   1.704 -0.1493  0.2586 -0.2004
  164MOL    C2942735   1.849   1.402   1.713  0.1753  0.2084 -0.1428
  164MOL    O3042736   1.801   1.274   1.677 -0.2313  0.1054  0.0341
  164MOL    C3142737   1.804   1.180   1.783 -0.1564  0.2812 -0.0073
  164MOL    C3242738   1.731   1.047   1.742  0.4701  0.3912 -0.1339
  164MOL    H3342739   2.031   1.340   1.779  0.9040  0.8612 -0.0480
  164MOL    H3442740   2.040   1.380   1.608 -0.7220  0.6705 -0.5862
  164MOL    H3542741   1.819   1.425   1.815 -0.5130  1.3235 -0.5872
  164MOL    H3642742   1.741   1.208   1.868 -0.3409 -0.8643  0.2335
  164MOL    H3742743   1.904   1.157   1.821 -1.6214 -2.1618  2.5355
  164MOL    H3842744   1.741   0.981   1.828 -1.4434 -0.7261 -0.7538
  164MOL    H3942745   1.629   1.065   1.707  1.0198  1.0977 -1.4395
  164MOL    H4042746   1.791   1.020   1.654  1.8924  0.7585  0.7089
  164MOL    C4142747   1.779   1.496   1.609 -0.2506 -0.1256  0.1993
  164MOL    C4242748   1.636   1.532   1.656 -0.0503  0.0606  0.4914
  164MOL    O4342749   1.545   1.434   1.622 -0.9050 -0.0884  0.0147
  164MOL    C4442750   1.472   1.374   1.729  0.0396 -0.7590  0.7690
  164MOL    C4542751   1.353   1.307   1.660 -0.2991  0.6623  0.1886
  164MOL    H4642752   1.769   1.460   1.507  0.3300 -0.2996  0.2067
  164MOL    H4742753   1.830   1.593   1.609  0.9959 -0.7701  0.8865
  164MOL    H4842754   1.625   1.552   1.763  1.0485 -1.1729  0.8383
  164MOL    H4942755   1.431   1.446   1.800 -0.1907  0.5348 -0.6488
  164MOL    H5042756   1.534   1.304   1.785  0.0139 -0.3253  1.3473
  164MOL    H5142757   1.388   1.223   1.600  1.9744  1.6181  0.1423
  164MOL    H5242758   1.266   1.285   1.723 -0.8086  1.0866 -0.3589
  164MOL    H5342759   1.322   1.382   1.587 -0.2708  0.5880  0.1001
  164MOL    C5442760   1.585   1.666   1.601  0.0680 -0.3325  0.2958
  164MOL    C5542761   1.639   1.796   1.673 -0.2338 -0.4780  0.3441
  164MOL    O5642762   1.582   1.793   1.805 -0.5846 -0.3043 -0.2825
  164MOL    C5742763   1.657   1.872   1.901 -0.5402  0.3894 -0.4821
  164MOL    C5842764   1.589   1.866   2.039  0.3646  0.0611 -0.0104
  164MOL    H5942765   1.476   1.668   1.602  0.0248 -2.4009  1.1606
  164MOL    H6042766   1.627   1.670   1.501  1.1366 -0.7130  0.7265
  164MOL    H6142767   1.746   1.777   1.680 -0.5097 -1.8788  0.9958
  164MOL    H6242768   1.663   1.980   1.885 -0.1244  0.7730  2.1179
  164MOL    H6342769   1.760   1.838   1.903 -1.0205 -1.0358  1.4648
  164MOL    H6442770   1.549   1.766   2.052 -0.9880  0.7194  0.9799
  164MOL    H6542771   1.647   1.891   2.128 -1.3052  2.0418  0.5609
  164MOL    H6642772   1.504   1.934   2.031  2.0957  2.3980  1.0019
  164MOL    C6742773   1.612   1.925   1.595  0.0413  0.2157  0.2190
  164MOL    C6842774   1.706   1.954   1.477  0.3600  0.8751  0.2494
  164MOL    O6942775   1.829   1.969   1.534  0.1987  0.1711 -0.3256
  164MOL    C7042776   1.936   1.889   1.473 -0.1770  0.9416 -0.8688
  164MOL    C7142777   1.953   1.902   1.319 -0.2718  0.1391  0.1718
  164MOL    H7242778   1.624   2.010   1.662  1.4053  0.7447 -0.6671
  164MOL    H7342779   1.514   1.917   1.547 -0.6542  1.6436  1.3792
  164MOL    H7442780   1.708   1.863   1.417 -1.1048  0.7891  0.3016
  164MOL    H7542781   1.911   1.785   1.495 -1.5543  1.5426  0.4476
  164MOL    H7642782   2.026   1.904   1.533 -1.0951 -0.6450  0.9571
  164MOL    H7742783   1.968   2.007   1.294  2.9828  0.1202  1.8074
  164MOL    H7842784   2.037   1.846   1.280 -0.4999  1.6970 -2.6763
  164MOL    H7942785   1.866   1.867   1.263  0.2649  3.9756 -3.2550
  164MOL    C8042786   1.666   2.062   1.377 -0.1774 -0.1093  0.2235
  164MOL    C8142787   1.547   2.028   1.292  0.0946 -0.2508  0.5076
  164MOL    O8242788   1.579   1.899   1.237  0.1461  0.4510  0.2829
  164MOL    C8342789   1.497   1.837   1.144 -0.1238  0.1452  0.2581
  164MOL    C8442790   1.577   1.707   1.093  0.4951 -0.0065  0.9278
  164MOL    H8542791   1.751   2.105   1.324  0.5387  1.6052  2.6875
  164MOL    H8642792   1.653   2.146   1.445 -1.0081  0.2358 -0.3717
  164MOL    H8742793   1.452   2.030   1.346 -1.9756 -2.2931 -2.8794
  164MOL    H8842794   1.478   1.899   1.056  1.7636  0.5904  0.1363
  164MOL    H8942795   1.401   1.815   1.189 -1.0766  3.1434 -0.1835
  164MOL    H9042796   1.654   1.743   1.025  1.1746 -2.2082  0.4998
  164MOL    H9142797   1.635   1.670   1.177  2.8942  1.0161 -0.2488
  164MOL    H9242798   1.514   1.628   1.052 -1.4359  1.8962  0.1201
  164MOL    C9342799   1.530   2.136   1.176 -0.0060 -0.2216 -0.6980
  164MOL    C9442800   1.500   2.280   1.224 -0.0919  0.0663 -0.1024
  164MOL    O9542801   1.370   2.284   1.285  0.2868  0.2840  0.0011
  164MOL    C9642802   1.358   2.285   1.429  0.5399 -0.0162 -0.8080
  164MOL    C9742803   1.394   2.429   1.476 -0.3244 -0.0168 -0.4433
  164MOL    H9842804   1.454   2.109   1.102 -0.8345 -0.8693  0.3760
  164MOL    H9942805   1.623   2.130   1.118  0.5383 -1.2955  0.2608
  164MOL   H10042806   1.575   2.320   1.291  0.5342 -0.4755 -0.4783
  164MOL   H10142807   1.410   2.208   1.484  1.9174  1.0922 -0.5194
  164MOL   H10242808   1.255   2.255   1.449  1.7703 -3.0240  1.3775
  164MOL   H10342809   1.500   2.426   1.502 -0.7120  0.8040  1.3124
  164MOL   H10442810   1.391   2.494   1.388 -1.6099 -0.2452 -0.5776
  164MOL   H10542811   1.326   2.468   1.552 -2.8989  0.8219 -3.0594
  164MOL   C10642812   1.484   2.364   1.092 -0.0493  0.2137 -0.2157
  164MOL   C10742813   1.486   2.516   1.095  0.0215 -0.6150 -0.1260
  164MOL   O10842814   1.403   2.558   0.989  0.4586  0.1738  0.0098
  164MOL   C10942815   1.267   2.574   1.018  0.5492 -0.0363  0.0142
  164MOL   C11042816   1.200   2.600   0.884  0.0018  0.2270  0.3042
  164MOL   H11142817   1.388   2.329   1.053  1.5033 -1.4694 -2.7467
  164MOL   H11242818   1.551   2.327   1.014  0.1444  0.4385 -0.1545
  164MOL   H11342819   1.435   2.563   1.179  2.7512  3.2077 -0.4691
  164MOL   H11442820   1.256   2.660   1.084 -0.1417 -0.4148  0.3854
  164MOL   H11542821   1.232   2.480   1.058 -1.7198 -0.5712 -3.0310
  164MOL   H11642822   1.252   2.684   0.837  0.7648  0.5795  1.7425
  164MOL   H11742823   1.227   2.508   0.832  2.5432 -0.0226  1.9399
  164MOL   H11842824   1.098   2.619   0.916  0.1107 -0.9229  1.3662
  164MOL   C11942825   1.624   2.582   1.071  0.4172  0.1676  0.2311
  164MOL   C12042826   1.729   2.570   1.183 -0.1547 -0.5766  0.3104
  164MOL   O12142827   1.692   2.665   1.280  0.4876 -0.6770 -0.2632
  164MOL   C12242828   1.739   2.627   1.414 -0.0478  0.1613 -0.0782
  164MOL   C12342829   1.752   2.758   1.500  0.0278  0.0282 -0.8064
  164MOL   H12442830   1.606   2.689   1.060 -1.9923 -0.0918  1.2601
  164MOL   H12542831   1.651   2.537   0.976 -1.1024 -1.7722  0.6995
  164MOL   H12642832   1.714   2.471   1.225  2.6302 -0.8442  0.7151
  164MOL   H12742833   1.837   2.579   1.407  0.2724  0.7329  0.4779
  164MOL   H12842834   1.664   2.557   1.451 -1.4035  1.4301 -0.4275
  164MOL   H12942835   1.811   2.735   1.589 -0.7935 -0.5709 -0.4128
  164MOL   H13042836   1.796   2.838   1.442 -0.0653  2.5480  2.4516
  164MOL   H13142837   1.659   2.786   1.550  0.8519 -0.8004  1.2458
  164MOL   C13242838   1.876   2.607   1.131  0.0984  0.6210 -0.1000
  164MOL   C13342839   1.982   2.487   1.141 -0.3499 -0.0881  0.6222
  164MOL   O13442840   2.004   2.441   1.277  0.5973  0.3886 -0.3263
  164MOL   C13542841   1.942   2.324   1.334  0.0127 -0.2021  1.3695
  164MOL   C13642842   1.976   2.307   1.475 -0.4764  0.3583  0.0284
  164MOL   H13742843   1.917   2.682   1.199 -0.3947 -0.6270  1.6027
  164MOL   H13842844   1.873   2.657   1.035 -1.2259 -2.8115 -1.9292
  164MOL   H13942845   1.944   2.401   1.087  1.3612 -0.7251  0.3945
  164MOL   H14042846   1.967   2.232   1.280 -0.8439 -0.0348  0.6776
  164MOL   H14142847   1.833   2.324   1.329  0.0413 -0.2734  0.5987
  164MOL   H14242848   1.910   2.241   1.531  1.2605 -1.1241  0.3972
  164MOL   H14342849   2.079   2.275   1.495 -0.4152  0.6317  0.1553
  164MOL   H14442850   1.964   2.402   1.526  3.9202  1.9069 -1.5731
  164MOL   C14542851   2.121   2.518   1.072  0.0344 -0.2966  0.3780
  164MOL   C14642852   2.215   2.392   1.080  0.2879  0.3044  0.4290
  164MOL   O14742853   2.342   2.444   1.084 -0.0371  0.0219 -0.2835
  164MOL   C14842854   2.391   2.483   1.204 -0.2506 -0.1893  0.5726
  164MOL   C14942855   2.531   2.528   1.177  1.2135  0.0270  0.0921
  164MOL   H15042856   2.166   2.603   1.124  0.5025  0.1670 -0.7779
  164MOL   H15142857   2.104   2.542   0.967  1.3721  2.5769  0.7562
  164MOL   H15242858   2.204   2.336   1.173 -2.4069 -0.4014 -0.2599
  164MOL   H15342859   2.396   2.415   1.289  0.3708  0.5446  1.1260
  164MOL   H15442860   2.341   2.571   1.245  0.5856  1.0491 -1.0106
  164MOL   H15542861   2.543   2.612   1.108 -1.2875  0.1477 -0.2509
  164MOL   H15642862   2.580   2.548   1.272  0.6884  0.2478  0.3197
  164MOL   H15742863   2.585   2.445   1.133 -1.3031 -2.3182  1.2553
  164MOL   C15842864   2.206   2.302   0.955  0.1275  0.3684 -0.1654
  164MOL   C15942865   2.297   2.178   0.949  0.8169  0.3067  0.6336
  164MOL   O16042866   2.323   2.135   0.819  0.8543 -0.0919 -0.0770
  164MOL   C16142867   2.414   2.202   0.742  0.3931  0.9711  0.1817
  164MOL   C16242868   2.548   2.159   0.787 -0.5461  0.4467 -0.5801
  164MOL   H16342869   2.214   2.360   0.863  1.9919 -3.6810 -2.7059
  164MOL   H16442870   2.100   2.277   0.956  0.7746 -2.5439 -0.3086
  164MOL   H16542871   2.391   2.202   0.999  1.6004 -0.6649 -0.3487
  164MOL   H16642872   2.400   2.310   0.744  0.2598  0.9393  1.2524
  164MOL   H16742873   2.400   2.179   0.636 -3.3022 -0.0110  0.8202
  164MOL   H16842874   2.579   2.227   0.866 -0.2083 -0.3123 -0.0568
  164MOL   H16942875   2.553   2.053   0.815  0.1746  0.4153 -0.8209
  164MOL   H17042876   2.609   2.165   0.697 -2.3010 -2.1125 -2.0334
  164MOL   C17142877   2.242   2.053   1.013  0.5605 -0.9273  0.5445
  164MOL   C17242878   2.342   1.935   1.018 -0.2471  0.0914  0.0251
  164MOL   O17342879   2.272   1.813   1.047  0.4323  0.4451  0.0748
  164MOL   C17442880   2.210   1.758   0.927  0.3997 -0.0213  0.6993
  164MOL   C17542881   2.189   1.610   0.962 -0.3230  0.5029 -0.1706
  164MOL   H17642882   2.154   2.017   0.960  1.0880 -2.4799  0.7062
  164MOL   H17742883   2.218   2.077   1.116  1.6948  1.2740  0.3282
  164MOL   H17842884   2.394   1.936   0.922 -1.9735 -0.6061 -0.9394
  164MOL   H17942885   2.278   1.750   0.842  2.7948  1.9041  2.3719
  164MOL   H18042886   2.117   1.801   0.891 -0.7760 -1.4629  1.9651
  164MOL   H18142887   2.284   1.573   1.001  0.2552 -0.2964 -2.2677
  164MOL   H18242888   2.113   1.590   1.037 -1.2404  1.2581 -0.8865
  164MOL   H18342889   2.161   1.554   0.872  0.1070  0.0058  0.0032
  164MOL   C18442890   2.448   1.948   1.130  0.0923 -0.0046  0.8531
  164MOL   C18542891   2.538   1.818   1.149 -0.3956  0.3835 -0.1154
  164MOL   O18642892   2.630   1.826   1.259  0.5123  0.2592 -0.0363
  164MOL   C18742893   2.574   1.808   1.390  0.6121  0.0685 -0.5099
  164MOL   C18842894   2.666   1.895   1.479  0.2950 -0.0898  0.3317
  164MOL   H18942895   2.403   1.972   1.227 -0.4100  1.9270  0.1481
  164MOL   H19042896   2.508   2.034   1.104 -1.8849  1.0477 -0.3420
  164MOL   H19142897   2.470   1.734   1.158 -0.6786  0.6995  0.7274
  164MOL   H19242898   2.579   1.704   1.420  2.0447  0.9083  2.2972
  164MOL   H19342899   2.470   1.840   1.401  1.0711  1.1736  0.7484
  164MOL   H19442900   2.681   1.994   1.436  1.4203  0.5423  2.1315
  164MOL   H19542901   2.630   1.898   1.582 -1.0930  0.2231 -0.1454
  164MOL   H19642902   2.768   1.859   1.469  0.8446  0.8786  2.0706
  164MOL   C19742903   2.631   1.797   1.035 -0.0531 -0.3023  0.0616
  164MOL   C19842904   2.680   1.652   1.029 -0.2280 -0.4601  0.5279
  164MOL   O19942905   2.803   1.644   0.958  0.1504 -0.1546 -0.3690
  164MOL   C20042906   2.915   1.708   1.022  0.2407  0.5441 -0.1905
  164MOL   C20142907   2.949   1.826   0.929  0.3218 -0.0910 -0.0620
  164MOL   H20242908   2.712   1.866   1.060  0.5143 -1.5093  1.6819
  164MOL   H20342909   2.586   1.828   0.941 -1.9648 -0.5951  0.8674
  164MOL   H20442910   2.705   1.615   1.128  0.9203  1.3734  0.9525
  164MOL   H20542911   3.010   1.656   1.033  0.0051  0.4228  1.3153
  164MOL   H20642912   2.884   1.740   1.121  0.1290 -0.5909  0.1473
  164MOL   H20742913   2.971   1.787   0.830  1.1877  0.7673 -0.2135
  164MOL   H20842914   2.879   1.907   0.915  1.5750  0.9973 -0.1500
  164MOL   H20942915   3.036   1.881   0.964 -1.2335  3.1861 -1.1943
  164MOL   C21042916   2.572   1.561   0.970  0.2844 -0.0336  0.1533
  164MOL   C21142917   2.631   1.428   0.916 -0.4465  0.4000  0.3349
  164MOL   O21242918   2.513   1.376   0.853 -0.0724 -0.3869  0.7874
  164MOL   C21342919   2.535   1.361   0.713 -0.0649 -0.2136 -0.1517
  164MOL   C21442920   2.409   1.296   0.652  0.0034 -0.0948 -0.2453
  164MOL   H21542921   2.504   1.610   0.900 -0.5160 -2.7092 -1.0180
  164MOL   H21642922   2.498   1.543   1.048 -1.2293  0.1935 -1.2042
  164MOL   H21742923   2.714   1.454   0.850  0.0430  0.5006  0.9898
  164MOL   H21842924   2.612   1.286   0.698  1.6011  1.7040 -1.4464
  164MOL   H21942925   2.557   1.457   0.666 -2.5441  0.3934 -0.1345
  164MOL   H22042926   2.371   1.207   0.702 -1.1874  0.3167 -0.4005
  164MOL   H22142927   2.318   1.355   0.645  0.6956  0.9616 -0.4759
  164MOL   H22242928   2.432   1.267   0.549 -0.2723  0.7994 -0.5616
  164MOL   C22342929   2.670   1.333   1.022 -0.0633 -0.4472 -0.2436
  164MOL   C22442930   2.825   1.328   1.058  0.4510  0.6189  0.1647
  164MOL   O22542931   2.891   1.286   0.948 -0.0635 -0.2133 -0.3374
  164MOL   C22642932   3.005   1.367   0.910 -0.1159 -0.0154  0.3314
  164MOL   C22742933   3.087   1.278   0.814  0.4485  0.4531  0.1947
  164MOL   H22842934   2.632   1.233   0.999 -1.2896 -0.0896  0.1927
  164MOL   H22942935   2.617   1.365   1.112 -0.9612  0.3508 -1.0395
  164MOL   H23042936   2.858   1.426   1.093 -1.9666  1.2687  0.6949
  164MOL   H23142937   3.064   1.404   0.993 -0.8999 -0.1925  0.9760
  164MOL   H23242938   2.961   1.454   0.860 -0.7635 -0.9066 -0.6744
  164MOL   H23342939   3.137   1.194   0.862 -2.2406 -1.9441 -1.0447
  164MOL   H23442940   3.028   1.225   0.739  0.6738  0.9355 -0.3259
  164MOL   H23542941   3.166   1.336   0.768  0.2023 -0.4002 -1.3514
  164MOL   C23642942   2.845   1.229   1.175  0.0212 -0.3840 -0.4688
  164MOL   C23742943   2.808   1.272   1.315  0.3168 -0.5358  0.5978
  164MOL   O23842944   2.908   1.358   1.369  0.1484 -0.6617  0.3842
  164MOL   C23942945   2.851   1.458   1.452 -0.6801 -0.2663  0.2620
  164MOL   C24042946   2.950   1.577   1.474  0.1895 -0.0820  0.4523
  164MOL   H24142947   2.949   1.199   1.182 -0.2367 -1.0743  0.4608
  164MOL   H24242948   2.787   1.142   1.145 -2.2383  1.1046 -0.5835
  164MOL   H24342949   2.709   1.318   1.319 -0.4086 -1.7551 -2.0013
  164MOL   H24442950   2.834   1.414   1.550 -1.3244 -0.2498  0.1603
  164MOL   H24542951   2.764   1.513   1.416  0.2324 -0.2148 -1.9211
  164MOL   H24642952   2.895   1.649   1.535  0.2249 -1.3440  2.0021
  164MOL   H24742953   3.041   1.545   1.523  2.1021 -0.4140 -3.1313
  164MOL   H24842954   2.977   1.628   1.381 -3.5090  1.3837  0.1063
  164MOL   C24942955   2.813   1.145   1.401 -0.1887 -0.5194  0.1758
  164MOL   C25042956   2.691   1.052   1.380  1.1926 -0.3033  0.0604
  164MOL   O25142957   2.582   1.113   1.444  0.3384 -0.3743  1.0324
  164MOL   C25242958   2.463   1.042   1.450 -0.1447 -0.0984  0.9459
  164MOL   C25342959   2.352   1.112   1.515  0.9490 -0.4852 -0.2992
  164MOL   H25442960   2.814   1.171   1.506 -2.1229  2.2207 -0.4364
  164MOL   H25542961   2.907   1.093   1.385  0.2393  0.4821 -0.6194
  164MOL   H25642962   2.673   1.030   1.275  1.1845  1.2567 -0.2741
  164MOL   H25742963   2.478   0.948   1.502  0.6701  0.7957  2.3394
  164MOL   H25842964   2.434   1.029   1.345  3.5223 -0.2261 -0.1155
  164MOL   H25942965   2.269   1.041   1.520  0.9935 -0.5828 -0.9537
  164MOL   H26042966   2.394   1.143   1.611 -0.9639  3.3641 -0.6390
  164MOL   H26142967   2.321   1.199   1.458  0.5257 -0.8620 -0.6410
  164MOL   H26242968   2.722   0.956   1.423  1.3444  0.4895  1.7973
  165MOL     C142969   0.581   2.471   0.612 -0.3997 -0.7681 -0.3985
  165MOL     C242970   0.654   2.470   0.746  0.0873 -0.3696  0.8570
  165MOL     O342971   0.757   2.374   0.742  0.2206 -0.0680 -0.1357
  165MOL     C442972   0.856   2.392   0.845 -0.3128  0.0640  0.3020
  165MOL     C542973   0.984   2.315   0.797 -0.5938  0.4886 -0.0163
  165MOL     H642974   0.528   2.566   0.612 -0.5370 -0.8424  0.2557
  165MOL     H742975   0.642   2.492   0.525  1.1310  0.5915  0.9794
  165MOL     H842976   0.697   2.569   0.755 -0.3339  0.0177 -1.0412
  165MOL     H942977   0.824   2.351   0.941  2.9330  2.3125  2.4525
  165MOL    H1042978   0.887   2.494   0.868 -0.4459  0.6152 -1.9199
  165MOL    H1142979   1.019   2.361   0.705 -1.1793  0.5104 -0.2307
  165MOL    H1242980   1.057   2.319   0.878 -1.4781  0.6105  0.7920
  165MOL    H1342981   0.971   2.210   0.770 -0.7896  0.0447  1.7322
  165MOL    H1442982   0.527   2.378   0.593 -0.5338 -0.8222  0.2499
  165MOL    C1542983   0.556   2.434   0.861 -0.5594  0.4282 -0.5866
  165MOL    C1642984   0.441   2.540   0.879  0.2413  0.6292  0.2257
  165MOL    O1742985   0.514   2.663   0.905  0.2835  0.2536 -0.2084
  165MOL    C1842986   0.447   2.790   0.920 -0.3406  0.1956 -0.2071
  165MOL    C1942987   0.528   2.896   0.847  0.1172  0.2463 -0.6628
  165MOL    H2042988   0.618   2.432   0.951  0.6007 -1.5418 -1.4001
  165MOL    H2142989   0.501   2.344   0.835 -1.7954  1.0503 -0.1393
  165MOL    H2242990   0.377   2.544   0.791  0.1993 -1.3267  0.1330
  165MOL    H2342991   0.454   2.806   1.027 -0.5767 -0.8544 -0.0214
  165MOL    H2442992   0.345   2.782   0.882 -0.9342 -1.4534  1.6431
  165MOL    H2542993   0.484   2.996   0.841  0.1220  0.3723  1.0960
  165MOL    H2642994   0.543   2.868   0.743 -0.9219  2.8115 -1.5487
  165MOL    H2742995   0.624   2.919   0.892 -1.0744  0.8288  1.6481
  165MOL    C2842996   0.352   2.508   1.000  0.1350  0.1812 -0.2997
  165MOL    C2942997   0.223   2.425   0.987  0.1184 -0.3345  0.0500
  165MOL    O3042998   0.252   2.298   0.932 -0.9522  0.2551 -0.2198
  165MOL    C3142999   0.321   2.204   1.014 -0.6693 -1.3473  0.1312
  165MOL    C3243000   0.335   2.072   0.933 -0.7672 -0.3838 -0.1513
  165MOL    H3343001   0.323   2.604   1.043  2.7675  1.5291 -1.3712
  165MOL    H3443002   0.415   2.472   1.082 -0.5153  2.6463  1.3566
  165MOL    H3543003   0.183   2.416   1.088  2.0071 -1.4098  0.7262
  165MOL    H3643004   0.280   2.190   1.114 -0.1504 -1.2588  0.3556
  165MOL    H3743005   0.420   2.247   1.026 -2.0544  1.9464  0.2122
  165MOL    H3843006   0.407   2.004   0.977  0.1175  0.7642  0.2013
  165MOL    H3943007   0.240   2.019   0.925 -1.6852  0.8704  1.9238
  165MOL    H4043008   0.384   2.074   0.836  1.1188  0.2825  0.8047
  165MOL    C4143009   0.112   2.493   0.911 -0.7436 -0.0486  0.2750
  165MOL    C4243010   7.812   2.476   0.959 -0.8074 -0.6596  0.0081
  165MOL    O4343011   7.722   2.525   0.860  0.1398 -0.5756  0.0447
  165MOL    C4443012   7.691   2.436   0.754  0.1622 -0.6938  0.8350
  165MOL    C4543013   7.569   2.506   0.688 -0.2227  0.0282  0.4209
  165MOL    H4643014   0.115   2.458   0.808 -3.5656 -0.3185  0.2353
  165MOL    H4743015   0.133   2.600   0.903 -2.6518  0.2823 -0.5011
  165MOL    H4843016   7.807   2.368   0.977  0.0614 -0.0296  4.5957
  165MOL    H4943017   7.667   2.331   0.771  0.4804 -0.7278  1.0665
  165MOL    H5043018   7.782   2.437   0.694 -1.8179  2.5967 -2.3165
  165MOL    H5143019   7.604   2.607   0.667  2.6031 -0.8278  0.7117
  165MOL    H5243020   7.534   2.449   0.602  0.3073  1.4917 -0.7668
  165MOL    H5343021   7.489   2.516   0.762  1.3993  0.8927  2.1020
  165MOL    C5443022   7.795   2.555   1.085 -0.1481  0.2032  0.4110
  165MOL    C5543023   7.651   2.585   1.117 -1.2882  0.3474  0.3378
  165MOL    O5643024   7.655   2.665   1.237  0.1564 -0.2140 -0.6737
  165MOL    C5743025   7.527   2.719   1.278  0.3296 -0.1084 -0.6325
  165MOL    C5843026   7.530   2.831   1.384  0.3114 -0.3621 -0.0843
  165MOL    H5943027   0.011   2.646   1.081 -0.4348  0.5017  2.3712
  165MOL    H6043028   7.838   2.495   1.164  1.1192  0.6132  0.0388
  165MOL    H6143029   7.612   2.649   1.039 -0.9847  0.6374  0.4223
  165MOL    H6243030   7.465   2.637   1.314 -2.0526  1.4513 -1.0599
  165MOL    H6343031   7.474   2.756   1.190 -1.2694 -2.6814 -0.7917
  165MOL    H6443032   7.580   2.916   1.339  0.8021 -0.2759  0.6164
  165MOL    H6543033   7.427   2.864   1.399  0.5118  0.7219 -1.0145
  165MOL    H6643034   7.581   2.806   1.477 -0.4117  1.9523  0.9403
  165MOL    C6743035   7.557   2.460   1.129  0.1519  0.0354 -0.5325
  165MOL    C6843036   7.560   2.364   1.245 -1.0036  0.2696  0.1248
  165MOL    O6943037   7.678   2.283   1.228 -0.2702  0.2657 -0.3195
  165MOL    C7043038   7.737   2.237   1.348 -0.0530 -0.0046  0.0349
  165MOL    C7143039   0.022   2.158   1.303  0.7479 -0.2579  0.0545
  165MOL    H7243040   7.562   2.396   1.041 -0.3075 -0.1572 -0.4219
  165MOL    H7343041   7.454   2.495   1.128 -0.8622 -2.7614  0.2565
  165MOL    H7443042   7.578   2.427   1.332 -0.4961 -1.4699  1.3238
  165MOL    H7543043   7.669   2.167   1.397  1.0092  0.1334  1.7476
  165MOL    H7643044   7.765   2.328   1.402 -2.0298  0.4142  0.3866
  165MOL    H7743045   0.102   2.141   1.375  0.2934  0.4479  0.7322
  165MOL    H7843046   7.843   2.057   1.267 -0.0649  0.0964 -0.4296
  165MOL    H7943047   0.062   2.205   1.213  1.0006 -1.4335 -0.4626
  165MOL    C8043048   7.440   2.264   1.265  0.7518 -0.6800  0.7388
  165MOL    C8143049   7.311   2.320   1.316  1.1571 -1.0203  0.9957
  165MOL    O8243050   7.335   2.352   1.457 -0.5900  0.4100  0.0072
  165MOL    C8343051   7.243   2.450   1.510 -0.1088  0.2503  0.2063
  165MOL    C8443052   7.301   2.493   1.649  0.0397 -0.0241  0.2072
  165MOL    H8543053   7.472   2.187   1.335  2.1275 -0.6142  0.1818
  165MOL    H8643054   7.421   2.211   1.172 -0.8383  3.1479 -1.2622
  165MOL    H8743055   7.293   2.417   1.270  2.8179 -3.0407 -4.1966
  165MOL    H8843056   7.149   2.400   1.532  0.8775 -2.6251 -1.7559
  165MOL    H8943057   7.253   2.537   1.445 -0.7033 -1.0795 -1.7093
  165MOL    H9043058   7.245   2.572   1.698 -1.5396 -1.5410  0.8915
  165MOL    H9143059   7.292   2.408   1.717 -0.9969  0.7168  0.9973
  165MOL    H9243060   7.406   2.524   1.652  0.7030 -2.1086 -0.2954
  165MOL    C9343061   7.199   2.224   1.296 -0.0688  0.6512  0.2456
  165MOL    C9443062   7.161   2.188   1.148  0.3274 -0.8019 -0.5852
  165MOL    O9543063   7.167   2.301   1.065 -0.2270 -0.4948 -0.0443
  165MOL    C9643064   7.167   2.280   0.920 -0.1831 -0.4836  0.5653
  165MOL    C9743065   7.105   2.387   0.839 -0.0070 -0.5494 -0.2923
  165MOL    H9843066   7.115   2.262   1.355 -1.1989 -0.7470 -0.4304
  165MOL    H9943067   7.225   2.128   1.341 -0.1394  1.0284  1.1079
  165MOL   H10043068   7.233   2.114   1.112  0.3356  0.4311 -3.1932
  165MOL   H10143069   7.124   2.182   0.901 -0.1615 -0.5575  0.8990
  165MOL   H10243070   7.271   2.280   0.888 -0.5304  1.0398 -0.6655
  165MOL   H10343071   7.138   2.384   0.736  0.5689  0.2172 -0.1340
  165MOL   H10443072   6.996   2.374   0.840 -0.3747  2.2797  0.2519
  165MOL   H10543073   7.140   2.480   0.884  0.4401 -1.8439  2.1183
  165MOL   C10643074   7.015   2.121   1.138 -0.4113 -0.5326 -0.4526
  165MOL   C10743075   6.888   2.200   1.156  0.4908  0.1321 -0.4819
  165MOL   O10843076   6.870   2.229   1.295  0.1003  0.6762 -0.4706
  165MOL   C10943077   6.808   2.352   1.326 -0.4502 -0.4166 -0.2872
  165MOL   C11043078   6.796   2.361   1.475  0.5666  0.2715 -0.1356
  165MOL   H11143079   7.006   2.028   1.195 -1.4724 -1.5832 -2.2902
  165MOL   H11243080   7.013   2.067   1.043 -0.8756 -0.0979 -0.6852
  165MOL   H11343081   6.912   2.291   1.101 -1.1811  1.0483  0.2485
  165MOL   H11443082   6.714   2.359   1.271 -0.0365  1.0675 -0.8283
  165MOL   H11543083   6.871   2.434   1.293 -0.6350  0.5964  1.8139
  165MOL   H11643084   6.768   2.268   1.525  1.4595 -0.3010 -0.6907
  165MOL   H11743085   6.891   2.394   1.515  0.9894  1.5311 -2.1312
  165MOL   H11843086   6.730   2.442   1.506  1.0885  0.2012  1.1885
  165MOL   C11943087   6.767   2.126   1.102 -0.5814  0.2012  0.3623
  165MOL   C12043088   6.733   2.166   0.955 -0.6052  0.1953 -0.0520
  165MOL   O12143089   6.852   2.143   0.875 -0.1833 -0.2684 -0.0749
  165MOL   C12243090   6.857   2.015   0.819  0.1143 -0.2511 -0.6887
  165MOL   C12343091   6.994   1.991   0.762  0.5852  0.3121 -0.2616
  165MOL   H12443092   6.678   2.147   1.161  1.3130  0.2608  3.3354
  165MOL   H12543093   6.788   2.020   1.118  1.0834  0.4466 -0.0668
  165MOL   H12643094   6.660   2.096   0.916 -0.3190 -0.4440  0.5416
  165MOL   H12743095   6.776   2.012   0.747  0.7487 -0.8865 -1.3851
  165MOL   H12843096   6.833   1.938   0.892  1.2819 -1.5715 -1.6562
  165MOL   H12943097   7.071   1.999   0.840 -0.1781 -0.8564  0.6270
  165MOL   H13043098   6.993   1.892   0.718 -4.5688  0.6639 -1.2586
  165MOL   H13143099   7.016   2.062   0.683  1.8737  0.3071  0.0762
  165MOL   C13243100   6.681   2.314   0.947 -0.4273 -0.0655  0.0833
  165MOL   C13343101   6.528   2.321   0.903  0.2035  0.4864  0.7445
  165MOL   O13443102   6.517   2.272   0.769  0.8068 -0.4356 -0.1877
  165MOL   C13543103   6.394   2.195   0.743 -0.4422 -0.1583 -0.3311
  165MOL   C13643104   6.398   2.147   0.595 -0.1529  0.5199  0.5971
  165MOL   H13743105   6.745   2.379   0.887 -1.2630  0.2422 -0.4709
  165MOL   H13843106   6.685   2.353   1.049 -1.1678 -1.3511  0.6083
  165MOL   H13943107   6.464   2.250   0.955 -0.0767 -0.2906 -0.6222
  165MOL   H14043108   6.300   2.251   0.750 -0.8154 -1.0819  2.8512
  165MOL   H14143109   6.390   2.116   0.819 -3.5604 -0.6897 -0.9545
  165MOL   H14243110   6.304   2.106   0.559  0.3149  1.2304 -1.4716
  165MOL   H14343111   6.418   2.232   0.530  0.7335  0.2449  0.5009
  165MOL   H14443112   6.472   2.068   0.585 -1.0996 -0.2806 -0.1069
  165MOL   C14543113   6.472   2.467   0.902  0.1396  0.3387 -0.3489
  165MOL   C14643114   6.455   2.543   1.031 -0.3935 -0.0594  0.2921
  165MOL   O14743115   6.338   2.481   1.099  0.1929 -0.2158 -0.1561
  165MOL   C14843116   6.335   2.476   1.241  0.4750 -0.8567  0.9089
  165MOL   C14943117   6.198   2.421   1.280 -0.0515  0.1443  0.1769
  165MOL   H15043118   6.371   2.461   0.861 -0.0769  1.9962 -0.0809
  165MOL   H15143119   6.532   2.529   0.835  0.2901  0.7830  0.1860
  165MOL   H15243120   6.552   2.532   1.078 -1.3913 -0.0995  2.4090
  165MOL   H15343121   6.350   2.572   1.290 -0.8466  0.3550 -0.9735
  165MOL   H15443122   6.403   2.406   1.287 -0.8740 -1.3866  2.1296
  165MOL   H15543123   6.175   2.326   1.230 -2.5588  0.7400  0.1334
  165MOL   H15643124   6.183   2.395   1.384  0.6444  0.3137  0.3165
  165MOL   H15743125   6.118   2.485   1.242 -0.3639 -0.2822  0.1097
  165MOL   C15843126   6.424   2.693   1.013  0.7512  0.3090 -0.5175
  165MOL   C15943127   6.536   2.798   0.976 -0.3582 -0.6234 -0.3047
  165MOL   O16043128   6.633   2.791   1.088  0.0022  0.0188  0.3379
  165MOL   C16143129   6.767   2.820   1.042 -0.1122  0.0326  0.1370
  165MOL   C16243130   6.855   2.708   1.076 -0.4348  0.2169  0.0122
  165MOL   H16343131   6.374   2.721   1.106  1.0138 -1.7093  0.2667
  165MOL   H16443132   6.335   2.706   0.951 -0.4691  1.4954  1.4384
  165MOL   H16543133   6.575   2.757   0.883  0.2127  1.4363 -0.9900
  165MOL   H16643134   6.797   2.915   1.086 -0.0482  0.3789 -0.6493
  165MOL   H16743135   6.769   2.834   0.934  0.1169 -0.2668  0.1020
  165MOL   H16843136   6.962   2.726   1.072 -0.2868 -0.3465  1.1616
  165MOL   H16943137   6.836   2.667   1.175  2.5026 -1.0923  0.0783
  165MOL   H17043138   6.835   2.626   1.008  0.0415  0.2657 -0.1878
  165MOL   C17143139   6.494   2.946   0.978 -0.4386 -0.2866  0.0335
  165MOL   C17243140   6.376   2.980   0.880  0.0222 -0.3428  0.0602
  165MOL   O17343141   6.430   2.975   0.740 -0.5326 -0.5289 -0.0274
  165MOL   C17443142   6.334   3.010   0.643  1.0445  0.3742  0.7446
  165MOL   C17543143   6.400   2.976   0.513  0.1631  0.0888 -0.0664
  165MOL   H17643144   6.567   3.025   0.960  0.0788 -1.0267 -1.1307
  165MOL   H17743145   6.463   2.975   1.079  0.2554 -0.3411  0.2636
  165MOL   H17843146   6.301   2.901   0.881 -2.1538  1.6521 -1.0290
  165MOL   H17943147   6.305   3.115   0.653 -1.1140 -0.2057  0.7986
  165MOL   H18043148   6.245   2.949   0.660  0.4411  0.6496 -1.2696
  165MOL   H18143149   6.503   3.011   0.510  0.8651 -1.9064 -0.0849
  165MOL   H18243150   6.396   2.869   0.495 -0.2572 -0.0482  0.8137
  165MOL   H18343151   6.344   3.027   0.435 -0.8411 -0.9430 -0.0214
  165MOL   C18443152   6.301   3.117   0.918 -0.3393 -0.4632 -0.7902
  165MOL   C18543153   6.247   3.116   1.065 -0.2653  0.2044 -0.4732
  165MOL   O18643154   6.180   2.990   1.086  0.7075 -0.3323  0.2274
  165MOL   C18743155   6.162   2.942   1.220  0.0786 -0.1083  0.4314
  165MOL   C18843156   6.082   2.809   1.223 -0.6096 -1.0010 -0.1031
  165MOL   H18943157   6.217   3.130   0.850  0.7438  1.9864 -1.6990
  165MOL   H19043158   6.370   3.200   0.907 -1.8298  0.6630 -1.7660
  165MOL   H19143159   6.333   3.136   1.128 -1.3102  0.2420  0.9529
  165MOL   H19243160   6.115   3.018   1.282 -2.0074  0.3282 -1.6618
  165MOL   H19343161   6.264   2.920   1.254  0.3897 -0.6423 -0.8160
  165MOL   H19443162   6.130   2.739   1.155  1.2567 -0.5686  0.7194
  165MOL   H19543163   6.082   2.761   1.321  1.5115 -1.8087 -0.4689
  165MOL   H19643164   5.981   2.835   1.191 -1.3236 -2.2065  1.1062
  165MOL   C19743165   6.146   3.235   1.100  0.1624  0.2140 -0.4053
  165MOL   C19843166   6.216   3.372   1.088  0.2172 -0.1257 -0.0682
  165MOL   O19943167   6.302   3.373   1.201 -0.0037 -0.0668 -0.2452
  165MOL   C20043168   6.389   3.483   1.225 -0.7019  0.2424 -0.7998
  165MOL   C20143169   6.490   3.439   1.332 -0.4726  0.4780 -0.5406
  165MOL   H20243170   6.101   3.214   1.197 -1.5553  0.6212 -1.0954
  165MOL   H20343171   6.072   3.218   1.022  0.3929 -0.7094 -0.4336
  165MOL   H20443172   6.271   3.405   1.000  0.5163  2.0616  0.8984
  165MOL   H20543173   6.345   3.577   1.257  0.9286  1.3211 -1.7075
  165MOL   H20643174   6.443   3.508   1.134  1.1567  2.4047  0.8689
  165MOL   H20743175   6.516   3.339   1.298 -1.2160  1.0598 -2.8980
  165MOL   H20843176   6.577   3.505   1.328  1.1210 -1.5746 -1.1938
  165MOL   H20943177   6.448   3.432   1.432 -0.9748 -0.2288 -0.7997
  165MOL   C21043178   6.109   3.480   1.117 -0.5734  0.9698  0.4823
  165MOL   C21143179   5.992   3.485   1.010 -0.2675 -0.0547 -0.3853
  165MOL   O21243180   6.043   3.539   0.891 -0.2533 -0.2789 -0.5898
  165MOL   C21343181   5.973   3.520   0.769  0.5446 -0.3550 -0.0802
  165MOL   C21443182   6.038   3.406   0.690 -0.2758 -0.4770 -0.4369
  165MOL   H21543183   6.155   3.578   1.105 -0.2269  0.6524 -0.8992
  165MOL   H21643184   6.081   3.475   1.222 -0.8574 -1.5740  0.3332
  165MOL   H21743185   5.960   3.385   0.981  1.2808  0.0711 -2.6086
  165MOL   H21843186   5.984   3.607   0.705 -0.7509  0.4028  0.7159
  165MOL   H21943187   5.865   3.502   0.768  0.3686  0.6583 -3.0096
  165MOL   H22043188   6.025   3.306   0.732 -0.7856  0.7777  2.5105
  165MOL   H22143189   5.997   3.410   0.589 -1.0490 -2.1551 -0.2175
  165MOL   H22243190   6.143   3.424   0.668 -0.5098  1.3884 -0.0600
  165MOL   C22343191   5.872   3.574   1.041 -0.2805 -0.1359 -0.6835
  165MOL   C22443192   5.815   3.549   1.180  0.2004  0.2429 -0.4118
  165MOL   O22543193   5.899   3.609   1.280  0.3588 -0.3509  0.4830
  165MOL   C22643194   5.866   3.738   1.318  0.0169  0.3846 -0.1212
  165MOL   C22743195   5.987   3.796   1.392 -0.1226 -0.0253 -0.1646
  165MOL   H22843196   5.793   3.561   0.967 -0.3632  3.9333 -1.4666
  165MOL   H22943197   5.896   3.680   1.027  0.3003 -0.3206 -1.1227
  165MOL   H23043198   5.715   3.594   1.181  0.4445  0.9080 -2.5127
  165MOL   H23143199   5.776   3.738   1.379 -0.8245 -1.2238 -1.3342
  165MOL   H23243200   5.864   3.809   1.235 -0.9054  2.7671  1.8664
  165MOL   H23343201   6.072   3.826   1.331 -1.4448 -0.2962 -2.1976
  165MOL   H23443202   5.948   3.893   1.423  0.1454 -0.0975  0.4049
  165MOL   H23543203   6.026   3.723   1.463  1.9845  1.5228  0.3102
  165MOL   C23643204   5.792   3.397   1.222  0.2147 -0.1063 -0.2292
  165MOL   C23743205   5.697   3.310   1.139  0.2571  0.0660  0.7052
  165MOL   O23843206   5.568   3.351   1.189  0.7800 -0.2323 -0.2251
  165MOL   C23943207   5.451   3.317   1.113 -0.3802 -0.0616 -0.4431
  165MOL   C24043208   5.348   3.426   1.135 -0.2575  0.2058 -0.0888
  165MOL   H24143209   5.760   3.395   1.326 -0.9854 -0.3021 -0.5922
  165MOL   H24243210   5.884   3.343   1.246 -1.3669 -0.5434  5.4107
  165MOL   H24343211   5.704   3.339   1.034  0.0675  2.3530  1.2902
  165MOL   H24443212   5.416   3.217   1.139 -0.3720 -0.0433 -0.3602
  165MOL   H24543213   5.485   3.312   1.009  2.7513  2.4169  0.3653
  165MOL   H24643214   5.378   3.526   1.105  1.5111 -0.7519 -1.6269
  165MOL   H24743215   5.269   3.406   1.063 -0.5339 -0.2120  0.3240
  165MOL   H24843216   5.304   3.429   1.235  2.5183  0.6384  1.1504
  165MOL   C24943217   5.716   3.158   1.150  0.1554 -0.1950 -1.1645
  165MOL   C25043218   5.701   3.102   1.291  0.5489  0.3156 -0.0478
  165MOL   O25143219   5.675   2.964   1.287 -0.0566 -0.3229 -0.4020
  165MOL   C25243220   5.686   2.904   1.419  0.5642  0.2317 -0.1383
  165MOL   C25343221   5.661   2.759   1.410  0.0962 -0.5856 -0.0816
  165MOL   H25443222   5.820   3.140   1.122  0.6615  1.7039 -0.5846
  165MOL   H25543223   5.646   3.111   1.081 -4.1164  3.6343  0.2777
  165MOL   H25643224   5.790   3.134   1.346 -0.4102  1.0906  1.0679
  165MOL   H25743225   5.622   2.966   1.481 -0.3787 -1.5645  0.7178
  165MOL   H25843226   5.786   2.922   1.458  1.1417 -0.4586 -1.2643
  165MOL   H25943227   5.652   2.722   1.512 -2.6166  1.1420  0.3531
  165MOL   H26043228   5.581   2.727   1.343  0.2832 -1.9579  0.3287
  165MOL   H26143229   5.742   2.705   1.361 -0.5453 -1.9001  0.2669
  165MOL   H26243230   5.612   3.145   1.337  1.6472  0.7128  1.7641
  166MOL     C143231   5.424   0.202   7.750  0.1798  0.6011  0.2446
  166MOL     C243232   5.393   0.221   7.595  0.0715 -0.3599 -0.2299
  166MOL     O343233   5.514   0.282   7.545 -0.2468 -0.0859 -0.7733
  166MOL     C443234   5.593   0.189   7.471 -0.2163 -0.2836  0.5723
  166MOL     C543235   5.728   0.259   7.443 -0.6692  0.0253 -0.1710
  166MOL     H643236   5.463   0.296   7.788  0.0013  1.4568 -1.6293
  166MOL     H743237   5.341   0.157   7.804 -1.0657  0.3841 -1.8088
  166MOL     H843238   5.368   0.125   7.549 -2.3983 -1.0608  2.4392
  166MOL     H943239   5.544   0.157   7.379  2.3184 -1.2646 -0.4907
  166MOL    H1043240   5.611   0.105   7.537  1.2804 -0.7814 -0.4478
  166MOL    H1143241   5.809   0.187   7.431  0.3725  0.9926  0.8943
  166MOL    H1243242   5.728   0.329   7.359  1.3596  0.6941  0.3600
  166MOL    H1343243   5.752   0.318   7.531 -2.3048  1.6487 -0.7722
  166MOL    H1443244   5.513   0.140   7.763  2.0466  3.1868  0.1245
  166MOL    C1543245   5.278   0.324   7.563 -0.8710  0.2418 -0.1769
  166MOL    C1643246   5.132   0.284   7.592  0.2234  0.0214 -0.4800
  166MOL    O1743247   5.111   0.276   7.729  0.1115 -0.0582  0.4593
  166MOL    C1843248   5.106   0.402   7.793 -0.5256 -0.3659  0.2213
  166MOL    C1943249   5.026   0.380   0.074  0.3386  0.2171  0.4984
  166MOL    H2043250   5.279   0.327   7.454 -1.1965 -1.9560 -0.2675
  166MOL    H2143251   5.303   0.421   7.605  0.5551 -0.7806  1.4015
  166MOL    H2243252   5.067   0.351   7.536 -0.7851 -2.2825 -2.1456
  166MOL    H2343253   5.059   0.475   7.727 -0.9361 -1.2015 -0.4325
  166MOL    H2443254   5.202   0.446   7.819  0.3007 -0.1072 -2.9694
  166MOL    H2543255   5.079   0.309   0.137  1.4994 -1.8952 -2.7131
  166MOL    H2643256   4.928   0.340   0.048 -0.2080  1.6339  0.3249
  166MOL    H2743257   5.006   0.468   0.135 -0.4925 -0.3135  0.9966
  166MOL    C2843258   5.102   0.150   7.518  0.6123  0.0159  0.3591
  166MOL    C2943259   4.957   0.099   7.522  1.6416 -0.4124 -0.1968
  166MOL    O3043260   4.870   0.206   7.489 -0.3406 -0.2461 -0.6287
  166MOL    C3143261   4.851   0.223   7.352 -0.9319  0.5959  0.0252
  166MOL    C3243262   4.741   0.321   7.340  0.4210 -0.3446 -0.0869
  166MOL    H3343263   5.171   0.071   7.548  2.2107  0.7991 -1.1721
  166MOL    H3443264   5.132   0.166   7.415 -0.7048 -1.0758 -0.1973
  166MOL    H3543265   4.945   0.016   7.453  1.0007 -0.4306 -0.0624
  166MOL    H3643266   4.833   0.128   7.303  0.6848  1.5896 -2.6036
  166MOL    H3743267   4.943   0.266   7.313 -0.2475 -1.2998 -0.5119
  166MOL    H3843268   4.725   0.339   7.234  0.4928 -0.1827 -0.0703
  166MOL    H3943269   4.647   0.282   7.379  0.1668  0.3897  0.0344
  166MOL    H4043270   4.764   0.419   7.382  1.1551 -1.2644  1.7473
  166MOL    C4143271   4.902   0.037   7.655  0.2603 -0.2052  0.1424
  166MOL    C4243272   4.969   7.756   7.716 -0.2942 -0.5991  0.2623
  166MOL    O4343273   4.963   7.651   7.615 -0.0450 -0.1398 -0.2093
  166MOL    C4443274   5.065   7.547   7.626  0.2854  0.2179 -0.9389
  166MOL    C4543275   5.055   7.466   7.503  0.1417  1.0209  0.0919
  166MOL    H4643276   4.797   0.019   7.633  0.7601 -3.2168  0.0025
  166MOL    H4743277   4.894   0.121   7.724  0.0047  0.9912 -1.3099
  166MOL    H4843278   5.075   7.780   7.726 -0.0893 -0.6622 -1.6557
  166MOL    H4943279   5.038   7.499   7.720  2.7306  3.5079  1.5883
  166MOL    H5043280   5.165   7.591   7.633  0.3095 -0.1705  1.6616
  166MOL    H5143281   5.085   7.530   7.420  0.7217  1.3430  0.5439
  166MOL    H5243282   5.127   7.385   7.517 -2.5058 -1.6945 -1.2489
  166MOL    H5343283   4.954   7.425   7.495  1.0875 -1.2022 -0.8181
  166MOL    C5443284   4.898   7.707   0.007  0.7507 -0.1713 -0.0271
  166MOL    C5543285   4.923   7.787   0.135  0.9382 -0.1891  0.5392
  166MOL    O5643286   5.039   7.733   0.203 -0.4340  0.1599  0.2048
  166MOL    C5743287   5.147   7.826   0.199 -0.4633  0.1120  0.6399
  166MOL    C5843288   5.267   7.749   0.243 -0.6459  0.2641  0.3927
  166MOL    H5943289   4.908   7.599   0.020 -0.4123 -0.1452  1.2270
  166MOL    H6043290   4.794   7.721   7.823  0.4914  0.8016  1.4062
  166MOL    H6143291   4.942   0.049   0.116  0.2109 -0.0631  0.4884
  166MOL    H6243292   5.131   0.074   0.258  0.8359 -1.6167  3.8130
  166MOL    H6343293   5.156   0.014   0.096 -0.3535  2.1488  1.2482
  166MOL    H6443294   5.351   7.819   0.249  1.0047 -1.5875 -0.5474
  166MOL    H6543295   5.254   7.705   0.342 -3.7071 -0.7722 -0.4276
  166MOL    H6643296   5.282   7.668   0.172 -1.6610 -0.9455  1.5243
  166MOL    C6743297   4.805   7.791   0.233 -0.6133 -0.1528  0.2317
  166MOL    C6843298   4.677   0.010   0.170  0.0557 -0.4775 -0.1965
  166MOL    O6943299   4.712   0.120   0.082 -0.1396 -0.0960 -0.6953
  166MOL    C7043300   4.613   0.147   7.831 -0.2480 -0.6836 -0.2007
  166MOL    C7143301   4.637   0.283   7.772 -0.7017 -0.3528 -0.1983
  166MOL    H7243302   4.827   0.024   0.308  1.5579  0.5545 -1.0808
  166MOL    H7343303   4.775   7.697   0.278 -0.2563 -1.3476 -1.9327
  166MOL    H7443304   4.646   7.770   0.107  1.5204  0.0200 -1.6232
  166MOL    H7543305   4.517   0.159   0.036  0.5477 -0.9114  1.4370
  166MOL    H7643306   4.605   0.066   7.758  1.9333  0.2302 -1.5065
  166MOL    H7743307   4.582   0.307   7.681 -0.4631  0.2593 -0.1829
  166MOL    H7843308   4.629   0.360   0.005  0.0645  0.2021 -0.6698
  166MOL    H7943309   4.742   0.291   7.742 -0.7665 -1.2446 -0.6801
  166MOL    C8043310   4.567   0.039   0.270 -0.5629  0.2080 -0.4938
  166MOL    C8143311   4.465   7.772   0.300 -0.3794  0.0125  0.4616
  166MOL    O8243312   4.533   7.662   0.366 -0.0204 -0.1108 -0.1034
  166MOL    C8343313   4.579   7.686   0.497 -0.0594 -0.3873 -0.4992
  166MOL    C8443314   4.675   7.564   0.532  0.3743  0.1876  0.3504
  166MOL    H8543315   4.513   0.130   0.243  0.8591  1.3038  0.2851
  166MOL    H8643316   4.620   0.078   0.357 -1.1056  1.8227 -0.8626
  166MOL    H8743317   4.391   7.826   0.360 -1.5634 -1.2063  0.1100
  166MOL    H8843318   4.499   7.710   0.568  0.2893 -1.2917  0.1997
  166MOL    H8943319   4.642   7.775   0.503 -1.3995  0.5406  0.4355
  166MOL    H9043320   4.616   7.475   0.555 -1.8002  1.0840 -1.4693
  166MOL    H9143321   4.762   7.541   0.471  1.1513  1.1772  1.0799
  166MOL    H9243322   4.718   7.584   0.630  3.0792 -2.3041 -0.2459
  166MOL    C9343323   4.383   7.717   0.181  0.1200  0.3446 -0.3269
  166MOL    C9443324   4.234   7.683   0.214 -0.3572 -0.1919 -0.4187
  166MOL    O9543325   4.165   7.794   0.260  0.3650 -0.1786  0.2316
  166MOL    C9643326   4.153   0.048   0.156  0.2095  0.3455  0.0778
  166MOL    C9743327   4.061   0.161   0.210 -0.2311  0.8449 -0.7298
  166MOL    H9843328   4.427   7.622   0.150  0.0009 -0.4715  1.8572
  166MOL    H9943329   4.389   7.788   0.099 -2.0616 -0.4089 -1.1826
  166MOL   H10043330   4.192   7.653   0.118 -1.8852  2.4313 -0.6410
  166MOL   H10143331   4.102   0.016   0.066 -0.2280 -0.3342  0.5622
  166MOL   H10243332   4.247   0.091   0.121  0.3594  0.3288  0.4535
  166MOL   H10343333   4.076   0.241   0.138 -0.4314  0.0008 -1.7186
  166MOL   H10443334   3.955   0.135   0.212  0.3024 -1.3598  1.0513
  166MOL   H10543335   4.102   0.199   0.304 -0.1635 -1.6700  0.2875
  166MOL   C10643336   4.220   7.566   0.307 -0.3303 -0.1109  0.1716
  166MOL   C10743337   4.277   7.427   0.256  0.2178  0.0699  0.4914
  166MOL   O10843338   4.220   7.398   0.125  0.2257  0.0336  0.3618
  166MOL   C10943339   4.327   7.354   0.040  0.1349 -0.8910  0.2295
  166MOL   C11043340   4.254   7.297   7.756 -0.4750 -0.2755 -0.4825
  166MOL   H11143341   4.114   7.562   0.329 -0.1661  0.1013  1.0160
  166MOL   H11243342   4.272   7.594   0.399 -1.4789 -0.2624  0.8697
  166MOL   H11343343   4.386   7.428   0.265  0.0377  0.6744  3.1449
  166MOL   H11443344   4.388   7.280   0.091  1.3025 -0.6998 -0.8678
  166MOL   H11543345   4.396   7.436   0.020 -0.6204 -0.2454  0.2269
  166MOL   H11643346   4.189   7.217   7.792  1.5374 -2.6080 -1.8976
  166MOL   H11743347   4.191   7.371   7.707 -1.2372 -1.5750 -1.4711
  166MOL   H11843348   4.330   7.263   7.687  3.8039  1.8431  2.8937
  166MOL   C11943349   4.228   7.320   0.354 -0.4436  0.3794 -0.1513
  166MOL   C12043350   4.306   7.187   0.357 -0.2053  0.0813  0.2720
  166MOL   O12143351   4.236   7.093   0.428  0.6946 -0.8710  0.2227
  166MOL   C12243352   4.120   7.029   0.385  0.1058  0.3532 -0.1532
  166MOL   C12343353   4.086   6.919   0.481 -0.2606 -0.2465 -0.0113
  166MOL   H12443354   4.123   7.305   0.330 -0.7200  2.7818 -0.6044
  166MOL   H12543355   4.245   7.359   0.455 -0.9893  1.5870 -0.5108
  166MOL   H12643356   4.307   7.152   0.253  3.1509 -2.7047  1.1474
  166MOL   H12743357   4.139   6.987   0.285  0.1077 -3.0882  1.2193
  166MOL   H12843358   4.042   7.104   0.379 -0.4713 -0.1808  0.6405
  166MOL   H12943359   4.062   6.967   0.575 -0.1778 -0.2970  0.0354
  166MOL   H13043360   4.004   6.862   0.438 -1.4895  0.9218  0.7704
  166MOL   H13143361   4.166   6.847   0.497  1.1347  1.4048  0.6439
  166MOL   C13243362   4.450   7.191   0.403  0.0949 -0.3442  0.5319
  166MOL   C13343363   4.512   7.049   0.403 -0.0123  0.0761  0.2503
  166MOL   O13443364   4.570   7.019   0.533 -0.1891  0.1206  0.1266
  166MOL   C13543365   4.477   6.973   0.627 -0.0426  0.5212  0.5150
  166MOL   C13643366   4.552   6.950   0.761 -0.5383 -0.3516 -0.2460
  166MOL   H13743367   4.448   7.236   0.502 -3.2317  1.0400 -0.1015
  166MOL   H13843368   4.502   7.262   0.339 -1.8859  1.9385  1.4006
  166MOL   H13943369   4.457   6.962   0.367  0.2910  0.2753 -0.7035
  166MOL   H14043370   4.425   6.884   0.593  0.2052  0.9836 -1.1169
  166MOL   H14143371   4.410   7.057   0.646 -0.7570  0.0960 -0.0951
  166MOL   H14243372   4.475   6.957   0.838 -0.4972  3.6522 -0.4644
  166MOL   H14343373   4.592   6.849   0.748  1.5553  0.5882 -1.2943
  166MOL   H14443374   4.634   7.020   0.772  0.2898 -1.0006 -2.0222
  166MOL   C14543375   4.637   7.040   0.308  0.0996  0.4150  0.3221
  166MOL   C14643376   4.616   7.011   0.160  0.0615 -0.7067 -0.3687
  166MOL   O14743377   4.567   6.874   0.147  0.3517  0.1644 -0.2012
  166MOL   C14843378   4.462   6.851   0.056 -0.5323 -0.0318  0.0167
  166MOL   C14943379   4.352   6.763   0.126  0.0120  0.6552 -0.1456
  166MOL   H15043380   4.708   6.964   0.339  2.0100  1.1815 -1.9917
  166MOL   H15143381   4.694   7.132   0.319  0.0972  0.6977 -1.7169
  166MOL   H15243382   4.550   7.086   0.116  0.9843 -0.0917 -0.7348
  166MOL   H15343383   4.507   6.812   7.808  0.4645 -0.4397  0.6696
  166MOL   H15443384   4.402   6.939   0.036 -1.5484 -0.5583  0.7182
  166MOL   H15543385   4.264   6.752   0.062  0.5654  1.3991 -1.0511
  166MOL   H15643386   4.387   6.660   0.126  2.6393  1.5221 -0.2310
  166MOL   H15743387   4.320   6.786   0.228  0.3270 -0.4374  0.2068
  166MOL   C15843388   4.741   7.000   0.061  0.3619 -0.2343  0.6735
  166MOL   C15943389   4.822   7.132   0.053  0.6249  0.1363  0.6806
  166MOL   O16043390   4.752   7.205   7.799 -0.4566  0.3944 -0.4981
  166MOL   C16143391   4.754   7.344   7.829 -1.0684  0.1931 -0.3685
  166MOL   C16243392   4.712   7.426   7.707 -0.2504  0.4682  0.6618
  166MOL   H16343393   4.708   6.977   7.804 -2.0545 -0.9401  1.6104
  166MOL   H16443394   4.815   6.927   0.094  0.4249 -0.1256  0.7764
  166MOL   H16543395   4.815   7.181   0.150 -1.7720  0.1868  0.5210
  166MOL   H16643396   4.854   7.380   0.006 -1.9129  2.6881 -0.4654
  166MOL   H16743397   4.694   7.366   0.073 -0.2066 -0.0288  0.2803
  166MOL   H16843398   4.784   7.425   7.626 -1.4180  1.5655 -0.4212
  166MOL   H16943399   4.615   7.398   7.666  1.2549 -0.9430 -1.9991
  166MOL   H17043400   4.687   7.528   7.736 -1.4670  0.2034  0.5778
  166MOL   C17143401   4.968   7.103   0.020 -0.1731 -0.2050 -0.1271
  166MOL   C17243402   5.066   7.124   0.141  0.3759 -0.3587  0.1157
  166MOL   O17343403   5.037   7.245   0.200 -0.3687  0.4061 -0.0417
  166MOL   C17443404   5.100   7.273   0.330  0.2279  0.0793 -0.1467
  166MOL   C17543405   5.089   7.415   0.369  0.1942 -0.4370  0.6176
  166MOL   H17643406   5.008   7.169   7.787  0.7709 -2.4317 -1.6264
  166MOL   H17743407   4.971   7.008   7.810 -2.5418  0.5622 -1.6498
  166MOL   H17843408   5.040   7.054   0.221 -2.0359  1.2110  0.7711
  166MOL   H17943409   5.203   7.238   0.340  0.0284 -0.3160  0.5496
  166MOL   H18043410   5.056   7.216   0.412 -1.0684  0.2597 -0.7073
  166MOL   H18143411   5.148   7.439   0.458  2.7522 -0.9762 -0.8839
  166MOL   H18243412   5.118   7.482   0.288 -2.5880 -1.3457 -1.2009
  166MOL   H18343413   4.989   7.454   0.391  0.5506  1.5950 -1.1942
  166MOL   C18443414   5.215   7.111   0.096  1.2049  0.4440 -0.3920
  166MOL   C18543415   5.257   6.962   0.050  0.2558  0.0841 -0.5134
  166MOL   O18643416   5.306   6.899   0.174 -0.2325  0.6296 -0.4922
  166MOL   C18743417   5.259   6.771   0.204  0.6240 -0.4280 -0.5561
  166MOL   C18843418   5.342   6.726   0.315  0.1132 -0.7330  0.6382
  166MOL   H18943419   5.294   7.150   0.160 -1.8078  2.3522  2.3379
  166MOL   H19043420   5.224   7.177   0.009 -1.4140  0.2303 -0.8617
  166MOL   H19143421   5.161   6.912   0.031  0.0428  0.6216 -0.8690
  166MOL   H19243422   5.246   6.703   0.120 -1.1219 -1.8644  0.8067
  166MOL   H19343423   5.155   6.776   0.239  0.8321 -2.2993  0.4109
  166MOL   H19443424   5.442   6.697   0.282  0.8347  1.0592  1.2352
  166MOL   H19543425   5.357   6.807   0.385 -0.6164  0.6415 -0.7651
  166MOL   H19643426   5.286   6.642   0.357 -0.2446 -1.8932 -2.0414
  166MOL   C19743427   5.353   6.955   7.770  0.1926 -0.9438  0.4049
  166MOL   C19843428   5.290   7.002   7.634  0.4568 -0.3593 -0.0538
  166MOL   O19943429   5.196   6.900   7.596  0.5995 -0.0851 -0.4003
  166MOL   C20043430   5.077   6.952   7.537  0.3037 -0.2660 -0.3926
  166MOL   C20143431   4.974   6.843   7.514  0.2361  0.4973  0.1065
  166MOL   H20243432   5.388   6.852   7.766 -2.2083 -1.7063 -2.1325
  166MOL   H20343433   5.438   7.023   7.782 -0.2463 -0.6208  1.8416
  166MOL   H20443434   5.235   7.096   7.637  1.8321  0.4601 -0.5376
  166MOL   H20543435   5.102   6.997   7.441  0.8283 -0.1119 -0.1866
  166MOL   H20643436   5.043   7.029   7.606  1.9270  0.0548  0.0922
  166MOL   H20743437   5.008   6.768   7.442  0.9340  2.1506 -1.3470
  166MOL   H20843438   4.962   6.792   7.609  1.8135  0.9059  0.5491
  166MOL   H20943439   4.873   6.871   7.484 -0.8703 -1.3611  2.0006
  166MOL   C21043440   5.385   7.023   7.506  0.2369  0.8219 -0.7569
  166MOL   C21143441   5.458   6.891   7.472 -0.2988 -0.6812 -0.0157
  166MOL   O21243442   5.551   6.867   7.571 -0.7256  0.5086  0.5021
  166MOL   C21343443   5.577   6.727   7.596 -0.2500  0.2736 -0.9943
  166MOL   C21443444   5.680   6.725   7.712  0.1158 -0.4597 -0.7423
  166MOL   H21543445   5.462   7.100   7.513  2.0194 -1.1344  2.3893
  166MOL   H21643446   5.317   7.049   7.424 -0.4931  1.4421  0.0412
  166MOL   H21743447   5.398   6.804   7.448  2.3805 -2.0679 -2.0221
  166MOL   H21843448   5.614   6.674   7.509 -0.7411  1.1325 -1.7458
  166MOL   H21943449   5.486   6.680   7.633 -1.5621  3.3015 -0.1983
  166MOL   H22043450   5.696   6.622   7.745  0.4874 -0.5241 -1.1335
  166MOL   H22143451   5.766   6.782   7.676 -0.6899  1.1718 -0.1460
  166MOL   H22243452   5.646   6.784   7.797 -1.0742  2.0156 -2.8731
  166MOL   C22343453   5.540   6.898   7.340 -0.2914  0.3298 -0.1690
  166MOL   C22443454   5.460   6.903   7.207  0.4207  0.1234  0.3519
  166MOL   O22543455   5.390   6.785   7.180  0.0777 -0.0917 -0.3373
  166MOL   C22643456   5.249   6.789   7.204  0.7555 -0.2448  0.0904
  166MOL   C22743457   5.218   6.640   7.236  0.3056  0.4185  0.7032
  166MOL   H22843458   5.599   6.808   7.327  0.5154  0.3820  2.7021
  166MOL   H22943459   5.604   6.985   7.357  1.6980 -0.3684 -3.7027
  166MOL   H23043460   5.393   6.988   7.200 -1.9136 -1.6115  0.9295
  166MOL   H23143461   5.192   6.839   7.126 -0.0568 -1.0324  0.1705
  166MOL   H23243462   5.231   6.857   7.287 -0.4319 -1.6715  1.0215
  166MOL   H23343463   5.228   6.570   7.153 -0.2823  0.0333  0.9580
  166MOL   H23443464   5.300   6.608   7.300  1.1871 -1.1055 -1.1454
  166MOL   H23543465   5.124   6.625   7.288 -0.8105 -1.6347 -1.8107
  166MOL   C23643466   5.553   6.919   7.082  0.2443  0.2406 -0.1769
  166MOL   C23743467   5.664   7.019   7.078 -0.3499 -0.2117  0.0058
  166MOL   O23843468   5.772   6.981   7.161 -0.4154 -0.2099  0.0019
  166MOL   C23943469   5.877   6.901   7.104  0.2874 -0.5315  0.9727
  166MOL   C24043470   5.975   6.864   7.212 -0.8765  0.1963 -0.1095
  166MOL   H24143471   5.486   6.920   6.996 -1.8316 -0.1497  1.4053
  166MOL   H24243472   5.597   6.821   7.065  1.0721  0.4353  0.7847
  166MOL   H24343473   5.701   7.014   6.976 -0.7894 -3.0631 -0.0505
  166MOL   H24443474   5.929   6.953   7.023  1.1609  0.7412  2.3335
  166MOL   H24543475   5.819   6.812   7.077  0.1411  0.0944 -0.8357
  166MOL   H24643476   5.926   6.807   7.291  0.5242 -2.3381 -1.0311
  166MOL   H24743477   6.038   6.781   7.181  0.9773  1.9314 -1.1391
  166MOL   H24843478   6.028   6.949   7.256 -1.4785 -0.7899  2.6346
  166MOL   C24943479   5.623   7.166   7.117  0.7311  0.6018 -0.0777
  166MOL   C25043480   5.513   7.233   7.031 -0.1613 -0.2058 -0.1145
  166MOL   O25143481   5.565   7.248   6.902  0.0194 -0.1704  0.3658
  166MOL   C25243482   5.477   7.305   6.806  0.0804  0.1586  0.5062
  166MOL   C25343483   5.553   7.341   6.687 -0.0795 -0.2539 -0.2624
  166MOL   H25443484   5.711   7.230   7.117  1.6568 -0.6459  1.0903
  166MOL   H25543485   5.587   7.174   7.220  0.6391  0.5839 -0.1079
  166MOL   H25643486   5.422   7.173   7.034  0.6489 -1.4663 -0.5860
  166MOL   H25743487   5.419   7.390   6.841 -1.0270 -0.4369  0.1714
  166MOL   H25843488   5.403   7.229   6.781  2.0692 -2.4684  2.3459
  166MOL   H25943489   5.629   7.416   6.711 -0.7280  1.1321 -2.4593
  166MOL   H26043490   5.613   7.257   6.652  1.0993  0.1806  0.6674
  166MOL   H26143491   5.493   7.366   6.600 -0.7814 -3.9795 -0.9276
  166MOL   H26243492   5.497   7.333   7.071  0.7296 -0.2522  0.3504
  167MOL     C143493   7.191   2.167   3.208  0.2385 -0.4188  0.6541
  167MOL     C243494   7.173   2.305   3.258  0.1023  0.1093 -0.1061
  167MOL     O343495   7.038   2.339   3.227  0.0745  0.5077  0.0062
  167MOL     C443496   6.945   2.328   3.342 -0.0669 -0.0003 -0.2353
  167MOL     C543497   6.798   2.344   3.311  0.1848 -0.4239 -0.1106
  167MOL     H643498   7.282   2.127   3.252  1.0797 -0.5226 -1.1426
  167MOL     H743499   7.107   2.103   3.237 -0.6328  0.3692 -0.0912
  167MOL     H843500   7.185   2.297   3.366  2.7410 -1.0632 -0.4453
  167MOL     H943501   6.971   2.398   3.422  1.0077 -0.7284  0.0617
  167MOL    H1043502   6.959   2.238   3.402  1.3724  1.1276  1.1640
  167MOL    H1143503   6.732   2.345   3.398  0.6647 -1.5493  0.2770
  167MOL    H1243504   6.775   2.433   3.253  0.0243 -0.2149  0.2722
  167MOL    H1343505   6.764   2.264   3.245  1.3831 -1.3688  0.3971
  167MOL    H1443506   7.209   2.163   3.101  1.1406 -0.1450  0.7902
  167MOL    C1543507   7.273   2.407   3.202  0.1821  0.0230  0.1153
  167MOL    C1643508   7.262   2.555   3.249 -0.6026  0.1432 -0.3888
  167MOL    O1743509   7.361   2.633   3.176  0.0343 -0.5392  0.1242
  167MOL    C1843510   7.315   2.690   3.052  0.1755 -0.2250  0.3344
  167MOL    C1943511   7.439   2.754   2.980  0.0588  0.6630 -0.3588
  167MOL    H2043512   7.279   2.409   3.094 -0.7811  0.5443  0.0648
  167MOL    H2143513   7.372   2.370   3.229 -0.3065 -1.4797 -0.1170
  167MOL    H2243514   7.167   2.598   3.217 -1.3291 -1.2414 -0.1312
  167MOL    H2343515   7.242   2.769   3.065  1.1365  1.0982 -1.9857
  167MOL    H2443516   7.269   2.611   2.992  0.4842  0.3739 -0.7046
  167MOL    H2543517   7.483   2.829   3.047  1.2525  0.3793 -0.8053
  167MOL    H2643518   7.409   2.798   2.885  0.6985  0.6578 -0.5689
  167MOL    H2743519   7.514   2.676   2.964  0.4371  0.2759  2.8203
  167MOL    C2843520   7.291   2.583   3.395  0.2888  0.9506 -0.2589
  167MOL    C2943521   7.419   2.527   3.450  0.0858  0.8960  0.6237
  167MOL    O3043522   7.383   2.403   3.512  0.0440  0.1935  0.3441
  167MOL    C3143523   7.481   2.308   3.517 -0.1222 -0.1686  0.1709
  167MOL    C3243524   7.433   2.201   3.610  0.6460  0.2084 -0.6005
  167MOL    H3343525   7.202   2.536   3.436  0.1166  0.9295 -0.6525
  167MOL    H3443526   7.284   2.691   3.407  1.7123  1.0101  0.1022
  167MOL    H3543527   7.485   2.512   3.365  0.9472 -0.1003  1.4432
  167MOL    H3643528   7.574   2.344   3.561 -0.1306 -0.8133  0.7221
  167MOL    H3743529   7.501   2.269   3.417 -0.9946 -0.5676  0.1508
  167MOL    H3843530   7.495   2.112   3.603  3.8431  2.3460  0.0080
  167MOL    H3943531   7.421   2.246   3.709 -2.7621 -0.5119 -0.6119
  167MOL    H4043532   7.336   2.179   3.565  1.2855 -1.2739 -1.2742
  167MOL    C4143533   7.490   2.631   3.542 -0.1234  0.1187  0.1527
  167MOL    C4243534   7.530   2.769   3.479 -0.3625 -0.2803 -0.5496
  167MOL    O4343535   7.661   2.774   3.426  1.0126  0.6060  0.1784
  167MOL    C4443536   7.709   2.693   3.321 -0.1795 -0.0138 -0.1794
  167MOL    C4543537   0.024   2.694   3.333 -0.0813 -0.2329  0.4868
  167MOL    H4643538   7.577   2.590   3.593 -0.0885  0.1676  0.1313
  167MOL    H4743539   7.425   2.652   3.627 -1.8472 -3.1886 -0.2791
  167MOL    H4843540   7.476   2.789   3.386 -0.4173  2.3410  0.0275
  167MOL    H4943541   7.664   2.712   3.224  1.6810  2.7226 -0.5726
  167MOL    H5043542   7.680   2.592   3.349  0.1800  0.7942  3.4027
  167MOL    H5143543   0.050   2.619   3.257 -1.2376 -0.2007  0.0429
  167MOL    H5243544   0.069   2.791   3.311 -3.4236  1.3475  0.2789
  167MOL    H5343545   0.055   2.644   3.424 -3.2050  0.5570  2.0671
  167MOL    C5443546   7.508   2.877   3.590 -0.7829 -0.0727  0.4983
  167MOL    C5543547   7.582   2.866   3.727 -0.0697 -0.7453 -0.0680
  167MOL    O5643548   7.551   2.986   3.796 -0.1698 -0.1659  0.1733
  167MOL    C5743549   7.444   2.959   3.886 -0.2831  0.4100  0.5638
  167MOL    C5843550   7.387   3.091   3.914  0.2433 -0.6791  0.0977
  167MOL    H5943551   7.399   2.876   3.599 -0.9038 -3.1550 -0.7357
  167MOL    H6043552   7.524   2.978   3.554  1.9242  0.2607  2.4965
  167MOL    H6143553   7.533   2.776   3.764  0.1144 -1.4895 -1.5960
  167MOL    H6243554   7.496   2.914   3.970 -1.3578 -0.2160  0.8990
  167MOL    H6343555   7.366   2.892   3.850 -1.9595  2.5983  0.0194
  167MOL    H6443556   7.458   3.163   3.956 -0.9926  0.3813  0.3690
  167MOL    H6543557   7.348   3.137   3.823 -2.7854 -1.8231  0.7945
  167MOL    H6643558   7.297   3.082   3.975  1.1975 -4.0401  1.1498
  167MOL    C6743559   7.737   2.861   3.706 -0.1885 -0.2019 -0.1027
  167MOL    C6843560   7.824   2.842   3.835  1.6401 -0.2723  0.2175
  167MOL    O6943561   0.114   2.813   3.802  0.2411 -0.1871  0.5171
  167MOL    C7043562   0.188   2.927   3.766  0.9724 -0.2144 -0.6329
  167MOL    C7143563   0.336   2.883   3.735  0.5620  0.2435  0.0477
  167MOL    H7243564   7.772   2.948   3.650 -1.4984  0.5465  0.2178
  167MOL    H7343565   7.757   2.771   3.648  1.0011 -0.2429  0.3674
  167MOL    H7443566   7.810   2.933   3.892 -0.0984 -0.2309 -0.2439
  167MOL    H7543567   0.190   3.016   3.829  0.4194 -2.9096  3.3647
  167MOL    H7643568   0.145   2.958   3.671 -1.5443  1.0140  0.8603
  167MOL    H7743569   0.330   2.838   3.636  0.0250  0.5711 -0.0655
  167MOL    H7843570   0.403   2.968   3.723 -1.4032  1.6573 -1.0300
  167MOL    H7943571   0.381   2.814   3.807 -1.4856  0.8342  1.9303
  167MOL    C8043572   7.767   2.724   3.916  0.7892 -0.4697  0.5746
  167MOL    C8143573   7.815   2.723   4.062 -0.8565 -0.6928  0.2460
  167MOL    O8243574   0.044   2.597   4.088  0.8020  0.0488 -0.7442
  167MOL    C8343575   0.173   2.602   4.032  0.3979  0.3287 -0.3688
  167MOL    C8443576   0.247   2.482   4.088  0.8905 -0.2938 -0.4088
  167MOL    H8543577   7.789   2.625   3.878 -2.2161 -0.6460 -0.8667
  167MOL    H8643578   7.660   2.744   3.923  0.6025 -1.8189  1.6894
  167MOL    H8743579   0.029   2.812   4.088  0.2540 -1.3742  0.1327
  167MOL    H8843580   0.230   2.692   4.058 -1.2491  1.1551  0.4857
  167MOL    H8943581   0.162   2.601   3.924 -3.2785  1.4263 -0.0721
  167MOL    H9043582   0.255   2.492   4.196  0.2173 -1.3614 -0.2513
  167MOL    H9143583   0.205   2.385   4.061  1.4213 -0.1175 -1.9414
  167MOL    H9243584   0.342   2.468   4.035  2.0387  1.3377  1.1353
  167MOL    C9343585   7.698   2.724   4.167 -0.7609  0.1485 -0.4556
  167MOL    C9443586   7.740   2.769   4.314  0.9365  0.4922 -0.2624
  167MOL    O9543587   7.638   2.720   4.398 -0.5921  0.5060 -0.0086
  167MOL    C9643588   7.684   2.602   4.464 -0.1601 -0.3140 -0.0413
  167MOL    C9743589   7.609   2.558   4.596  0.5716 -0.2041  0.0810
  167MOL    H9843590   7.656   2.624   4.178 -1.3778  0.6626  2.3177
  167MOL    H9943591   7.612   2.788   4.147 -1.4451 -0.7984 -0.5825
  167MOL   H10043592   7.842   2.730   4.323  1.3673  0.4039 -4.5195
  167MOL   H10143593   7.788   2.612   4.496 -0.2042 -0.4910  0.1562
  167MOL   H10243594   7.681   2.518   4.394  1.5325 -0.6068  0.2101
  167MOL   H10343595   7.508   2.530   4.567  1.5863 -0.5448 -3.2933
  167MOL   H10443596   7.658   2.468   4.635  0.1273 -1.5672 -2.4178
  167MOL   H10543597   7.617   2.639   4.669 -0.5456  0.5357 -0.6109
  167MOL   C10643598   7.742   2.917   4.337 -0.2421 -0.5048  0.1647
  167MOL   C10743599   7.842   2.961   4.445  0.3780  0.0145  0.3168
  167MOL   O10843600   7.780   2.942   4.575  0.0600 -0.0296 -0.2059
  167MOL   C10943601   0.030   2.920   4.682  0.4036  0.1992  0.1369
  167MOL   C11043602   7.809   2.952   4.815 -0.6966  0.7327 -0.5742
  167MOL   H11143603   7.638   2.949   4.349 -0.3305 -0.9627  0.6577
  167MOL   H11243604   7.765   2.952   4.237  2.1383 -0.6442  0.6330
  167MOL   H11343605   0.082   2.892   4.444 -0.4053 -0.9270 -1.1111
  167MOL   H11443606   0.126   2.969   4.670  1.1103 -0.8636  1.3680
  167MOL   H11543607   0.050   2.813   4.675 -0.5660 -0.0755  1.3083
  167MOL   H11643608   7.789   3.059   4.814  0.3877  0.9418 -1.4788
  167MOL   H11743609   7.715   2.900   4.830 -0.2482  0.3857  1.2253
  167MOL   H11843610   0.034   2.925   4.896  0.6023 -0.5489 -2.0823
  167MOL   C11943611   0.053   3.106   4.418 -0.0605  0.1370  0.0435
  167MOL   C12043612   7.791   3.223   4.402  0.4154 -0.0524  0.6447
  167MOL   O12143613   0.025   3.329   4.357  0.3226  0.2643  0.4590
  167MOL   C12243614   7.777   3.423   4.312 -0.0260  0.2253 -0.2958
  167MOL   C12343615   0.022   3.552   4.289  0.3054  0.1760  0.2227
  167MOL   H12443616   0.107   3.093   4.324  0.0565 -2.4442  0.4244
  167MOL   H12543617   0.128   3.135   4.492 -0.5065  0.5146  0.3489
  167MOL   H12643618   7.733   3.187   4.317 -3.6318 -0.4528  3.4516
  167MOL   H12743619   7.690   3.452   4.371 -0.9019 -0.5943 -1.1607
  167MOL   H12843620   7.731   3.393   4.218 -0.2238 -3.4631  0.9217
  167MOL   H12943621   0.092   3.588   4.364  1.9841  1.5895 -1.9834
  167MOL   H13043622   0.092   3.527   4.210 -0.7210  0.3016 -0.7384
  167MOL   H13143623   7.798   3.630   4.254  0.1512  1.4204  3.1459
  167MOL   C13243624   7.704   3.248   4.523 -0.5330 -0.5756  0.2186
  167MOL   C13343625   7.553   3.226   4.502  0.5442 -0.7465 -0.1572
  167MOL   O13443626   7.501   3.298   4.388  0.4988 -0.2772  0.4391
  167MOL   C13543627   7.406   3.236   4.306  0.9415  0.3209  0.1767
  167MOL   C13643628   7.376   3.319   4.178 -0.2062 -0.1685  1.1228
  167MOL   H13743629   7.729   3.339   4.577 -0.6260 -0.4501  0.0517
  167MOL   H13843630   7.740   3.172   4.592  0.8296 -1.0203 -0.9437
  167MOL   H13943631   7.552   3.118   4.489  0.5006 -0.6557 -0.9362
  167MOL   H14043632   7.322   3.242   4.374 -0.2972  1.6212 -1.4040
  167MOL   H14143633   7.430   3.134   4.279  0.5806  0.1040  0.6805
  167MOL   H14243634   7.344   3.422   4.189  0.2166  0.1270 -0.4166
  167MOL   H14343635   7.469   3.337   4.125 -0.4573 -0.4380  0.5800
  167MOL   H14443636   7.310   3.268   4.107  1.2037 -0.1944 -0.1884
  167MOL   C14543637   7.478   3.273   4.626  0.6199 -0.1256  0.9864
  167MOL   C14643638   7.478   3.167   4.734  0.1573 -0.6679  0.4357
  167MOL   O14743639   7.397   3.062   4.687  0.0244  0.2320 -0.7574
  167MOL   C14843640   7.454   2.929   4.726 -0.0214 -0.0247  0.5369
  167MOL   C14943641   7.345   2.823   4.722 -1.2000  0.1058 -0.1995
  167MOL   H15043642   7.379   3.301   4.588  0.9489 -0.4749 -0.1781
  167MOL   H15143643   7.519   3.362   4.674 -0.1945  2.1340 -2.3233
  167MOL   H15243644   7.585   3.151   4.747  0.2587  0.5650  1.1168
  167MOL   H15343645   7.498   2.939   4.825 -0.3724 -2.3111  0.9458
  167MOL   H15443646   7.531   2.905   4.652 -1.6253  2.4999 -2.0354
  167MOL   H15543647   7.326   2.797   4.618  0.8387  0.7384 -0.7486
  167MOL   H15643648   7.388   2.738   4.776  0.4641  0.9113 -0.2261
  167MOL   H15743649   7.256   2.860   4.773 -1.1905 -1.1951  0.7938
  167MOL   C15843650   7.424   3.235   4.866 -0.1556  0.6559  0.1078
  167MOL   C15943651   7.508   3.338   4.947 -0.0569  0.4956  0.0371
  167MOL   O16043652   7.591   3.257   5.026  0.2743  0.1828 -1.1200
  167MOL   C16143653   7.729   3.279   5.014 -0.3889 -0.2469  0.1336
  167MOL   C16243654   7.791   3.181   5.103  0.3337 -0.0826 -0.1072
  167MOL   H16343655   7.397   3.154   4.934 -0.5334  1.2325  0.6477
  167MOL   H16443656   7.330   3.288   4.852 -0.4927  0.5438  1.8516
  167MOL   H16543657   7.574   3.385   4.874  1.1405 -3.3314 -1.4517
  167MOL   H16643658   7.752   3.380   5.048 -1.4062 -0.3941  1.2911
  167MOL   H16743659   7.760   3.280   4.910  0.5353 -0.4777  0.4044
  167MOL   H16843660   7.748   3.183   5.203  1.9578 -1.4382  0.6380
  167MOL   H16943661   7.776   3.082   5.060  1.3336 -0.3346  0.0949
  167MOL   H17043662   0.052   3.201   5.128 -0.4784  2.6546  1.3488
  167MOL   C17143663   7.428   3.440   5.033  0.0598 -0.3660  0.4821
  167MOL   C17243664   7.509   3.535   5.117  0.3825 -0.5261 -0.1165
  167MOL   O17343665   7.427   3.602   5.218 -0.2236 -0.4210 -0.0729
  167MOL   C17443666   7.395   3.535   5.335 -0.2111 -0.2706  0.5155
  167MOL   C17543667   7.304   3.628   5.425  0.3470  0.1098 -0.5030
  167MOL   H17643668   7.373   3.385   5.110 -0.4040 -2.9012 -1.5806
  167MOL   H17743669   7.359   3.490   4.965  0.8902  0.0073 -0.0843
  167MOL   H17843670   7.581   3.475   5.173 -0.1137 -1.7683 -0.7990
  167MOL   H17943671   7.484   3.501   5.387 -0.7256 -1.0880  0.8659
  167MOL   H18043672   7.330   3.449   5.318  1.1589 -1.6457  2.1194
  167MOL   H18143673   7.276   3.577   5.517  0.8918  0.0683 -0.3529
  167MOL   H18243674   7.354   3.719   5.457  1.6539 -0.7625  0.0033
  167MOL   H18343675   7.212   3.654   5.374 -1.8746 -1.8112  2.3592
  167MOL   C18443676   7.591   3.642   5.030 -0.5163  0.7537 -0.4014
  167MOL   C18543677   7.689   3.727   5.111  0.1697 -0.4672 -1.0452
  167MOL   O18643678   7.748   3.832   5.034  0.0948 -0.0610 -0.0208
  167MOL   C18743679   7.664   3.916   4.963 -0.0149  0.0784  0.2592
  167MOL   C18843680   7.764   4.002   4.877 -0.2749 -0.2767 -0.1491
  167MOL   H18943681   7.520   3.692   4.964  1.1260  2.4841 -0.8710
  167MOL   H19043682   7.653   3.588   4.959 -0.0334  1.5027 -0.5541
  167MOL   H19143683   7.640   3.776   5.195  0.1492 -2.7471  0.2812
  167MOL   H19243684   7.616   3.986   5.031 -1.3758 -0.8666  0.2800
  167MOL   H19343685   7.595   3.863   4.897  1.8212 -1.4176 -0.5023
  167MOL   H19443686   7.808   3.936   4.802  1.2289 -0.4515  0.8579
  167MOL   H19543687   7.697   4.067   4.821  0.7914  0.8339 -0.1361
  167MOL   H19643688   0.005   4.052   4.922  1.5576 -1.7029 -1.9348
  167MOL   C19743689   7.807   3.637   5.158  0.4779 -0.2332 -0.0408
  167MOL   C19843690   0.090   3.720   5.201  0.6097  0.0581 -0.2648
  167MOL   O19943691   0.194   3.628   5.226  0.4276  0.1228 -0.4628
  167MOL   C20043692   0.276   3.609   5.114 -0.4535  0.2910  0.0504
  167MOL   C20143693   0.382   3.506   5.158 -0.6962 -0.2130  0.9857
  167MOL   H20243694   7.830   3.571   5.074 -1.5478 -2.1434  0.8370
  167MOL   H20343695   7.762   3.581   5.240 -1.4795  1.4978  0.0984
  167MOL   H20443696   0.119   3.794   5.127 -1.2064  2.6773  1.5039
  167MOL   H20543697   0.327   3.702   5.088 -0.6222  0.6465  0.9930
  167MOL   H20643698   0.219   3.572   5.029  2.1856 -0.4966 -1.4302
  167MOL   H20743699   0.455   3.488   5.079 -1.2815  2.1375 -0.1234
  167MOL   H20843700   0.455   3.539   5.233 -1.4903  3.8886  0.0452
  167MOL   H20943701   0.347   3.406   5.183  0.6799 -0.5292  1.7095
  167MOL   C21043702   0.076   3.785   5.336 -0.1947 -0.4888 -0.6763
  167MOL   C21143703   0.169   3.916   5.357 -0.5460 -0.5441 -0.8514
  167MOL   O21243704   0.194   3.946   5.496 -0.2841  0.3440 -1.1819
  167MOL   C21343705   0.274   3.847   5.555 -0.4120  0.0418  0.2440
  167MOL   C21443706   0.399   3.920   5.598  0.5860 -0.1271 -0.5107
  167MOL   H21543707   0.098   3.714   5.415 -1.9960 -0.2067  0.0977
  167MOL   H21643708   7.817   3.817   5.355  0.0599  0.6613 -1.1626
  167MOL   H21743709   0.267   3.905   5.311  0.7043 -0.2966  1.6469
  167MOL   H21843710   0.307   3.776   5.480 -1.6441 -0.5998  0.2922
  167MOL   H21943711   0.228   3.797   5.640 -1.3013 -0.8557 -0.7392
  167MOL   H22043712   0.379   3.984   5.684 -2.9172 -1.7746 -0.0241
  167MOL   H22143713   0.469   3.844   5.632  0.2884  0.2310  0.9293
  167MOL   H22243714   0.446   3.968   5.512 -1.6903  1.2537 -1.0196
  167MOL   C22343715   0.098   4.041   5.295 -0.3131 -0.4143 -0.2326
  167MOL   C22443716   0.159   4.177   5.301 -0.0090  0.1774  0.4806
  167MOL   O22543717   0.055   4.271   5.307  0.3129  0.5644 -0.1671
  167MOL   C22643718   0.024   4.322   5.435 -0.5082 -0.3865 -0.1231
  167MOL   C22743719   7.733   4.387   5.424  0.2125 -0.1976 -0.3883
  167MOL   H22843720   0.003   4.050   5.346  0.6926 -1.7806  1.9047
  167MOL   H22943721   0.080   4.018   5.190  1.5435  0.7048 -0.8235
  167MOL   H23043722   0.228   4.193   5.384 -1.4449 -1.9345  2.1256
  167MOL   H23143723   0.103   4.395   5.457 -0.9752 -0.1018  0.6183
  167MOL   H23243724   0.027   4.240   5.506  3.7203 -0.3480 -0.1165
  167MOL   H23343725   7.667   4.322   5.366 -1.5113  1.2012 -0.0332
  167MOL   H23443726   7.691   4.406   5.522  0.2471 -1.0838 -0.2036
  167MOL   H23543727   7.731   4.479   5.365  1.0833 -1.4559 -2.4693
  167MOL   C23643728   0.239   4.215   5.178 -0.3179 -0.7089 -0.6886
  167MOL   C23743729   0.375   4.282   5.206  0.4358  0.1909 -0.2347
  167MOL   O23843730   0.432   4.323   5.079 -0.0112 -0.2567  0.4022
  167MOL   C23943731   0.442   4.461   5.042  0.4992 -0.5588 -0.1363
  167MOL   C24043732   0.524   4.548   5.144 -0.6233  0.3193 -0.1850
  167MOL   H24143733   0.178   4.279   5.114 -1.2894  0.4288  1.3438
  167MOL   H24243734   0.253   4.130   5.111 -1.3173 -1.4661  0.0438
  167MOL   H24343735   0.354   4.367   5.270  0.0410 -0.4717  0.5348
  167MOL   H24443736   0.340   4.498   5.045  0.0510 -1.5926 -2.3208
  167MOL   H24543737   0.482   4.472   4.942  1.1761 -2.0146 -0.0396
  167MOL   H24643738   0.630   4.524   5.146 -0.4110  1.1149 -1.4238
  167MOL   H24743739   0.516   4.653   5.113  2.1597  0.2244 -1.3586
  167MOL   H24843740   0.476   4.543   5.242  0.9066 -2.8498  0.4474
  167MOL   C24943741   0.474   4.184   5.277 -0.0239  0.0622  0.1466
  167MOL   C25043742   0.510   4.059   5.197  0.2216  0.3155 -0.4005
  167MOL   O25143743   0.604   3.985   5.269  0.0929  0.2816  0.0771
  167MOL   C25243744   0.632   3.865   5.196  0.6214  0.4715 -0.3301
  167MOL   C25343745   0.741   3.768   5.255 -0.9132 -0.1838  0.2975
  167MOL   H25443746   0.433   4.146   5.371 -1.9853  0.8637 -0.3509
  167MOL   H25543747   0.564   4.240   5.302  0.7882 -0.7360 -0.9503
  167MOL   H25643748   0.430   3.987   5.182 -1.6222  2.6382 -2.2946
  167MOL   H25743749   0.660   3.878   5.091 -0.4033  0.6394 -0.5873
  167MOL   H25843750   0.545   3.799   5.200 -0.8868  2.4203 -0.3324
  167MOL   H25943751   0.767   3.673   5.209  0.6357 -0.4566  1.7243
  167MOL   H26043752   0.835   3.820   5.272 -1.3534  1.0340 -0.9104
  167MOL   H26143753   0.702   3.742   5.353 -2.5033 -1.0172 -0.5318
  167MOL   H26243754   0.542   4.084   5.096 -0.4956 -3.7492 -1.7221
  168MOL     C143755   4.021   3.379   0.552  0.1666  0.1781 -0.1386
  168MOL     C243756   4.018   3.374   0.711  0.0336  0.7920  0.3519
  168MOL     O343757   4.152   3.362   0.743 -0.3699 -0.2663  0.2709
  168MOL     C443758   4.209   3.475   0.801  0.4415 -0.8093  0.3026
  168MOL     C543759   4.359   3.452   0.841  0.1960 -0.4331 -0.5289
  168MOL     H643760   4.080   3.296   0.511 -0.1456 -0.1881  0.1437
  168MOL     H743761   3.920   3.361   0.515 -0.4301 -0.6988  1.8304
  168MOL     H843762   3.974   3.468   0.746  1.7209  2.0112 -0.6952
  168MOL     H943763   4.150   3.500   0.890  0.5301 -0.8151  0.3631
  168MOL    H1043764   4.196   3.560   0.735  0.9168  0.4136  1.7636
  168MOL    H1143765   4.375   3.376   0.917 -1.3673 -1.5714 -1.3174
  168MOL    H1243766   4.413   3.432   0.749 -1.8239  0.4042 -1.9463
  168MOL    H1343767   4.389   3.549   0.880  1.8259 -2.3907  3.3124
  168MOL    H1443768   4.059   3.473   0.513 -0.2517 -0.4965 -2.2184
  168MOL    C1543769   3.942   3.250   0.768  0.3789 -0.3975  0.3168
  168MOL    C1643770   3.792   3.260   0.766  0.5192 -0.0149 -0.1783
  168MOL    O1743771   3.757   3.372   0.848 -0.0475  0.1860  0.3697
  168MOL    C1843772   3.681   3.476   0.784 -0.3222  0.2857 -0.9023
  168MOL    C1943773   3.544   3.426   0.715 -0.1219 -0.6182 -0.4250
  168MOL    H2043774   3.951   3.247   0.876  0.6927 -1.7349  0.2622
  168MOL    H2143775   3.986   3.155   0.736  1.0543  0.0869 -0.1972
  168MOL    H2243776   3.770   3.275   0.660 -2.5322 -0.0803  0.4008
  168MOL    H2343777   3.740   3.507   0.698 -0.8969 -2.7963 -2.4729
  168MOL    H2443778   3.657   3.562   0.848  1.1500 -0.6862  1.0346
  168MOL    H2543779   3.579   3.377   0.625  1.1320  1.8035 -1.2829
  168MOL    H2643780   3.480   3.511   0.690  0.3329  0.3721  1.5826
  168MOL    H2743781   3.485   3.363   0.782  0.7434  0.0859  1.0350
  168MOL    C2843782   3.708   3.148   0.814 -0.0958 -0.8590  0.1551
  168MOL    C2943783   3.705   3.023   0.722 -0.2604 -0.1569  0.4172
  168MOL    O3043784   3.634   3.075   0.604 -0.4613  0.4490 -0.3044
  168MOL    C3143785   3.706   3.061   0.488 -0.1277  0.1433 -0.3862
  168MOL    C3243786   3.636   3.135   0.376 -0.0714 -0.6192  0.0021
  168MOL    H3343787   3.606   3.179   0.835 -0.1740 -1.4795  0.7388
  168MOL    H3443788   3.753   3.125   0.911  0.4141  1.4074  0.4695
  168MOL    H3543789   3.807   2.989   0.707 -0.1835 -0.1971  1.0272
  168MOL    H3643790   3.733   2.958   0.464  0.6942  0.0607  0.8575
  168MOL    H3743791   3.801   3.109   0.509  0.1145 -0.6266  0.2982
  168MOL    H3843792   3.555   3.077   0.332 -1.3808  0.9522  0.2897
  168MOL    H3943793   3.604   3.236   0.404  2.6920 -0.0646  1.2777
  168MOL    H4043794   3.699   3.162   0.291 -2.3372  1.4235 -1.0947
  168MOL    C4143795   3.624   2.902   0.791 -0.5970 -0.1942 -0.0923
  168MOL    C4243796   3.594   2.771   0.705 -0.0799 -0.3856  0.0394
  168MOL    O4343797   3.703   2.699   0.658  0.2407 -0.5641  0.2543
  168MOL    C4443798   3.764   2.626   0.760  0.0897  0.4318 -0.0733
  168MOL    C4543799   3.842   2.507   0.699 -0.2766 -0.3765 -0.1636
  168MOL    H4643800   3.535   2.933   0.846 -0.5926 -2.1254  1.0371
  168MOL    H4743801   3.686   2.873   0.876 -0.3054  2.2740  0.6001
  168MOL    H4843802   3.532   2.715   0.775 -0.9310 -2.1116 -2.0400
  168MOL    H4943803   3.685   2.570   0.811  1.1335 -1.1544 -0.1410
  168MOL    H5043804   3.826   2.685   0.827 -0.5135  0.7918  0.1691
  168MOL    H5143805   3.875   2.444   0.782  0.3932  1.5068  1.0322
  168MOL    H5243806   3.782   2.456   0.624 -0.0960 -0.5229 -0.2088
  168MOL    H5343807   3.929   2.543   0.643 -0.5272 -0.2541 -0.4786
  168MOL    C5443808   3.503   2.803   0.588  0.2078 -0.5629 -0.1163
  168MOL    C5543809   3.400   2.693   0.540  0.5022  0.0833  0.6470
  168MOL    O5643810   3.334   2.761   0.433  0.2188 -0.3523  0.4470
  168MOL    C5743811   3.399   2.754   0.310  0.1927 -0.1322  0.2585
  168MOL    C5843812   3.337   2.865   0.219 -0.0468 -0.2387  0.3632
  168MOL    H5943813   3.560   2.842   0.504 -0.3158  1.6351  0.5272
  168MOL    H6043814   3.453   2.891   0.628 -1.6120 -1.0886 -1.1602
  168MOL    H6143815   3.457   2.609   0.500  2.5991  1.0624  1.5729
  168MOL    H6243816   3.378   2.657   0.266 -0.8194 -0.2180  0.9227
  168MOL    H6343817   3.507   2.768   0.306  0.2314 -0.5736 -0.3120
  168MOL    H6443818   3.375   2.864   0.117  1.1157  1.6308  0.7490
  168MOL    H6543819   3.230   2.843   0.210  0.1569 -1.5107  1.0845
  168MOL    H6643820   3.344   2.967   0.257 -2.3638 -0.4348  1.4504
  168MOL    C6743821   3.291   2.658   0.648  0.2571  0.2706  0.1821
  168MOL    C6843822   3.212   2.523   0.625 -0.9966  0.2857 -0.1418
  168MOL    O6943823   3.295   2.410   0.603 -0.5683  0.1134  0.5491
  168MOL    C7043824   3.333   2.346   0.726  0.4474  0.3765  0.1211
  168MOL    C7143825   3.462   2.279   0.705 -0.1485  0.9596  0.2344
  168MOL    H7243826   3.220   2.739   0.664  0.8103  1.0549 -1.2667
  168MOL    H7343827   3.332   2.643   0.748  1.1294  1.8374  0.0785
  168MOL    H7443828   3.155   2.503   0.716 -0.7586 -0.6264 -0.1819
  168MOL    H7543829   3.257   2.277   0.762 -1.0638  0.2661 -3.0647
  168MOL    H7643830   3.348   2.419   0.806 -0.9476 -1.2259  1.8852
  168MOL    H7743831   3.538   2.352   0.676  1.0750 -0.0512  0.8429
  168MOL    H7843832   3.486   2.228   0.798 -0.4706  1.5033  0.6130
  168MOL    H7943833   3.453   2.209   0.622  2.1808 -0.1431  0.8646
  168MOL    C8043834   3.117   2.525   0.503  1.1375 -0.2963  0.3033
  168MOL    C8143835   3.013   2.419   0.479  0.3804  0.5540 -0.0575
  168MOL    O8243836   2.940   2.454   0.366  0.0252 -0.5294 -0.2165
  168MOL    C8343837   2.858   2.356   0.306 -0.0809  0.0391  0.1136
  168MOL    C8443838   2.800   2.408   0.176  0.1400  0.3150 -1.0167
  168MOL    H8543839   3.169   2.554   0.412  1.1614  0.1416  0.4534
  168MOL    H8643840   3.057   2.615   0.522 -1.8561 -1.9883 -0.7848
  168MOL    H8743841   3.074   2.332   0.455  0.6013  1.0945 -1.4836
  168MOL    H8843842   2.778   2.328   0.375 -1.3395 -1.7887 -1.9904
  168MOL    H8943843   2.910   2.262   0.291  0.5568  0.6643 -1.6719
  168MOL    H9043844   2.763   2.509   0.191  3.1731  1.4940 -1.3098
  168MOL    H9143845   2.878   2.413   0.101  0.7329 -0.9477 -0.5032
  168MOL    H9243846   2.720   2.343   0.140  0.2910 -0.2756 -0.2948
  168MOL    C9343847   2.929   2.396   0.603  0.6594 -0.1399 -0.3133
  168MOL    C9443848   2.938   2.272   0.691  0.6091 -0.2201 -0.4032
  168MOL    O9543849   2.874   2.164   0.626  0.4387 -0.6984 -0.2848
  168MOL    C9643850   2.949   2.047   0.630 -0.0665  0.0734  0.6182
  168MOL    C9743851   2.887   1.946   0.526  0.0979 -0.4470 -0.2924
  168MOL    H9843852   2.827   2.416   0.569  0.9549  1.2548 -0.3925
  168MOL    H9943853   2.944   2.481   0.669 -0.1760 -0.7531  0.6902
  168MOL   H10043854   3.045   2.250   0.702  0.5563 -0.8046 -1.0182
  168MOL   H10143855   2.952   2.017   0.735  1.1624 -1.9446  0.0272
  168MOL   H10243856   3.047   2.085   0.602 -0.8566  0.8407 -1.1937
  168MOL   H10343857   2.803   1.897   0.576  0.6176 -0.5458  0.4807
  168MOL   H10443858   2.854   1.997   0.435 -2.2392  1.1698  1.4237
  168MOL   H10543859   2.956   1.864   0.506  1.7601  0.5735  1.1164
  168MOL   C10643860   2.866   2.302   0.824 -0.0715  0.0201  0.1960
  168MOL   C10743861   2.957   2.381   0.925  0.1308 -0.4072  0.4365
  168MOL   O10843862   3.083   2.326   0.964  0.6141  0.5680 -0.5325
  168MOL   C10943863   3.073   2.190   1.008  0.3182  0.1132  0.3802
  168MOL   C11043864   3.212   2.122   1.033 -0.5139 -0.3718  0.0533
  168MOL   H11143865   2.825   2.216   0.877  0.3719  0.4597  1.2600
  168MOL   H11243866   2.776   2.357   0.798 -0.6399 -1.3205 -0.7138
  168MOL   H11343867   2.984   2.479   0.884 -0.5015 -0.6225 -0.5103
  168MOL   H11443868   3.029   2.127   0.931 -0.0859 -2.1996  2.4631
  168MOL   H11543869   3.015   2.192   1.100 -0.1615  2.0204  0.0553
  168MOL   H11643870   3.282   2.197   1.070 -1.3079  0.2436  0.3235
  168MOL   H11743871   3.204   2.041   1.106  2.8767  0.6431  1.6199
  168MOL   H11843872   3.248   2.079   0.940 -1.8209  1.2279 -1.2055
  168MOL   C11943873   2.866   2.418   1.049 -0.4401  0.2660 -0.1170
  168MOL   C12043874   2.932   2.495   1.167 -0.3183 -0.0091 -0.1534
  168MOL   O12143875   2.838   2.487   1.281  0.3148 -0.3785  0.7623
  168MOL   C12243876   2.844   2.368   1.358  0.0797  0.3473  0.1984
  168MOL   C12343877   2.753   2.371   1.475  0.6497  1.0179  0.6173
  168MOL   H12443878   2.810   2.329   1.080  0.4870 -0.4309 -0.4216
  168MOL   H12543879   2.784   2.480   1.014  0.4188  1.6362  0.2783
  168MOL   H12643880   3.026   2.446   1.193 -0.0644  0.0729 -0.9225
  168MOL   H12743881   2.946   2.371   1.397 -0.2543 -0.7191  1.1890
  168MOL   H12843882   2.832   2.276   1.301 -1.5106 -0.2930  1.5298
  168MOL   H12943883   2.745   2.281   1.536 -1.6005  0.8952  0.1665
  168MOL   H13043884   2.776   2.452   1.545  0.6773  0.3774  1.3513
  168MOL   H13143885   2.649   2.392   1.449  0.3625  0.9906  1.6957
  168MOL   C13243886   2.949   2.648   1.153 -0.1002 -0.6104  0.2888
  168MOL   C13343887   3.069   2.695   1.063  0.0357 -0.0849  0.2450
  168MOL   O13443888   3.186   2.628   1.118  0.0174 -0.1779  0.1343
  168MOL   C13543889   3.288   2.618   1.018  0.0865 -0.3164  0.0167
  168MOL   C13643890   3.406   2.542   1.064 -0.2633 -0.0335  0.2146
  168MOL   H13743891   2.967   2.692   1.251 -2.2814  1.5977 -0.2478
  168MOL   H13843892   2.860   2.692   1.107  0.7629  0.1141 -0.7073
  168MOL   H13943893   3.049   2.661   0.962  0.1870  0.3979  0.0491
  168MOL   H14043894   3.316   2.717   0.981  1.9773 -1.1140 -0.7484
  168MOL   H14143895   3.236   2.571   0.934 -0.2769 -1.6991  0.9971
  168MOL   H14243896   3.372   2.443   1.095 -0.0173  0.1067  0.9357
  168MOL   H14343897   3.492   2.538   0.997  0.6034  0.3875  1.2832
  168MOL   H14443898   3.450   2.597   1.147  0.4384  0.8037 -0.6976
  168MOL   C14543899   3.093   2.848   1.072  0.9424 -0.3005  0.0440
  168MOL   C14643900   2.979   2.935   1.022 -0.0363  0.8725 -0.0762
  168MOL   O14743901   2.966   2.890   0.887  0.1411  0.5314 -0.2737
  168MOL   C14843902   2.836   2.890   0.833 -0.2865  0.5298 -0.1327
  168MOL   C14943903   2.826   2.840   0.688  0.4527 -0.2299 -0.6784
  168MOL   H15043904   3.177   2.886   1.013 -1.3013  1.0184 -2.4160
  168MOL   H15143905   3.116   2.862   1.177  0.2471  0.4256  0.1060
  168MOL   H15243906   2.880   2.921   1.064 -0.9804  1.7841 -1.9275
  168MOL   H15343907   2.805   2.994   0.840  2.4566  1.3264  0.8816
  168MOL   H15443908   2.773   2.841   0.907  0.9957 -0.1657  0.5172
  168MOL   H15543909   2.732   2.866   0.641 -0.1037  0.9258  1.0560
  168MOL   H15643910   2.903   2.897   0.635  1.4387  0.7898  1.7694
  168MOL   H15743911   2.851   2.734   0.677 -0.2983 -0.3580 -1.1891
  168MOL   C15843912   3.026   3.084   1.016 -0.1460 -0.4747 -0.0679
  168MOL   C15943913   3.030   3.148   1.159 -0.7291 -0.1437  0.3407
  168MOL   O16043914   3.126   3.088   1.241  0.0811  1.1808 -0.4044
  168MOL   C16143915   3.266   3.113   1.222  0.3866  0.2277  0.3334
  168MOL   C16243916   3.355   3.022   1.312  0.2156  0.2652 -0.1948
  168MOL   H16343917   2.965   3.144   0.948 -1.5594 -3.7334 -1.8007
  168MOL   H16443918   3.122   3.101   0.969 -0.7381  3.0809 -0.1042
  168MOL   H16543919   3.058   3.253   1.156  1.1832 -0.5853  1.2491
  168MOL   H16643920   3.296   3.214   1.251  0.5261  0.2353  0.1623
  168MOL   H16743921   3.285   3.102   1.115  2.1276 -2.3535  0.8712
  168MOL   H16843922   3.452   3.071   1.312  0.9260 -1.0850  0.2432
  168MOL   H16943923   3.320   3.002   1.413  2.2661  0.1120  0.5150
  168MOL   H17043924   3.383   2.927   1.266 -0.0655  0.2690 -0.3707
  168MOL   C17143925   2.894   3.135   1.229  0.4489 -0.2104  0.2214
  168MOL   C17243926   2.774   3.217   1.175  0.1022 -0.0561  0.5789
  168MOL   O17343927   2.805   3.361   1.165  0.7010  0.5846 -0.8253
  168MOL   C17443928   2.731   3.447   1.082  0.6020  0.6116  0.0573
  168MOL   C17543929   2.797   3.586   1.065 -0.2502 -0.5087  0.3989
  168MOL   H17643930   2.923   3.180   1.323 -1.9260  1.7586  0.0479
  168MOL   H17743931   2.870   3.031   1.252  0.4132 -0.1492  0.4525
  168MOL   H17843932   2.749   3.187   1.073  2.5857 -1.0418  0.2436
  168MOL   H17943933   2.626   3.449   1.113  0.3441 -1.6963 -0.6442
  168MOL   H18043934   2.739   3.413   0.979 -1.4980 -2.0267  0.7363
  168MOL   H18143935   2.808   3.631   1.164 -0.2952  0.1232  0.1151
  168MOL   H18243936   2.885   3.588   1.002  0.0097 -2.0234  0.6926
  168MOL   H18343937   2.724   3.648   1.013  0.4109 -0.8908 -1.0015
  168MOL   C18443938   2.640   3.196   1.257 -0.1816  1.1106 -0.2913
  168MOL   C18543939   2.575   3.060   1.240 -0.8122 -0.1927 -0.0349
  168MOL   O18643940   2.545   3.037   1.098 -0.0516 -0.0588 -1.0230
  168MOL   C18743941   2.530   2.898   1.063  0.3319  0.4930  0.1405
  168MOL   C18843942   2.466   2.900   0.922  0.0289  0.6714  0.6007
  168MOL   H18943943   2.573   3.274   1.220 -0.2462  1.6483  0.9076
  168MOL   H19043944   2.664   3.231   1.358 -1.4074  2.1554 -0.3433
  168MOL   H19143945   2.645   2.985   1.277 -0.1354  0.5449  0.1982
  168MOL   H19243946   2.463   2.837   1.124 -0.1080  0.8480  0.0204
  168MOL   H19343947   2.623   2.843   1.055  0.0764  0.2605 -1.2129
  168MOL   H19443948   2.450   2.798   0.886 -1.1124  1.1755 -0.3372
  168MOL   H19543949   2.369   2.949   0.934  0.1449  0.6191  1.8147
  168MOL   H19643950   2.535   2.944   0.850  1.7483 -0.0112  1.7959
  168MOL   C19743951   2.451   3.049   1.335  0.3709 -0.3708  0.0894
  168MOL   C19843952   2.451   2.923   1.439 -0.0743  0.5656 -0.3508
  168MOL   O19943953   2.324   2.899   1.504 -0.6846  0.1394  0.5871
  168MOL   C20043954   2.232   2.829   1.420  0.0340 -0.5915  0.2661
  168MOL   C20143955   2.089   2.829   1.486 -0.2801 -0.4167  0.1226
  168MOL   H20243956   2.364   3.038   1.270 -0.2786  1.5927  0.6037
  168MOL   H20343957   2.426   3.136   1.396 -0.7971 -0.9414  0.4588
  168MOL   H20443958   2.478   2.835   1.381 -0.1195 -0.9925  1.9003
  168MOL   H20543959   2.267   2.726   1.410 -0.4367 -1.0985  3.4029
  168MOL   H20643960   2.222   2.880   1.324 -1.9045  0.6097  1.0951
  168MOL   H20743961   2.081   2.782   1.584 -0.8325 -0.6378 -0.0260
  168MOL   H20843962   2.050   2.930   1.488  1.6133  0.3033  1.5791
  168MOL   H20943963   2.036   2.766   1.414  1.2510 -0.4187 -1.0448
  168MOL   C21043964   2.563   2.934   1.546  0.8033  0.4823 -0.1280
  168MOL   C21143965   2.598   2.803   1.617  0.1455  0.0138  0.1660
  168MOL   O21243966   2.475   2.754   1.668 -0.5308  0.0221 -0.4449
  168MOL   C21343967   2.455   2.614   1.627  0.1270 -0.0202 -0.3618
  168MOL   C21443968   2.318   2.555   1.673 -0.4113 -0.1170  0.1351
  168MOL   H21543969   2.517   3.003   1.617 -0.2765  1.9842 -2.2175
  168MOL   H21643970   2.654   2.973   1.501  0.0379  0.5408 -1.6326
  168MOL   H21743971   2.630   2.738   1.536  0.9822  0.2471  0.3125
  168MOL   H21843972   2.538   2.561   1.676  0.9363  1.5348 -0.0236
  168MOL   H21943973   2.478   2.583   1.525 -2.8485 -1.3031 -0.6889
  168MOL   H22043974   2.310   2.559   1.781  3.6483  1.6327  0.4745
  168MOL   H22143975   2.228   2.611   1.648 -0.4390 -0.9436 -1.7002
  168MOL   H22243976   2.297   2.454   1.640  1.5099  0.2036 -2.2368
  168MOL   C22343977   2.709   2.829   1.729 -0.1649 -0.3097 -0.0935
  168MOL   C22443978   2.765   2.698   1.799 -0.0995 -0.0843  0.1130
  168MOL   O22543979   2.679   2.625   1.887 -0.4127  0.1180 -0.4316
  168MOL   C22643980   2.621   2.701   1.992 -0.3132  0.5748  0.3951
  168MOL   C22743981   2.535   2.614   2.081 -0.3315  0.2978  0.4532
  168MOL   H22843982   2.660   2.898   1.797 -0.6907 -0.9724  0.2050
  168MOL   H22943983   2.788   2.887   1.681 -0.5519  0.8040  0.6084
  168MOL   H23043984   2.793   2.626   1.721 -1.5914 -1.2148  0.5906
  168MOL   H23143985   2.558   2.786   1.964 -2.2129 -0.5257  1.2105
  168MOL   H23243986   2.693   2.725   2.070  0.4584  1.6696 -0.6333
  168MOL   H23343987   2.506   2.658   2.176  2.9616  0.1925  1.5527
  168MOL   H23443988   2.448   2.574   2.030  0.8900 -0.4230 -1.1185
  168MOL   H23543989   2.584   2.519   2.103  0.5511  0.8099  0.7367
  168MOL   C23643990   2.891   2.729   1.885  0.2067 -0.3867 -0.0795
  168MOL   C23743991   3.013   2.806   1.820 -0.2226  0.2927  0.4644
  168MOL   O23843992   3.066   2.709   1.731  0.0445 -0.0843  0.1800
  168MOL   C23943993   3.109   2.773   1.613 -0.4770 -0.4105  0.6519
  168MOL   C24043994   3.140   2.669   1.509  0.1950  0.1448  0.6357
  168MOL   H24143995   2.921   2.634   1.930 -0.1649 -1.0673 -1.2617
  168MOL   H24243996   2.865   2.797   1.966 -0.1357  0.0809 -0.5816
  168MOL   H24343997   2.987   2.902   1.775 -0.2547 -0.8634 -2.0403
  168MOL   H24443998   3.195   2.831   1.646  0.4358 -0.8578 -0.8970
  168MOL   H24543999   3.031   2.844   1.585 -0.9731 -1.2041  0.0071
  168MOL   H24644000   3.225   2.611   1.545 -0.0730 -0.6780 -0.0437
  168MOL   H24744001   3.057   2.599   1.506  0.8888 -0.7364  1.5774
  168MOL   H24844002   3.163   2.704   1.409  0.4093 -1.4567  0.1138
  168MOL   C24944003   3.132   2.825   1.915 -0.4046 -0.1622  0.2848
  168MOL   C25044004   3.121   2.937   2.023  0.4846  0.3110  0.2413
  168MOL   O25144005   3.004   2.907   2.108 -0.4157 -0.0764 -0.1403
  168MOL   C25244006   2.952   3.021   2.181  0.0117 -0.0866 -0.9074
  168MOL   C25344007   2.814   2.988   2.250  0.2537  0.9064 -0.4884
  168MOL   H25444008   3.230   2.840   1.870 -0.7016 -2.0372 -1.0643
  168MOL   H25544009   3.138   2.735   1.976 -0.6122 -1.2255 -1.2474
  168MOL   H25644010   3.207   2.955   2.087  2.6976 -1.0249 -2.3062
  168MOL   H25744011   2.944   3.110   2.119  2.8680  1.1734  0.4649
  168MOL   H25844012   3.028   3.047   2.254 -0.3305  0.2277 -0.6612
  168MOL   H25944013   2.801   3.065   2.326  0.5545  1.0303 -0.5652
  168MOL   H26044014   2.734   2.986   2.175  0.2579 -1.7814 -0.4741
  168MOL   H26144015   2.816   2.896   2.309  2.7340  1.3273  0.1485
  168MOL   H26244016   3.090   3.024   1.963 -1.4694 -1.3122 -1.1851
  169MOL     C144017   7.681   6.292   7.540 -0.2910 -0.4097 -0.0996
  169MOL     C244018   7.621   6.434   7.506 -1.0708 -0.3978 -0.5133
  169MOL     O344019   7.477   6.422   7.505 -0.2168  0.1329 -0.3207
  169MOL     C444020   7.415   6.447   7.635  0.1140  0.2099  1.1399
  169MOL     C544021   7.258   6.429   7.628 -0.5203  0.3482 -0.1326
  169MOL     H644022   7.649   6.249   7.635  2.3376  0.9943  1.4800
  169MOL     H744023   7.640   6.224   7.465 -1.3342 -1.0582  1.0376
  169MOL     H844024   7.657   6.501   7.585  0.1483 -0.8476 -0.6661
  169MOL     H944025   7.439   6.547   7.671 -0.0870  0.7049 -0.0651
  169MOL    H1044026   7.456   6.379   7.710 -1.0977 -1.3943  0.3654
  169MOL    H1144027   7.212   6.435   7.726  2.4469  1.1945  1.2654
  169MOL    H1244028   7.219   6.506   7.562  0.3845 -0.1965 -1.3155
  169MOL    H1344029   7.227   6.330   7.595 -0.8388  0.0940  0.9045
  169MOL    H1444030   7.789   6.292   7.553 -0.6254 -0.9796  3.0162
  169MOL    C1544031   7.674   6.488   7.373  0.3248  0.0136 -0.3414
  169MOL    C1644032   7.607   6.626   7.329 -0.6257  0.0012 -0.4663
  169MOL    O1744033   7.653   6.654   7.195 -0.2105  0.4322  0.0558
  169MOL    C1844034   7.580   6.590   7.087  0.4843 -0.1725  0.7838
  169MOL    C1944035   7.622   6.645   6.948  0.0770 -0.4746 -0.8943
  169MOL    H2044036   7.646   6.415   7.297 -3.8364  0.1278  0.9077
  169MOL    H2144037   7.781   6.502   7.378  0.4086 -0.8682  0.4842
  169MOL    H2244038   7.498   6.612   7.326 -0.9436  2.2985 -0.7307
  169MOL    H2344039   7.474   6.600   7.108  0.5356 -1.1756  1.5600
  169MOL    H2444040   7.584   6.481   7.091  1.4170 -0.0805  2.7013
  169MOL    H2544041   7.729   6.628   6.941  0.3248  0.8351 -0.5193
  169MOL    H2644042   7.583   6.747   6.941  1.0137 -0.0400  0.1188
  169MOL    H2744043   7.571   6.585   6.873 -0.6523  1.8918 -2.3709
  169MOL    C2844044   7.644   6.753   7.421 -0.7360 -0.4143 -0.1170
  169MOL    C2944045   7.594   6.884   7.370 -0.2895  0.0664 -0.5538
  169MOL    O3044046   7.688   6.995   7.374 -0.4397  0.7357 -0.3749
  169MOL    C3144047   7.763   7.014   7.259  0.0188  0.4530 -0.1392
  169MOL    C3244048   0.006   7.137   7.289  0.7606  0.9427  0.1931
  169MOL    H3344049   7.753   6.767   7.424 -0.5840 -1.8744  2.5090
  169MOL    H3444050   7.611   6.741   7.524  1.0333  1.2906  0.6929
  169MOL    H3544051   7.560   6.864   7.268  0.0350  0.2746 -0.7023
  169MOL    H3644052   7.696   7.020   7.173  0.1719  1.6036 -0.1797
  169MOL    H3744053   7.820   6.927   7.226 -0.7781  0.0529 -0.4868
  169MOL    H3844054   0.079   7.114   7.367 -0.1053 -0.1026  0.7184
  169MOL    H3944055   0.075   7.162   7.209  0.1705  0.6933 -0.4046
  169MOL    H4044056   7.793   7.218   7.337  0.7352  0.1547  1.5364
  169MOL    C4144057   7.468   6.938   7.439  0.4454  0.6464  0.0823
  169MOL    C4244058   7.343   6.841   7.444  0.0432 -0.2854  0.3625
  169MOL    O4344059   7.317   6.794   7.314 -0.1704  0.3124 -0.1270
  169MOL    C4444060   7.224   6.686   7.308 -0.2599  0.0411  0.2527
  169MOL    C4544061   7.089   6.740   7.246  0.5578 -0.1115 -0.0446
  169MOL    H4644062   7.447   7.040   7.406 -1.8996  1.0427  2.6756
  169MOL    H4744063   7.486   6.957   7.544  2.2538  0.1324 -0.1128
  169MOL    H4844064   7.360   6.759   7.514  2.3084 -1.6357 -1.6985
  169MOL    H4944065   7.208   6.643   7.407  0.7593 -1.0394 -0.0279
  169MOL    H5044066   7.257   6.598   7.252 -0.1058  0.2449  0.0221
  169MOL    H5144067   7.099   6.767   7.140  0.3594  4.4799  0.9695
  169MOL    H5244068   7.021   6.658   7.264 -1.1536  1.8659  3.0208
  169MOL    H5344069   7.048   6.825   7.301  0.7898  0.0540 -0.1221
  169MOL    C5444070   7.227   6.927   7.505  0.1549  0.0337 -0.1829
  169MOL    C5544071   7.242   6.997   7.644 -0.3311  0.6941 -0.2450
  169MOL    O5644072   7.237   6.892   7.740  0.0418  0.4271  1.0393
  169MOL    C5744073   7.334   6.903   7.840 -0.0590 -0.5841  0.9607
  169MOL    C5844074   7.334   6.775   0.077  0.4377 -0.0945  0.6668
  169MOL    H5944075   7.140   6.861   7.508  0.6105 -0.5228  1.7243
  169MOL    H6044076   7.201   6.999   7.428 -0.7305  1.3857  1.3445
  169MOL    H6144077   7.330   7.060   7.655  0.8048 -1.1166  1.4458
  169MOL    H6244078   7.306   6.978   0.071  1.9167  1.6166 -0.4555
  169MOL    H6344079   7.432   6.926   7.798  0.9350 -0.9013  3.0481
  169MOL    H6444080   7.412   6.759   0.152  1.1532  2.0012  0.4148
  169MOL    H6544081   7.253   6.775   0.150  1.1422  2.5576  1.5123
  169MOL    H6644082   7.327   6.677   0.029 -0.3340 -0.4307  1.4589
  169MOL    C6744083   7.110   7.075   7.682  0.1792 -0.7535  0.4209
  169MOL    C6844084   7.082   7.203   7.607  0.3876 -0.1758 -0.0663
  169MOL    O6944085   7.069   7.199   7.464  0.1842  0.5331  0.2288
  169MOL    C7044086   6.947   7.142   7.414 -0.0767  0.3577  0.3596
  169MOL    C7144087   6.966   7.130   7.261 -0.7032 -0.7250 -0.1407
  169MOL    H7244088   7.111   7.106   7.786 -0.1131  0.2472  0.1278
  169MOL    H7344089   7.021   7.012   7.673 -0.3769 -0.1730  1.7076
  169MOL    H7444090   6.990   7.231   7.657 -1.0042 -1.8078 -1.6257
  169MOL    H7544091   6.863   7.206   7.443 -0.6115 -0.4211  0.5603
  169MOL    H7644092   6.917   7.043   7.451  1.4122 -0.6389 -1.0564
  169MOL    H7744093   6.999   7.228   7.225 -0.5089 -0.5120  0.5964
  169MOL    H7844094   7.041   7.060   7.226 -0.6419 -0.6007 -0.2598
  169MOL    H7944095   6.878   7.114   7.200 -0.2093  0.5107 -1.2194
  169MOL    C8044096   7.179   7.312   7.654  0.0679  0.4533  0.3261
  169MOL    C8144097   7.129   7.452   7.649 -0.1211  0.5763  0.0210
  169MOL    O8244098   6.999   7.472   7.704 -0.2478  0.5419 -0.4102
  169MOL    C8344099   6.981   7.475   0.005  0.3664 -0.2385  0.3346
  169MOL    C8444100   6.829   7.495   0.020  0.4408 -0.4849  1.0539
  169MOL    H8544101   7.263   7.304   7.585  0.4749 -0.0626  0.8806
  169MOL    H8644102   7.208   7.289   7.756 -0.4578 -1.6235  0.0313
  169MOL    H8744103   7.205   7.501   7.708 -1.3561  1.2245  1.0941
  169MOL    H8844104   7.024   7.570   0.036 -2.1183  0.8894  0.4601
  169MOL    H8944105   7.021   7.389   0.058  0.8616  0.9020  1.8690
  169MOL    H9044106   6.792   7.512   0.121 -0.2521 -1.9320  1.0543
  169MOL    H9144107   6.812   7.584   7.803  0.3944 -0.1316  1.5790
  169MOL    H9244108   6.771   7.418   7.812 -0.6275  2.3603 -2.1978
  169MOL    C9344109   7.137   7.525   7.512 -0.2344  0.0014 -0.4889
  169MOL    C9444110   7.270   7.592   7.483  0.1025  0.3561  0.0805
  169MOL    O9544111   7.300   7.689   7.586  0.0754 -0.1439 -0.8872
  169MOL    C9644112   7.436   7.735   7.595 -0.5734  0.2369 -0.2680
  169MOL    C9744113   7.451   7.831   7.715  1.3233  0.0638  0.6217
  169MOL    H9844114   7.062   7.604   7.509  0.8575  1.0499 -0.2979
  169MOL    H9944115   7.099   7.460   7.433 -2.8861  0.0872  0.6441
  169MOL   H10044116   7.340   7.510   7.501 -1.4194 -1.7943 -3.1706
  169MOL   H10144117   7.466   7.789   7.505  1.3346 -1.5482 -0.7406
  169MOL   H10244118   7.504   7.654   7.620 -0.3338  0.4161 -0.3384
  169MOL   H10344119   7.410   0.087   7.698 -0.0235 -0.2701  1.8576
  169MOL   H10444120   7.401   7.793   7.803 -2.0983  1.4490 -0.6577
  169MOL   H10544121   7.559   7.842   7.729  1.6327  1.6294 -2.5207
  169MOL   C10644122   7.298   7.649   7.343  0.3117 -0.2002 -0.3440
  169MOL   C10744123   7.277   7.547   7.232  0.4166  0.1197 -0.1021
  169MOL   O10844124   7.372   7.447   7.241  0.1691  0.2069  0.3132
  169MOL   C10944125   7.330   7.305   7.250  0.0589 -1.1455  0.0085
  169MOL   C11044126   7.445   7.226   7.193  1.0068 -0.5229 -0.1122
  169MOL   H11144127   7.401   7.683   7.334 -0.3286  1.5638 -1.2467
  169MOL   H11244128   7.235   7.737   7.335 -0.7542 -0.8718  0.5031
  169MOL   H11344129   7.182   7.503   7.260  0.9420 -0.0436  1.4513
  169MOL   H11444130   7.240   7.299   7.189 -0.9684 -0.2678  1.4000
  169MOL   H11544131   7.309   7.284   7.355  3.9674 -2.4370  0.6253
  169MOL   H11644132   7.476   7.259   7.094 -1.1208  0.3008 -0.5221
  169MOL   H11744133   7.533   7.244   7.255 -0.2889  0.5349  1.4605
  169MOL   H11844134   7.427   7.119   7.183 -1.7725  0.0194 -1.5610
  169MOL   C11944135   7.266   7.605   7.094 -0.3947 -0.2155 -0.1285
  169MOL   C12044136   7.239   7.507   6.979  0.7603  0.1285  0.1046
  169MOL   O12144137   7.267   7.569   6.859  0.9844 -0.3662 -0.3226
  169MOL   C12244138   7.401   7.571   6.816 -0.4724  0.1559  0.8585
  169MOL   C12344139   7.434   7.447   6.744  0.5613  0.4444 -0.4754
  169MOL   H12444140   7.361   7.653   7.069 -1.1646  1.4356  0.0859
  169MOL   H12544141   7.195   7.687   7.084  1.3517  1.7451  3.0122
  169MOL   H12644142   7.300   7.418   6.989  0.3572 -0.1668 -0.0758
  169MOL   H12744143   7.468   7.573   6.903  1.1142  0.3770 -0.3449
  169MOL   H12844144   7.415   7.664   6.761  1.2898  0.9661  2.5937
  169MOL   H12944145   7.363   7.431   6.662  0.5655 -0.8904 -0.2340
  169MOL   H13044146   7.531   7.443   6.695 -0.6405  0.3781 -2.9290
  169MOL   H13144147   7.431   7.361   6.811 -0.6402 -1.5683 -3.0040
  169MOL   C13244148   7.095   7.444   6.972 -1.0829 -0.4284  0.3919
  169MOL   C13344149   7.078   7.341   6.858 -0.6232  0.0520 -0.3495
  169MOL   O13444150   6.944   7.301   6.852 -0.6719 -0.4364  0.5888
  169MOL   C13544151   6.861   7.393   6.768  0.0147 -0.3790  0.0312
  169MOL   C13644152   6.713   7.374   6.788 -0.7084  0.0920 -0.2572
  169MOL   H13744153   7.029   7.530   6.964 -0.9206 -0.1329  1.9805
  169MOL   H13844154   7.060   7.396   7.064  2.7270  0.0894  2.1734
  169MOL   H13944155   7.126   7.394   6.776 -0.2997 -2.0905 -1.5731
  169MOL   H14044156   6.902   7.383   6.668 -0.5290 -0.9799 -0.1397
  169MOL   H14144157   6.867   7.496   6.802 -0.5509 -0.7652  1.3185
  169MOL   H14244158   6.690   7.271   6.758  2.0510 -0.6400  0.0018
  169MOL   H14344159   6.675   7.401   6.887  1.6204 -1.2590  1.0362
  169MOL   H14444160   6.659   7.436   6.716 -2.0638 -1.4189 -0.5935
  169MOL   C14544161   7.155   7.213   6.888 -0.0313  0.6410 -0.1448
  169MOL   C14644162   7.140   7.098   6.783 -0.5551  0.2181 -0.5357
  169MOL   O14744163   7.239   6.997   6.817  0.0224  0.2097 -0.0079
  169MOL   C14844164   7.210   6.896   6.914  0.4082  0.3850  0.4325
  169MOL   C14944165   7.338   6.886   6.993  0.2282  0.1138  0.1765
  169MOL   H15044166   7.132   7.177   6.988  1.3824  0.3341  0.0837
  169MOL   H15144167   7.263   7.230   6.884  0.1054  0.0447  0.8434
  169MOL   H15244168   7.041   7.055   6.798 -1.1064  1.6280 -0.0096
  169MOL   H15344169   7.203   6.809   6.849 -1.9609  1.6729 -1.0998
  169MOL   H15444170   7.124   6.910   6.979  1.0395  1.1105  1.1334
  169MOL   H15544171   7.426   6.923   6.938 -0.6400  0.7608 -0.8064
  169MOL   H15644172   7.342   6.927   7.094 -2.1827  0.4495  0.1512
  169MOL   H15744173   7.353   6.778   6.996 -0.7017  0.0294  2.0554
  169MOL   C15844174   7.166   7.134   6.633 -0.8971  0.7225 -0.7586
  169MOL   C15944175   7.099   7.045   6.530  0.3076  0.6666 -0.2547
  169MOL   O16044176   7.141   7.077   6.401 -0.6571 -0.0096 -0.4717
  169MOL   C16144177   7.266   7.014   6.374  0.1248  0.6413 -0.3892
  169MOL   C16244178   7.284   6.983   6.222 -0.2479  0.0221  0.0768
  169MOL   H16344179   7.274   7.144   6.622 -0.9238  2.0028  0.0416
  169MOL   H16444180   7.126   7.234   6.613 -1.6880  0.2030 -1.8335
  169MOL   H16544181   7.121   6.943   6.561  0.7005  0.9256  0.3269
  169MOL   H16644182   7.280   6.925   6.436 -1.8415  0.3923 -0.2778
  169MOL   H16744183   7.349   7.075   6.410 -0.0152  0.4496  0.2661
  169MOL   H16844184   7.369   6.923   6.193  1.0327  0.2538  3.1816
  169MOL   H16944185   7.199   6.926   6.184  0.9570 -0.6217 -1.7027
  169MOL   H17044186   7.294   7.071   6.159 -3.0550 -1.3542 -2.4392
  169MOL   C17144187   6.941   7.053   6.524 -0.7359 -0.1251  0.3986
  169MOL   C17244188   6.878   6.979   6.403 -0.6521  0.1580 -0.0886
  169MOL   O17344189   6.740   6.992   6.405 -0.1665  0.4541  0.3952
  169MOL   C17444190   6.681   7.119   6.372  0.0753  0.0080  1.0121
  169MOL   C17544191   6.699   7.139   6.223  0.0329 -0.3745 -0.1343
  169MOL   H17644192   6.919   7.160   6.521 -1.6227 -0.2178  2.6469
  169MOL   H17744193   6.898   7.015   6.616 -2.6024  0.3479 -0.2464
  169MOL   H17844194   6.911   7.005   6.302 -0.0881  1.6787  0.4757
  169MOL   H17944195   6.726   7.207   6.417 -0.8904  1.6103 -1.0632
  169MOL   H18044196   6.576   7.115   6.403 -0.0272 -2.9403  0.4307
  169MOL   H18144197   6.663   7.236   6.189  1.4820 -0.6290 -2.5109
  169MOL   H18244198   6.799   7.125   6.182 -0.5460 -1.6974 -1.1313
  169MOL   H18344199   6.644   7.064   6.166  0.9328 -0.6500 -0.6448
  169MOL   C18444200   6.890   6.830   6.425  0.3145  0.1843 -0.7859
  169MOL   C18544201   6.816   6.739   6.327 -0.4252 -0.2164  0.1487
  169MOL   O18644202   6.742   6.644   6.391  0.3373  0.4004 -0.5594
  169MOL   C18744203   6.604   6.675   6.437 -0.1954  0.4569 -0.4809
  169MOL   C18844204   6.586   6.639   6.587  0.4635  0.3172 -0.1299
  169MOL   H18944205   6.854   6.792   6.521  1.2523  1.2612  0.0055
  169MOL   H19044206   6.995   6.803   6.429 -0.5695 -3.3606  1.2159
  169MOL   H19144207   6.745   6.793   6.265 -1.2823  1.3404  2.4326
  169MOL   H19244208   6.532   6.630   6.369  1.1010 -0.4798 -1.2508
  169MOL   H19344209   6.587   6.782   6.425 -0.2765  0.7129  1.7815
  169MOL   H19444210   6.606   6.532   6.586  0.5187  0.3110  1.4370
  169MOL   H19544211   6.660   6.692   6.647  0.4681 -0.9851  1.0402
  169MOL   H19644212   6.484   6.663   6.618  0.3760  0.0454 -0.1987
  169MOL   C19744213   6.916   6.674   6.230  0.3949  0.3022 -0.0604
  169MOL   C19844214   6.995   6.547   6.281 -0.0099  0.6370  0.8033
  169MOL   O19944215   7.107   6.597   6.360 -0.3545  0.1741 -0.1714
  169MOL   C20044216   7.124   6.514   6.480 -0.0155  0.2080  0.3431
  169MOL   C20144217   7.211   6.598   6.578 -0.5174 -1.1528 -0.1939
  169MOL   H20244218   6.982   6.753   6.195 -1.1207  1.5275 -0.1900
  169MOL   H20344219   6.865   6.642   6.139  1.1441  1.6993 -0.9901
  169MOL   H20444220   6.939   6.476   6.342  0.6539 -0.6528 -0.0778
  169MOL   H20544221   7.165   6.412   6.478  3.1055  1.4125 -2.4518
  169MOL   H20644222   7.027   6.509   6.529 -0.3182 -0.3705 -0.2955
  169MOL   H20744223   7.214   6.706   6.564  0.0844 -1.0438  0.7430
  169MOL   H20844224   7.183   6.576   6.681  0.3139  0.7448  0.4585
  169MOL   H20944225   7.314   6.568   6.558 -0.7015 -0.5002 -2.2148
  169MOL   C21044226   7.067   6.470   6.166  0.0696 -0.3356 -0.8634
  169MOL   C21144227   6.970   6.401   6.062 -0.4252 -0.7903 -0.5416
  169MOL   O21244228   6.890   6.318   6.140  1.0472  0.6170 -0.1063
  169MOL   C21344229   6.758   6.310   6.087  0.5494 -0.1522 -1.0169
  169MOL   C21444230   6.646   6.390   6.149 -0.5177  0.5297 -0.5306
  169MOL   H21544231   7.133   6.396   6.211 -1.8338 -1.4346  0.2151
  169MOL   H21644232   7.127   6.545   6.115  0.6721  0.5186  1.0264
  169MOL   H21744233   6.916   6.475   6.003  0.5627 -0.3693 -0.9143
  169MOL   H21844234   6.724   6.207   6.097 -1.3299  0.5778  0.5063
  169MOL   H21944235   6.749   6.325   5.979 -0.4351  0.3101 -0.8859
  169MOL   H22044236   6.549   6.369   6.105 -0.5035  0.0885 -0.3588
  169MOL   H22144237   6.645   6.365   6.255  0.4156 -1.3666 -0.9476
  169MOL   H22244238   6.660   6.498   6.138  0.6960  0.5644  1.1706
  169MOL   C22344239   7.052   6.310   5.969 -0.5583  0.1515  0.0487
  169MOL   C22444240   7.118   6.383   5.853  0.5560 -0.3450 -0.6726
  169MOL   O22544241   7.014   6.427   5.765  0.0930 -0.0360  0.3034
  169MOL   C22644242   7.045   6.527   5.675 -0.2054 -0.1074  0.4780
  169MOL   C22744243   7.015   6.662   5.748 -0.4123 -0.9775  0.4740
  169MOL   H22844244   7.001   6.223   5.929  2.3517 -1.8173  0.4491
  169MOL   H22944245   7.129   6.266   6.033  1.6072  3.2506 -0.2873
  169MOL   H23044246   7.156   6.473   5.900 -0.6180  0.7476 -1.7408
  169MOL   H23144247   6.976   6.522   5.590 -1.5798  0.4736  1.5350
  169MOL   H23244248   7.143   6.526   5.628 -1.1922 -1.1183 -1.6505
  169MOL   H23344249   6.910   6.686   5.757 -0.5026 -0.8647 -0.8251
  169MOL   H23444250   7.052   6.658   5.851 -1.0483 -0.7399  0.7106
  169MOL   H23544251   7.068   6.733   5.685 -1.6628 -0.8431 -0.4260
  169MOL   C23644252   7.224   6.295   5.772 -0.0461 -0.4098 -0.6297
  169MOL   C23744253   7.330   6.214   5.850  0.6329  0.1828  0.5965
  169MOL   O23844254   7.393   6.311   5.932  0.2605 -0.1564 -0.3084
  169MOL   C23944255   7.488   6.275   6.024 -0.2775  0.1821 -0.1438
  169MOL   C24044256   7.512   6.391   6.123  0.0418  0.1009  0.0143
  169MOL   H24144257   7.273   6.336   5.684 -1.0377  1.4390 -0.3452
  169MOL   H24244258   7.160   6.217   5.731 -0.6537 -0.3601  0.1987
  169MOL   H24344259   7.289   6.136   5.915  0.4570  0.1766  0.4776
  169MOL   H24444260   7.577   6.244   5.970 -0.8499  0.5494 -1.3218
  169MOL   H24544261   7.475   6.185   6.083 -0.9535  0.4103  0.0581
  169MOL   H24644262   7.595   6.359   6.186 -1.3362  0.9457  2.3216
  169MOL   H24744263   7.545   6.485   6.077 -1.5043  0.1829 -0.9422
  169MOL   H24844264   7.423   6.414   6.181  1.1288  2.8450  0.6856
  169MOL   C24944265   7.435   6.140   5.756  0.7603 -0.1113  0.1283
  169MOL   C25044266   7.371   6.016   5.685 -0.4708  0.1806 -0.1574
  169MOL   O25144267   7.485   5.959   5.620  0.5340  0.7289 -0.4299
  169MOL   C25244268   7.451   5.860   5.525  0.4663 -0.0197 -0.1656
  169MOL   C25344269   7.575   5.810   5.455  0.2109 -0.1081 -0.2328
  169MOL   H25444270   7.521   6.108   5.815 -0.7141  0.3923  2.6657
  169MOL   H25544271   7.470   6.209   5.680  0.3607 -0.5910 -0.4931
  169MOL   H25644272   7.335   5.950   5.764  0.2224  0.6996  0.6060
  169MOL   H25744273   7.381   5.916   5.463 -0.4159 -0.7617  0.1470
  169MOL   H25844274   7.405   5.766   5.557  0.4773 -1.2303 -3.4005
  169MOL   H25944275   7.559   5.718   5.399  0.6965  0.1843 -0.8671
  169MOL   H26044276   7.605   5.885   5.382  2.0179  0.7420  1.3244
  169MOL   H26144277   7.655   5.798   5.528 -0.5725 -0.6688  0.5412
  169MOL   H26244278   7.288   6.044   5.620 -0.1138  2.0080  0.1268
  170MOL     C144279   2.749   6.787   1.593  0.3233 -0.4710 -0.0889
  170MOL     C244280   2.607   6.753   1.571 -0.4739  0.1132  0.4460
  170MOL     O344281   2.543   6.726   1.691  0.4842  0.2986 -0.1143
  170MOL     C444282   2.397   6.716   1.690 -0.2631 -0.3921 -0.2806
  170MOL     C544283   2.347   6.614   1.795  0.2524  0.6611 -0.3032
  170MOL     H644284   2.768   6.870   1.661  2.0172  0.8747 -2.1792
  170MOL     H744285   2.797   6.703   1.643 -2.1314 -1.3813  0.8150
  170MOL     H844286   2.570   6.844   1.523  0.7058  0.7731  0.7742
  170MOL     H944287   2.355   6.701   1.590  0.0214  0.0815 -0.4752
  170MOL    H1044288   2.351   6.812   1.714 -0.4531 -0.7079  0.6159
  170MOL    H1144289   2.380   6.513   1.771 -0.2269  0.0630  1.4443
  170MOL    H1244290   2.388   6.649   1.890  0.4184 -0.1363 -0.0773
  170MOL    H1344291   2.239   6.608   1.803  0.2826 -2.0998 -1.4778
  170MOL    H1444292   2.805   6.821   1.506  1.6522  0.3659  1.0797
  170MOL    C1544293   2.599   6.626   1.486  0.2099 -0.4877  0.0188
  170MOL    C1644294   2.653   6.643   1.342 -1.1261  0.0648 -0.5934
  170MOL    O1744295   2.578   6.746   1.276 -0.4268 -0.2826  0.1485
  170MOL    C1844296   2.645   6.788   1.160 -0.0404  0.5273  0.4879
  170MOL    C1944297   2.591   6.917   1.099  0.0952  0.1129  0.0578
  170MOL    H2044298   2.498   6.584   1.473 -0.0334  0.2615 -0.5322
  170MOL    H2144299   2.659   6.550   1.536 -1.0883 -2.0680 -0.7852
  170MOL    H2244300   2.758   6.675   1.340 -0.4326 -2.0659  0.5796
  170MOL    H2344301   2.668   6.719   1.079  1.4129  1.0820  0.4146
  170MOL    H2444302   2.739   6.826   1.200  0.4509  1.4972 -1.5309
  170MOL    H2544303   2.488   6.908   1.064  0.7239 -2.5177 -1.2230
  170MOL    H2644304   2.649   6.954   1.014  2.8096  1.6195  2.4761
  170MOL    H2744305   2.619   6.999   1.166 -4.6266  1.0258  1.1076
  170MOL    C2844306   2.659   6.507   1.265 -0.0451  0.4391 -0.3905
  170MOL    C2944307   2.539   6.404   1.281  0.3213 -0.4855 -0.2711
  170MOL    O3044308   2.595   6.287   1.222  0.1171 -0.1897 -0.3193
  170MOL    C3144309   2.545   6.160   1.259  0.2095 -0.0488  0.1427
  170MOL    C3244310   2.570   6.058   1.144  0.1218 -0.3387 -0.1612
  170MOL    H3344311   2.735   6.442   1.307 -1.7250 -1.9744 -0.9753
  170MOL    H3444312   2.691   6.514   1.161  1.1425  2.0344  0.0593
  170MOL    H3544313   2.530   6.384   1.388  0.7659  0.4558 -0.0560
  170MOL    H3644314   2.437   6.163   1.273 -0.0081  2.0143 -1.8491
  170MOL    H3744315   2.592   6.124   1.351  3.2205 -1.0335 -1.7000
  170MOL    H3844316   2.676   6.053   1.118 -0.1905  3.0552 -2.4445
  170MOL    H3944317   2.540   5.960   1.180  1.2571 -0.4093  0.6272
  170MOL    H4044318   2.519   6.083   1.051  2.0127 -1.6512 -1.5933
  170MOL    C4144319   2.407   6.459   1.227 -0.5091 -0.4537 -0.1408
  170MOL    C4244320   2.403   6.497   1.080 -0.6432  0.5323 -0.0996
  170MOL    O4344321   2.279   6.561   1.040  0.0035 -0.0972 -0.4028
  170MOL    C4444322   2.254   6.692   1.087  0.2663 -0.5777  0.3495
  170MOL    C4544323   2.219   6.775   0.966 -0.0819 -0.4824 -0.7133
  170MOL    H4644324   2.364   6.544   1.279  0.6084  1.5453 -2.3793
  170MOL    H4744325   2.328   6.384   1.239  0.1645 -0.8275  2.1793
  170MOL    H4844326   2.483   6.569   1.061 -0.7240 -0.1367 -3.3803
  170MOL    H4944327   2.352   6.724   1.122  0.5579 -0.1732 -0.8071
  170MOL    H5044328   2.173   6.690   1.160  1.6459 -2.8998  1.9144
  170MOL    H5144329   2.123   6.751   0.923 -1.1883  0.6315  1.0489
  170MOL    H5244330   2.233   6.880   0.995  1.0897 -0.8513  0.1103
  170MOL    H5344331   2.288   6.761   0.883  1.8641 -1.8750  1.0892
  170MOL    C5444332   2.433   6.386   0.983 -0.5411  0.8279 -0.8607
  170MOL    C5544333   2.450   6.422   0.837 -0.0294 -0.4700  1.3480
  170MOL    O5644334   2.448   6.292   0.766 -0.6549 -0.7907 -0.1383
  170MOL    C5744335   2.325   6.267   0.701 -0.1458  0.2931 -0.9828
  170MOL    C5844336   2.355   6.147   0.610 -0.6482  0.1822  0.5826
  170MOL    H5944337   2.342   6.327   0.987  1.5545 -2.5198 -0.9811
  170MOL    H6044338   2.513   6.318   1.013 -0.9160  1.1923  1.0294
  170MOL    H6144339   2.363   6.481   0.811  0.5354 -0.8795 -1.6736
  170MOL    H6244340   2.282   6.355   0.654 -1.0899  0.6525  0.5351
  170MOL    H6344341   2.257   6.236   0.780 -1.0510  0.8084 -1.5571
  170MOL    H6444342   2.281   6.106   0.541 -0.2500 -1.6743  1.2111
  170MOL    H6544343   2.450   6.168   0.561 -0.5693  1.9084  1.4613
  170MOL    H6644344   2.369   6.067   0.683 -0.6086 -1.4146 -1.1316
  170MOL    C6744345   2.581   6.499   0.804 -0.3341  0.0055 -0.6037
  170MOL    C6844346   2.597   6.575   0.663  0.3352  0.5476  0.5085
  170MOL    O6944347   2.735   6.616   0.645  0.4927 -0.0728 -0.0115
  170MOL    C7044348   2.825   6.522   0.580  0.0054  0.4780  0.0140
  170MOL    C7144349   2.965   6.584   0.563 -0.0327  0.3247 -0.1586
  170MOL    H7244350   2.666   6.439   0.836 -0.3488 -1.0064 -2.3637
  170MOL    H7344351   2.580   6.578   0.879 -0.7075 -1.1801  0.6415
  170MOL    H7444352   2.558   6.498   0.596  0.0831  0.3822  0.8467
  170MOL    H7544353   2.780   6.500   0.483  1.3478 -0.1579 -0.4825
  170MOL    H7644354   2.833   6.430   0.638  0.7927  0.2857 -0.3918
  170MOL    H7744355   2.946   6.685   0.525 -1.3564  0.5256  1.0032
  170MOL    H7844356   3.017   6.593   0.658 -0.2166  0.0988 -0.0392
  170MOL    H7944357   3.037   6.523   0.508 -0.6838  1.4675 -2.3326
  170MOL    C8044358   2.510   6.701   0.653 -0.0518  0.2332 -0.1134
  170MOL    C8144359   2.487   6.774   0.514 -0.1593  0.1049 -0.1736
  170MOL    O8244360   2.442   6.679   0.408 -0.4545 -0.0348  0.1578
  170MOL    C8344361   2.315   6.623   0.428  0.3208  0.5924 -0.2730
  170MOL    C8444362   2.258   6.587   0.292 -1.0526  0.0009  0.5430
  170MOL    H8544363   2.563   6.769   0.719  0.0300  0.0046  0.0567
  170MOL    H8644364   2.413   6.681   0.698  0.0548 -0.1731 -0.0645
  170MOL    H8744365   2.404   6.843   0.518  0.1484  0.3737  3.2652
  170MOL    H8844366   2.237   6.679   0.480  0.2725 -1.0101  1.4607
  170MOL    H8944367   2.327   6.532   0.486 -1.1059 -0.6642 -1.9267
  170MOL    H9044368   2.331   6.539   0.226 -1.2582 -0.3424  0.5649
  170MOL    H9144369   2.170   6.524   0.300  0.7512 -2.5287  1.2459
  170MOL    H9244370   2.239   6.683   0.245  0.2702  1.3229  2.6280
  170MOL    C9344371   2.610   6.840   0.454 -0.5183 -0.0407  0.4192
  170MOL    C9444372   2.673   6.955   0.535  0.5278 -0.1446  0.5844
  170MOL    O9544373   2.573   7.031   0.599  0.1351  0.0287  0.4982
  170MOL    C9644374   2.604   7.075   0.733 -0.4526 -0.3086  0.5723
  170MOL    C9744375   2.635   7.224   0.731 -0.1695  0.3912 -0.7425
  170MOL    H9844376   2.575   6.880   0.358  0.1589 -0.6753 -0.0967
  170MOL    H9944377   2.690   6.776   0.418 -0.6246 -0.1076  0.2999
  170MOL   H10044378   2.737   6.905   0.608 -0.1859  0.7128  1.8188
  170MOL   H10144379   2.691   7.025   0.774  1.3760  1.2193 -1.3261
  170MOL   H10244380   2.518   7.053   0.797  1.5342 -0.3613  3.2701
  170MOL   H10344381   2.721   7.262   0.676  1.6636  0.1842  1.9036
  170MOL   H10444382   2.545   7.279   0.705 -1.6060 -1.3610  0.3831
  170MOL   H10544383   2.653   7.252   0.835 -0.3248 -0.3115 -0.5198
  170MOL   C10644384   2.777   7.046   0.462  0.1975 -0.5191 -0.3075
  170MOL   C10744385   2.924   7.016   0.494 -0.4355 -0.8975 -0.3519
  170MOL   O10844386   2.926   7.065   0.628  0.7280  0.1450  0.1745
  170MOL   C10944387   3.047   7.019   0.701  0.7643  0.3087 -0.6944
  170MOL   C11044388   3.049   7.083   0.838  0.4176  0.6922 -0.3749
  170MOL   H11144389   2.749   7.151   0.463 -1.1726 -0.8388 -1.7187
  170MOL   H11244390   2.762   7.035   0.354  0.5897 -0.8369 -0.3320
  170MOL   H11344391   2.947   6.910   0.486 -0.9742 -1.0097 -0.4089
  170MOL   H11444392   3.133   7.062   0.650  1.6239  0.5188  0.8892
  170MOL   H11544393   3.039   6.910   0.711  0.2780  0.1432 -2.6198
  170MOL   H11644394   3.144   7.064   0.888  0.1582 -1.8501 -0.7728
  170MOL   H11744395   3.042   7.192   0.833 -0.8724  0.6788  0.8217
  170MOL   H11844396   2.962   7.051   0.895  0.5214  0.4641 -0.3463
  170MOL   C11944397   3.014   7.094   0.397 -0.1574  0.4442  0.2821
  170MOL   C12044398   3.019   7.036   0.256  0.4803 -0.3936  0.1390
  170MOL   O12144399   3.056   6.902   0.248 -0.4217  0.8439 -0.5691
  170MOL   C12244400   3.005   6.827   0.139  0.1936 -0.3203  0.3737
  170MOL   C12344401   3.070   6.689   0.130  0.6374  0.2106  0.0610
  170MOL   H12444402   3.116   7.072   0.429 -0.8306 -2.5754  0.5075
  170MOL   H12544403   2.989   7.200   0.401  0.7684  0.7807 -1.7388
  170MOL   H12644404   2.924   7.049   0.205  0.6371 -1.2757 -0.3930
  170MOL   H12744405   3.023   6.878   0.044 -0.8724 -1.1886 -0.3078
  170MOL   H12844406   2.896   6.822   0.146  0.3655 -2.0878  2.4842
  170MOL   H12944407   3.177   6.705   0.115  0.6488  1.2454  1.1732
  170MOL   H13044408   3.070   6.649   0.232  1.7297  2.4309  0.9565
  170MOL   H13144409   3.026   6.625   0.054  1.1998 -0.9654  0.7073
  170MOL   C13244410   3.125   7.117   0.175 -0.6042  0.6645  0.3602
  170MOL   C13344411   3.079   7.239   0.090 -0.1193  0.6119 -0.4610
  170MOL   O13444412   2.967   7.202   0.014 -0.6852 -0.1024  0.1396
  170MOL   C13544413   2.848   7.264   0.055  0.4617  0.6781 -0.4358
  170MOL   C13644414   2.741   7.206   7.804  0.5335  0.1046 -0.6050
  170MOL   H13744415   3.163   7.046   0.101 -0.7956 -2.3573  3.0267
  170MOL   H13844416   3.206   7.144   0.243  0.2386 -0.0218 -0.3643
  170MOL   H13944417   3.049   7.311   0.166  1.2677  3.5659 -2.6254
  170MOL   H14044418   2.861   7.372   0.046  1.7186  0.4718 -1.1178
  170MOL   H14144419   2.813   7.228   0.152  2.6757 -0.0696  0.1025
  170MOL   H14244420   2.719   7.105   7.839 -2.1312  0.6032 -0.7508
  170MOL   H14344421   2.647   7.257   7.825  0.1754  0.0604 -2.0435
  170MOL   H14444422   2.755   7.230   7.699 -1.6127  2.4748 -0.4043
  170MOL   C14544423   3.178   7.313   7.839 -0.7969  0.4052 -0.8168
  170MOL   C14644424   3.313   7.356   0.056  0.4172 -0.2185  0.0685
  170MOL   O14744425   3.283   7.458   0.151 -0.3475  0.2520  0.3226
  170MOL   C14844426   3.382   7.476   0.249  0.9140  0.5765 -0.1917
  170MOL   C14944427   3.329   7.580   0.350 -0.3260 -0.1580  0.2946
  170MOL   H15044428   3.130   7.402   7.798 -0.7547  0.1305 -1.4788
  170MOL   H15144429   3.201   7.247   7.755 -2.1246  1.2944 -1.8889
  170MOL   H15244430   3.355   7.265   0.099 -1.7082 -1.5598 -0.5960
  170MOL   H15344431   3.475   7.512   0.204  0.2712  0.8239 -1.3263
  170MOL   H15444432   3.392   7.377   0.293  0.3558 -0.0131 -1.3995
  170MOL   H15544433   3.404   7.603   0.426 -1.3761  2.4555  0.5892
  170MOL   H15644434   3.313   7.678   0.305  3.4005  0.1600 -0.4902
  170MOL   H15744435   3.237   7.549   0.399 -0.3391  1.3498  1.2596
  170MOL   C15844436   3.402   7.416   7.790  0.1499  0.0361  0.1461
  170MOL   C15944437   3.491   7.317   7.710 -0.6251 -0.8969  0.3759
  170MOL   O16044438   3.606   7.288   7.795 -0.2746  0.3105  0.6054
  170MOL   C16144439   3.645   7.154   7.811  0.0547 -0.2606 -0.4990
  170MOL   C16244440   3.758   7.137   0.067 -0.7563  0.0805  0.1686
  170MOL   H16344441   3.471   7.488   7.836  1.3629 -1.3904  0.6255
  170MOL   H16444442   3.346   7.475   7.718  3.0790  3.0679  0.1857
  170MOL   H16544443   3.425   7.232   7.692 -0.6429 -0.5584 -1.2082
  170MOL   H16644444   3.661   7.100   7.717  1.7143 -0.4439 -0.1253
  170MOL   H16744445   3.560   7.102   0.011 -0.2367 -1.9098 -2.8986
  170MOL   H16844446   3.730   7.181   0.162  0.5948 -0.2050  0.7131
  170MOL   H16944447   3.778   7.031   0.077 -0.5764 -0.0918 -1.7478
  170MOL   H17044448   3.843   7.196   0.031 -0.1694  0.3368  1.9423
  170MOL   C17144449   3.554   7.373   7.584  0.1986 -0.2994  0.2431
  170MOL   C17244450   3.456   7.394   7.468 -0.0535 -0.1777 -0.2973
  170MOL   O17344451   3.378   7.277   7.466  0.0388  0.0036 -0.2184
  170MOL   C17444452   3.254   7.297   7.399  0.5561  0.0752 -0.3825
  170MOL   C17544453   3.151   7.386   7.477  0.2070  0.1232 -0.0862
  170MOL   H17644454   3.618   7.290   7.553 -1.1652 -0.0658 -3.5254
  170MOL   H17744455   3.608   7.461   7.616  0.3197  0.6976 -2.5485
  170MOL   H17844456   3.400   7.483   7.498 -1.7434 -2.0987  2.5395
  170MOL   H17944457   3.206   7.202   7.374  2.4404 -0.5811 -1.5796
  170MOL   H18044458   3.276   7.345   7.304  2.3192 -2.5491 -1.3411
  170MOL   H18144459   3.108   7.321   7.553  0.2230  0.5977  0.3304
  170MOL   H18244460   3.202   7.474   7.516  0.0294 -0.0634  0.5760
  170MOL   H18344461   3.074   7.422   7.408  0.6405  3.5659  1.1657
  170MOL   C18444462   3.525   7.418   7.331  0.4264 -0.4343  0.2762
  170MOL   C18544463   3.598   7.553   7.315  0.3538  0.1840 -0.3214
  170MOL   O18644464   3.513   7.665   7.325 -0.0601 -0.8490 -0.3406
  170MOL   C18744465   3.558   7.757   7.425  0.7644 -0.3499  0.7735
  170MOL   C18844466   3.456   0.029   7.425 -0.5148  0.6754 -0.2227
  170MOL   H18944467   3.455   7.412   7.248  0.3648 -0.5287  0.3346
  170MOL   H19044468   3.594   7.336   7.308  2.8885  0.8877  2.6289
  170MOL   H19144469   3.688   7.551   7.377 -0.2780 -2.0667  0.5818
  170MOL   H19244470   3.660   7.794   7.421  0.8971 -0.7893  0.1096
  170MOL   H19344471   3.539   7.699   7.516 -1.2182  0.0003  0.6207
  170MOL   H19444472   3.414   0.058   7.329 -3.4369 -1.8320  0.2292
  170MOL   H19544473   3.364   0.004   7.477 -0.1446 -1.4455 -0.5433
  170MOL   H19644474   3.495   0.114   7.481  0.8655  0.1982 -0.4346
  170MOL   C19744475   3.636   7.581   7.168 -0.0971 -0.0371  1.0644
  170MOL   C19844476   3.723   7.702   7.118 -0.3044  0.6307  1.0631
  170MOL   O19944477   3.727   7.698   6.981 -0.3586 -0.4502 -0.0009
  170MOL   C20044478   3.649   7.798   6.909  0.9096 -0.0201  0.9249
  170MOL   C20144479   3.635   7.757   6.764 -0.4883  0.0726 -0.2970
  170MOL   H20244480   3.543   7.597   7.113  1.0735  4.0430  0.1206
  170MOL   H20344481   3.659   7.493   7.109  0.3137 -0.6082  2.0699
  170MOL   H20444482   3.681   7.797   7.150 -0.1884  0.5906  1.3314
  170MOL   H20544483   3.698   0.051   6.912  2.2290 -0.6886  1.3103
  170MOL   H20644484   3.550   7.801   6.953  0.1274 -0.0144 -0.7839
  170MOL   H20744485   3.575   7.832   6.712  0.5553  0.6233 -0.7246
  170MOL   H20844486   3.727   7.738   6.709  0.3812 -0.9087  1.4533
  170MOL   H20944487   3.575   7.666   6.756 -1.5884  0.9508 -2.4651
  170MOL   C21044488   3.870   7.683   7.164 -0.0249  0.0348 -0.4708
  170MOL   C21144489   3.980   7.776   7.117 -0.3556 -0.8980 -0.0441
  170MOL   O21244490   4.018   7.731   6.986 -0.1565 -0.2250 -0.3891
  170MOL   C21344491   4.042   0.001   6.895  0.3463  0.3132  0.5414
  170MOL   C21444492   4.089   7.779   6.767 -0.1688  0.3370 -0.1515
  170MOL   H21544493   3.910   7.586   7.135  3.5487  2.0228 -2.5867
  170MOL   H21644494   3.874   7.690   7.273  2.4829  0.1473 -0.5402
  170MOL   H21744495   3.949   0.036   7.103  1.2246 -0.5536 -1.1860
  170MOL   H21844496   4.110   0.078   6.932  0.1059  0.9724 -0.3710
  170MOL   H21944497   3.946   0.048   6.874 -0.3105 -1.5195 -0.6188
  170MOL   H22044498   4.189   7.734   6.766 -1.0864 -1.8059  0.8792
  170MOL   H22144499   4.024   7.693   6.753  0.8359 -0.0525 -2.6205
  170MOL   H22244500   4.074   0.003   6.683  0.1456 -0.6712 -1.0312
  170MOL   C22344501   4.111   7.778   7.207 -0.5944 -0.8954  1.0652
  170MOL   C22444502   4.096   0.028   7.331 -0.3449  0.3317 -0.0120
  170MOL   O22544503   4.094   0.166   7.290 -0.1393 -0.5337  0.3947
  170MOL   C22644504   4.207   0.226   7.225  0.0549 -0.2989 -0.0351
  170MOL   C22744505   4.223   0.372   7.253 -0.4888 -0.4527  0.5289
  170MOL   H22844506   4.195   7.813   7.146  0.5137 -1.7287  2.0799
  170MOL   H22944507   4.140   7.680   7.244 -0.2080 -0.9427  0.6438
  170MOL   H23044508   3.994   0.014   7.367 -0.4412  0.7635 -0.1102
  170MOL   H23144509   4.201   0.202   7.119  2.2559 -0.6738 -0.0998
  170MOL   H23244510   4.297   0.171   7.251 -0.4741 -0.8949  0.5746
  170MOL   H23344511   4.123   0.414   7.247 -0.0462  0.6210  0.4210
  170MOL   H23444512   4.270   0.389   7.350 -1.2396 -2.3354  1.2412
  170MOL   H23544513   4.285   0.422   7.179 -0.7684 -1.6688 -0.5418
  170MOL   C23644514   4.194   0.004   7.447  0.3255  0.5070  0.9947
  170MOL   C23744515   4.175   7.708   7.518 -0.1131 -0.5934 -0.6574
  170MOL   O23844516   4.061   7.728   7.598  0.3035  0.3522 -0.5928
  170MOL   C23944517   3.973   7.623   7.616 -0.4705  1.0485 -0.4400
  170MOL   C24044518   3.847   7.682   7.664 -0.3948 -0.1963 -0.2982
  170MOL   H24144519   4.200   0.094   7.509  2.9101  0.1727  1.2951
  170MOL   H24244520   4.297   0.006   7.410 -0.3621 -0.8834 -1.0861
  170MOL   H24344521   4.150   7.633   7.442 -0.3622  1.2336 -2.4278
  170MOL   H24444522   4.009   7.549   7.687 -0.2795  2.1569  0.6485
  170MOL   H24544523   3.958   7.564   7.526 -1.2318 -1.7022  1.4328
  170MOL   H24644524   3.770   7.606   7.648 -1.1569  0.7338 -1.1790
  170MOL   H24744525   3.844   7.701   7.771  2.4287  0.0741 -0.2420
  170MOL   H24844526   3.824   7.780   7.620 -0.2505 -0.9483 -2.1127
  170MOL   C24944527   4.289   7.677   7.616  0.3190  0.6215  0.2983
  170MOL   C25044528   4.402   7.602   7.544 -0.7249 -0.3168 -0.1559
  170MOL   O25144529   4.491   7.699   7.486  0.3137 -0.1789  0.1963
  170MOL   C25244530   4.597   7.644   7.411 -0.2495 -0.1524 -0.2446
  170MOL   C25344531   4.692   7.755   7.360  0.6919 -0.1633  0.0955
  170MOL   H25444532   4.256   7.599   7.685 -1.2613  1.1979  0.2070
  170MOL   H25544533   4.325   7.767   7.665 -1.8392  0.6941  1.8271
  170MOL   H25644534   4.463   7.553   7.620 -0.7398  0.0247  0.0775
  170MOL   H25744535   4.563   7.579   7.329  0.2848 -3.2615  1.9025
  170MOL   H25844536   4.651   7.582   7.482  2.1980  0.6353 -1.3667
  170MOL   H25944537   4.716   7.824   7.441  0.0194  1.1420 -0.8045
  170MOL   H26044538   4.789   7.723   7.320  0.2385 -0.7877 -0.5006
  170MOL   H26144539   4.636   7.799   7.278  1.4499  0.8380  0.1077
  170MOL   H26244540   4.357   7.528   7.479 -0.4082  0.3272 -1.1209
  171MOL     C144541   3.787   6.850   0.849 -0.2914  0.3849 -0.8783
  171MOL     C244542   3.797   7.001   0.807  0.6294  0.1026 -0.2366
  171MOL     O344543   3.773   7.069   0.927 -0.2240 -0.1607 -0.1275
  171MOL     C444544   3.886   7.108   1.007 -0.1701 -0.4978 -0.9023
  171MOL     C544545   3.834   7.204   1.110 -0.4350  0.2775  0.4825
  171MOL     H644546   3.691   6.838   0.899  0.5034  0.2222  0.6278
  171MOL     H744547   3.798   6.786   0.761  0.5965  0.0583 -0.5365
  171MOL     H844548   3.896   7.027   0.770  1.3369 -1.5946  0.4260
  171MOL     H944549   3.967   7.160   0.954  0.3568 -0.2363  0.1517
  171MOL    H1044550   3.938   7.020   1.045  0.5856 -0.4519 -1.8083
  171MOL    H1144551   3.830   7.302   1.062  0.5933  0.5005  0.8394
  171MOL    H1244552   3.734   7.176   1.143 -0.2992  1.9483  2.4389
  171MOL    H1344553   3.888   7.220   1.204 -0.3712  0.8372  0.3531
  171MOL    H1444554   3.872   6.830   0.913 -1.0648 -1.8120 -0.4839
  171MOL    C1544555   3.692   7.036   0.701  0.8523 -0.0393  0.9622
  171MOL    C1644556   3.691   7.183   0.654  0.1725 -0.2577 -0.4077
  171MOL    O1744557   3.570   7.225   0.604 -0.3335 -0.1899  0.1100
  171MOL    C1844558   3.484   7.262   0.709  0.4793 -0.1352  0.7832
  171MOL    C1944559   3.348   7.308   0.644 -0.2982 -0.3190 -0.7371
  171MOL    H2044560   3.596   7.003   0.741 -1.0811  1.8612 -1.9286
  171MOL    H2144561   3.705   6.979   0.609 -2.5306 -0.5558  0.7285
  171MOL    H2244562   3.716   7.239   0.743 -1.4647 -1.5845  0.9151
  171MOL    H2344563   3.524   7.334   0.780  1.3909  0.0046  0.1318
  171MOL    H2444564   3.465   7.168   0.762  0.3966 -0.5076  0.1049
  171MOL    H2544565   3.372   7.396   0.584  0.0673 -0.8590 -1.3907
  171MOL    H2644566   3.267   7.336   0.711 -0.8837 -4.2018  0.2838
  171MOL    H2744567   3.308   7.221   0.592  2.3241 -1.8295 -0.3168
  171MOL    C2844568   3.796   7.214   0.546 -0.1508  0.2987  0.5276
  171MOL    C2944569   3.818   7.361   0.533  0.4044 -0.1066 -0.9243
  171MOL    O3044570   3.889   7.391   0.410 -0.1125  0.2516 -0.1765
  171MOL    C3144571   3.797   7.430   0.303  0.7115  0.5791  0.2356
  171MOL    C3244572   3.878   7.472   0.183  0.3656  0.5190  0.0763
  171MOL    H3344573   3.755   7.181   0.451  0.5519  1.4385 -0.1814
  171MOL    H3444574   3.887   7.157   0.565 -0.2122  0.6533  2.0256
  171MOL    H3544575   3.722   7.412   0.533 -1.8954 -4.2738 -2.0397
  171MOL    H3644576   3.743   7.514   0.348 -2.7029 -1.6591  0.5022
  171MOL    H3744577   3.723   7.352   0.283 -0.3145  1.1486  1.6838
  171MOL    H3844578   3.810   7.496   0.101 -1.8622  0.3702  1.8172
  171MOL    H3944579   3.940   7.559   0.203 -0.3996  0.8398  1.1457
  171MOL    H4044580   3.943   7.391   0.148  0.4086  1.7023 -2.6782
  171MOL    C4144581   3.909   7.418   0.644 -0.0168  0.0760  0.1573
  171MOL    C4244582   3.896   7.576   0.679  0.3372  0.9211 -0.0827
  171MOL    O4344583   3.759   7.589   0.712 -0.0846  0.3377 -0.6587
  171MOL    C4444584   3.737   7.580   0.854  0.2305  0.0081 -0.4149
  171MOL    C4544585   3.597   7.621   0.894 -0.3778 -0.0293 -0.1511
  171MOL    H4644586   4.014   7.410   0.615 -0.0195 -1.1648  0.4672
  171MOL    H4744587   3.912   7.359   0.735  0.5364  2.4533  1.7387
  171MOL    H4844588   3.961   7.598   0.764  1.3130  0.5428 -0.7301
  171MOL    H4944589   3.801   7.656   0.898 -0.3783  0.4974 -0.3725
  171MOL    H5044590   3.753   7.481   0.897 -0.8936  0.2799  0.6373
  171MOL    H5144591   3.537   7.587   0.809  1.8128 -3.9229 -0.2569
  171MOL    H5244592   3.569   7.583   0.992  1.5049  0.8365  0.7335
  171MOL    H5344593   3.588   7.730   0.890  0.8840  0.0168 -2.1136
  171MOL    C5444594   3.933   7.673   0.564 -0.3240 -0.3895  0.0087
  171MOL    C5544595   3.948   7.823   0.596  1.0504 -0.0068  0.1570
  171MOL    O5644596   4.054   0.010   0.690  0.1487 -0.2029  0.0093
  171MOL    C5744597   4.191   7.830   0.649 -0.1391 -0.8486  0.3624
  171MOL    C5844598   4.272   7.782   0.773  0.7553  0.2594 -0.5331
  171MOL    H5944599   3.864   7.660   0.481  0.6039 -0.3550 -0.7771
  171MOL    H6044600   4.030   7.635   0.533  0.4180  0.6662  1.0232
  171MOL    H6144601   3.981   0.025   0.503  1.4410  0.7614  0.6678
  171MOL    H6244602   4.230   0.079   0.606  0.2590 -2.1782 -2.2103
  171MOL    H6344603   4.213   7.761   0.568 -0.5155 -2.5259  1.6565
  171MOL    H6444604   4.265   0.012   0.853  0.9227 -1.7128  1.3424
  171MOL    H6544605   4.232   7.685   0.803  0.5614  0.1947 -1.0045
  171MOL    H6644606   4.376   7.768   0.746  0.0810 -2.2755 -1.9388
  171MOL    C6744607   3.821   0.047   0.643  0.0208 -0.1986 -0.4561
  171MOL    C6844608   3.834   0.203   0.645 -0.2937 -0.1264 -0.2961
  171MOL    O6944609   3.696   0.239   0.664  0.0530  0.4424 -0.2970
  171MOL    C7044610   3.666   0.285   0.794 -0.2969  0.1641  0.1377
  171MOL    C7144611   3.518   0.291   0.805  0.3292  0.6276  0.0981
  171MOL    H7244612   3.802   0.008   0.743 -0.7167  0.2239 -0.4262
  171MOL    H7344613   3.734   0.023   0.583 -1.2916  1.8760  0.5565
  171MOL    H7444614   3.894   0.225   0.733  0.6603  0.4368 -1.0867
  171MOL    H7544615   3.708   0.384   0.813  2.3978 -0.2672 -3.0755
  171MOL    H7644616   3.704   0.218   0.872  0.2651  0.1075 -0.1830
  171MOL    H7744617   3.480   0.359   0.730 -2.0139  0.4520  1.0826
  171MOL    H7844618   3.466   0.197   0.787 -0.9822  0.8758  2.2966
  171MOL    H7944619   3.480   0.334   0.898 -0.5500 -1.9656  1.0002
  171MOL    C8044620   3.882   0.278   0.517 -0.0154 -0.0642 -0.6700
  171MOL    C8144621   3.897   0.440   0.519  0.1488 -0.2397 -0.1781
  171MOL    O8244622   3.945   0.467   0.397 -0.0938 -0.0441 -0.4190
  171MOL    C8344623   3.844   0.498   0.299  0.1286 -0.1604 -0.2160
  171MOL    C8444624   3.910   0.565   0.187  0.5670  0.2942 -0.0893
  171MOL    H8544625   3.814   0.257   0.433  0.8624 -0.6772 -1.2313
  171MOL    H8644626   3.977   0.240   0.480  0.5931 -0.3373  1.1435
  171MOL    H8744627   3.793   0.470   0.529  0.8071  2.3013 -0.4882
  171MOL    H8844628   3.771   0.572   0.334 -0.9387 -0.1738 -2.3541
  171MOL    H8944629   3.783   0.416   0.263  1.2728 -1.8212  1.5517
  171MOL    H9044630   3.986   0.504   0.139 -0.4872  0.3824 -1.9303
  171MOL    H9144631   3.837   0.583   0.107 -0.4109 -0.2210  0.6761
  171MOL    H9244632   3.961   0.657   0.215 -2.5613  2.0479  0.0739
  171MOL    C9344633   3.980   0.499   0.633  0.3809  0.5973  0.2036
  171MOL    C9444634   3.968   0.652   0.651  0.3195 -0.4601  0.4459
  171MOL    O9544635   3.829   0.677   0.677 -0.4094 -0.3364  0.7468
  171MOL    C9644636   3.802   0.699   0.816  0.0241 -0.2067 -0.6252
  171MOL    C9744637   3.651   0.730   0.839 -0.1561  0.4604  0.2353
  171MOL    H9844638   4.084   0.468   0.624  0.8051  1.8547  0.6269
  171MOL    H9944639   3.951   0.454   0.728  0.0225  1.7653  0.6560
  171MOL   H10044640   4.031   0.676   0.737 -2.1353 -0.1824  2.2569
  171MOL   H10144641   3.867   0.775   0.859 -0.7801 -1.7995  3.6059
  171MOL   H10244642   3.833   0.607   0.865 -1.7850  0.1483  1.2705
  171MOL   H10344643   3.626   0.717   0.945  2.4814 -1.8661  0.6436
  171MOL   H10444644   3.609   0.826   0.809 -0.1909 -0.0870 -1.5045
  171MOL   H10544645   3.583   0.660   0.792 -0.7888  0.4997  1.0867
  171MOL   C10644646   4.012   0.737   0.532  0.2739  0.2139  0.2227
  171MOL   C10744647   4.005   0.896   0.555 -0.0163 -0.1123 -0.4627
  171MOL   O10844648   4.075   0.923   0.675 -0.0327  0.2919  0.0724
  171MOL   C10944649   4.207   0.968   0.670 -0.0634 -0.3511  0.2983
  171MOL   C11044650   4.236   1.022   0.808  0.1288  0.7690  0.6030
  171MOL   H11144651   3.961   0.701   0.442  2.4380  0.1305 -1.0193
  171MOL   H11244652   4.119   0.729   0.512  0.2841 -1.4430  0.8707
  171MOL   H11344653   4.058   0.946   0.474  0.0533 -2.4431 -1.9207
  171MOL   H11444654   4.219   1.055   0.605 -0.6013 -2.8737 -3.3455
  171MOL   H11544655   4.285   0.903   0.631  0.5613 -1.1579  2.7988
  171MOL   H11644656   4.261   0.950   0.885  0.7600 -0.1437 -0.4290
  171MOL   H11744657   4.321   1.090   0.803  1.7036 -1.1730 -0.0714
  171MOL   H11844658   4.156   1.084   0.847  1.7889  2.0637  2.0130
  171MOL   C11944659   3.863   0.957   0.577 -0.1930 -0.0961 -0.4664
  171MOL   C12044660   3.766   0.948   0.457  0.6359  0.3369 -0.2818
  171MOL   O12144661   3.823   1.015   0.344 -0.1342  0.1210 -0.5908
  171MOL   C12244662   3.884   0.945   0.241 -0.1716 -0.1538 -0.2170
  171MOL   C12344663   3.907   1.044   0.134  0.5895 -0.5537  0.4887
  171MOL   H12444664   3.862   1.064   0.598 -1.5171 -0.0436 -0.7797
  171MOL   H12544665   3.820   0.919   0.669  1.4481 -1.0873 -0.0820
  171MOL   H12644666   3.758   0.844   0.427  1.5526 -0.5105  2.2766
  171MOL   H12744667   3.823   0.864   0.201  0.3652 -1.1471  0.9289
  171MOL   H12844668   3.973   0.901   0.286  0.1162 -0.7375 -1.3656
  171MOL   H12944669   3.820   1.100   0.100  0.3837 -0.8841  0.4641
  171MOL   H13044670   3.959   1.130   0.175 -0.6031  0.6198 -0.4142
  171MOL   H13144671   3.957   1.003   0.046 -1.8821 -0.2191 -1.1337
  171MOL   C13244672   3.630   1.001   0.488  0.4677  0.3493 -0.4722
  171MOL   C13344673   3.528   0.956   0.381  0.6717  0.6151 -0.2169
  171MOL   O13444674   3.413   1.044   0.392 -0.5662 -0.3661 -0.7292
  171MOL   C13544675   3.400   1.134   0.279  0.7617 -0.7853  0.0523
  171MOL   C13644676   3.246   1.115   0.247 -0.7195 -0.5475  0.3067
  171MOL   H13744677   3.636   1.109   0.473 -3.7257  0.6772 -0.3477
  171MOL   H13844678   3.596   0.977   0.588  0.1276  1.0001 -0.4251
  171MOL   H13944679   3.578   0.955   0.285  2.0933 -0.5455  0.5164
  171MOL   H14044680   3.446   1.094   0.188  3.8305 -0.9876  1.6143
  171MOL   H14144681   3.434   1.236   0.294  0.4553 -0.5291 -0.9900
  171MOL   H14244682   3.200   1.018   0.229  0.4868 -1.1440  0.3849
  171MOL   H14344683   3.199   1.137   0.343  1.3844  1.6903  0.8651
  171MOL   H14444684   3.200   1.195   0.188  1.1100 -0.4090 -0.9637
  171MOL   C14544685   3.476   0.813   0.419 -0.3876  0.0201  0.1030
  171MOL   C14644686   3.396   0.741   0.311  0.1815 -0.5279 -0.4874
  171MOL   O14744687   3.304   0.657   0.377 -0.1468  0.0912  0.0505
  171MOL   C14844688   3.169   0.709   0.380 -0.1069 -0.2425 -1.0709
  171MOL   C14944689   3.085   0.633   0.485 -0.2412 -0.4078  0.0297
  171MOL   H15044690   3.433   0.813   0.519  0.0700 -0.7393  0.3034
  171MOL   H15144691   3.558   0.746   0.444 -2.2360 -2.2860  0.2163
  171MOL   H15244692   3.348   0.827   0.264  2.3684  0.1578 -1.5210
  171MOL   H15344693   3.120   0.691   0.284  0.2563 -2.5149 -0.8635
  171MOL   H15444694   3.175   0.817   0.391  0.9306 -0.2582 -1.4192
  171MOL   H15544695   3.081   0.527   0.459 -1.2120 -0.0864 -1.1415
  171MOL   H15644696   3.139   0.632   0.580  1.2155  1.4754 -0.7563
  171MOL   H15744697   2.986   0.672   0.507 -0.4052 -1.8574  2.0466
  171MOL   C15844698   3.488   0.669   0.211  0.1328 -0.0367  0.2506
  171MOL   C15944699   3.421   0.605   0.091 -0.0156  0.3982 -0.1487
  171MOL   O16044700   3.538   0.585   0.008  0.3691 -0.4789  0.1100
  171MOL   C16144701   3.546   0.463   7.788  0.7891  0.6069 -0.5639
  171MOL   C16244702   3.625   0.360   0.031 -0.3613 -0.3874 -0.0322
  171MOL   H16344703   3.550   0.599   0.266 -0.8900 -1.2839 -0.1614
  171MOL   H16444704   3.544   0.750   0.164 -0.2128  1.7193  2.7553
  171MOL   H16544705   3.374   0.511   0.120 -0.8990  0.5744 -0.9850
  171MOL   H16644706   3.596   0.477   7.692 -1.8167  0.0174 -2.0523
  171MOL   H16744707   3.448   0.425   7.760  1.1584 -0.5189 -0.3826
  171MOL   H16844708   3.628   0.271   7.812  0.0662 -0.7859  0.5534
  171MOL   H16944709   3.728   0.390   0.052 -0.5302  1.3379 -1.5063
  171MOL   H17044710   3.569   0.347   0.123 -2.7593  0.8871 -1.2664
  171MOL   C17144711   3.320   0.693   0.021 -0.2007  0.0716  0.3885
  171MOL   C17244712   3.286   0.636   7.719 -0.8732  0.0683  0.7202
  171MOL   O17344713   3.243   0.740   7.636  0.7612 -0.6783 -0.4960
  171MOL   C17444714   3.350   0.809   7.571  0.8823 -0.0694  0.4739
  171MOL   C17544715   3.302   0.927   7.503 -0.2264  0.2316  0.1231
  171MOL   H17644716   3.368   0.791   0.014  1.4330 -0.6755  0.7994
  171MOL   H17744717   3.230   0.701   0.082  0.8394 -0.0105  1.9711
  171MOL   H17844718   3.375   0.587   7.679 -0.4822  1.9348 -0.7983
  171MOL   H17944719   3.393   0.744   7.495 -0.8052  1.0676 -1.5334
  171MOL   H18044720   3.433   0.828   7.638  3.3236  0.7745 -2.6667
  171MOL   H18144721   3.382   0.989   7.464  0.3412  0.6520  1.8968
  171MOL   H18244722   3.240   0.920   7.414 -0.9107 -2.0498  0.7329
  171MOL   H18344723   3.258   0.986   7.584  0.5551 -0.2780  0.9258
  171MOL   C18444724   3.165   0.531   7.717  0.4965 -0.0317 -0.2730
  171MOL   C18544725   3.131   0.469   7.579  0.5520 -0.5215 -0.2015
  171MOL   O18644726   2.994   0.445   7.565 -0.1371  0.7371  0.3548
  171MOL   C18744727   2.924   0.547   7.494  0.8768  0.5649 -0.2520
  171MOL   C18844728   2.769   0.518   7.478  0.6405 -0.4205 -0.1052
  171MOL   H18944729   3.080   0.584   7.762  0.2183 -1.2659  0.6731
  171MOL   H19044730   3.178   0.447   7.785 -1.4485  0.2200  0.4582
  171MOL   H19144731   3.162   0.532   7.496 -0.7373  0.3008 -0.0735
  171MOL   H19244732   2.964   0.557   7.393  2.0164 -0.9287  0.0255
  171MOL   H19344733   2.950   0.638   7.549  1.4673  0.0305  0.3828
  171MOL   H19444734   2.734   0.589   7.403 -1.1979 -0.5283  0.6117
  171MOL   H19544735   2.740   0.420   7.441  3.4770 -0.7079 -1.7040
  171MOL   H19644736   2.710   0.524   7.570  0.2105  1.1994 -0.4592
  171MOL   C19744737   3.210   0.329   7.557 -0.0474 -0.5308 -0.1431
  171MOL   C19844738   3.178   0.208   7.649  0.7309 -0.3714  0.6528
  171MOL   O19944739   3.302   0.151   7.697 -0.0342 -0.0749 -0.1847
  171MOL   C20044740   3.315   0.105   7.837  0.1667  0.1280  0.4489
  171MOL   C20144741   3.371   7.802   0.003 -0.8470  0.7888  0.2962
  171MOL   H20244742   3.312   0.360   7.576  0.1309 -0.5334 -1.0461
  171MOL   H20344743   3.211   0.294   7.453 -3.5833  0.0694 -0.4390
  171MOL   H20444744   3.124   0.232   7.740  2.2924 -1.5575  1.9264
  171MOL   H20544745   3.213   0.098   0.030 -0.1509  1.3799 -0.1703
  171MOL   H20644746   3.364   0.187   0.046 -1.9311  1.5420  0.2600
  171MOL   H20744747   3.280   7.744   7.830  1.2820 -2.0993 -1.8485
  171MOL   H20844748   3.440   7.780   7.765 -0.3083 -2.0420  1.4629
  171MOL   H20944749   3.414   7.782   0.100 -2.4509  0.7837  1.0247
  171MOL   C21044750   3.090   0.095   7.597 -0.1232 -0.5682 -0.9717
  171MOL   C21144751   2.946   0.115   7.561  0.1855 -0.2575 -0.3072
  171MOL   O21244752   2.854   0.083   7.664  0.4485 -0.6767  0.4921
  171MOL   C21344753   2.818   0.191   7.751  0.3326 -0.3848  0.5357
  171MOL   C21444754   2.706   0.144   0.001 -0.6485  0.6113 -0.1900
  171MOL   H21544755   3.101   0.003   7.655 -0.0736 -0.6724 -1.1434
  171MOL   H21644756   3.143   0.063   7.507  3.0968 -0.6177  0.8352
  171MOL   H21744757   2.927   0.216   7.524 -1.4149 -0.3106  0.3140
  171MOL   H21844758   2.771   0.276   7.703 -1.4115 -1.9014 -0.5247
  171MOL   H21944759   2.905   0.221   7.810  1.3084 -1.0155 -0.5590
  171MOL   H22044760   2.724   0.071   0.081 -1.6570 -1.1271 -1.5060
  171MOL   H22144761   2.650   0.229   0.041 -1.1728 -0.5610  1.6442
  171MOL   H22244762   2.627   0.104   7.781 -0.2228 -1.3604  0.4867
  171MOL   C22344763   2.901   0.008   7.458 -0.4466 -0.2752  0.3798
  171MOL   C22444764   2.937   0.030   7.311 -0.1998  0.3015  0.0323
  171MOL   O22544765   3.068   7.825   7.278 -0.4469  0.0985  0.3576
  171MOL   C22644766   3.076   7.686   7.230 -0.0396  0.2393 -0.4769
  171MOL   C22744767   3.224   7.649   7.236  0.1556 -0.0648  1.2190
  171MOL   H22844768   2.792   0.009   7.460 -0.4807 -0.6937 -1.2019
  171MOL   H22944769   2.938   7.755   7.494 -0.5888 -0.3794  0.2448
  171MOL   H23044770   2.875   7.804   7.255  1.4718 -0.4138 -0.9666
  171MOL   H23144771   3.041   7.668   7.128  0.0226 -3.1190  0.0223
  171MOL   H23244772   3.022   7.616   7.294 -0.3790  0.5999 -0.3689
  171MOL   H23344773   3.260   7.653   7.339  1.1357  1.2583  0.8319
  171MOL   H23444774   3.237   7.546   7.204  0.8036  1.3033 -3.2080
  171MOL   H23544775   3.293   7.711   7.178 -0.4090 -0.9045 -0.3652
  171MOL   C23644776   2.897   0.171   7.260  0.2171  0.5940  0.4275
  171MOL   C23744777   2.867   0.185   7.107 -0.2634  0.0515  1.0139
  171MOL   O23844778   2.879   0.321   7.065  0.6490 -0.1434 -0.0883
  171MOL   C23944779   2.970   0.348   6.964 -0.1834  0.1528 -0.5468
  171MOL   C24044780   2.954   0.487   6.915  0.3530  0.2058 -0.6048
  171MOL   H24144781   2.978   0.241   7.282 -2.1168  3.2569  0.7380
  171MOL   H24244782   2.812   0.211   7.314  1.6415  2.9131  1.0033
  171MOL   H24344783   2.950   0.130   7.062 -1.7918 -0.1280 -1.6709
  171MOL   H24444784   2.933   0.297   6.875 -1.1363 -0.1227  0.0055
  171MOL   H24544785   3.070   0.311   6.987 -1.4955 -1.7918  2.2400
  171MOL   H24644786   3.032   0.519   6.846 -1.1946 -1.3043 -3.1363
  171MOL   H24744787   2.854   0.513   6.880 -0.2048  0.0275  0.8092
  171MOL   H24844788   2.977   0.553   6.998 -0.4112 -0.3648  0.0675
  171MOL   C24944789   2.725   0.130   7.061 -0.5954  0.3970  0.2444
  171MOL   C25044790   2.724   0.073   6.918  0.2441 -0.4104 -0.3898
  171MOL   O25144791   2.811   7.808   6.906 -0.1200  0.0312 -0.6492
  171MOL   C25244792   2.795   7.721   6.800  1.5886  0.3505 -0.2420
  171MOL   C25344793   2.915   7.629   6.802 -0.2663  0.1231  0.4265
  171MOL   H25444794   2.662   0.219   7.060  0.5541  1.2230  0.0150
  171MOL   H25544795   2.675   0.054   7.121 -0.2214  0.4513  0.6325
  171MOL   H25644796   2.622   0.040   6.902 -0.9783  2.1562  1.7753
  171MOL   H25744797   2.803   7.774   6.705 -0.3448  0.3698 -0.4164
  171MOL   H25844798   2.696   7.675   6.802  2.7650 -2.3143  0.1220
  171MOL   H25944799   2.942   7.589   6.704 -0.1377  1.1772  0.0288
  171MOL   H26044800   3.002   7.685   6.836 -0.3922  0.1689  0.6699
  171MOL   H26144801   2.896   7.551   6.876  0.3786 -2.2186 -1.8130
  171MOL   H26244802   2.759   0.149   6.849  0.8079 -0.0894  0.2378
  172MOL     C144803   1.275   6.495   3.081  0.2847  0.1874 -0.3986
  172MOL     C244804   1.365   6.507   2.961 -0.0319 -0.1364  0.5412
  172MOL     O344805   1.458   6.395   2.973  0.1454 -1.0607  1.1173
  172MOL     C444806   1.530   6.354   2.859 -0.4931 -0.3181 -0.5053
  172MOL     C544807   1.567   6.209   2.873 -1.1835  0.0082  0.1052
  172MOL     H644808   1.328   6.488   3.176 -2.0400 -0.0162  0.9228
  172MOL     H744809   1.198   6.572   3.092  1.0614  0.7700  1.2049
  172MOL     H844810   1.300   6.483   2.877 -1.2178 -0.1213  1.4443
  172MOL     H944811   1.615   6.422   2.851 -1.4615  1.2001  1.7235
  172MOL    H1044812   1.464   6.367   2.774 -1.2584 -2.4756 -0.2662
  172MOL    H1144813   1.662   6.203   2.926 -1.7815  0.9962  1.3322
  172MOL    H1244814   1.496   6.148   2.928 -1.8944  0.9845  0.2737
  172MOL    H1344815   1.593   6.156   2.781  0.7882 -1.5776  1.5436
  172MOL    H1444816   1.218   6.402   3.084 -2.1110  1.6233  0.4877
  172MOL    C1544817   1.441   6.641   2.936  0.0394 -0.1734 -0.1751
  172MOL    C1644818   1.341   6.755   2.931  0.4713 -0.3778  0.3606
  172MOL    O1744819   1.237   6.723   2.840  0.3223  0.3250  0.1857
  172MOL    C1844820   1.102   6.774   2.857 -0.5940 -0.2491  0.0903
  172MOL    C1944821   1.018   6.725   2.732  0.2221  0.5463  0.5998
  172MOL    H2044822   1.508   6.637   2.850  0.5162  1.2929  0.1044
  172MOL    H2144823   1.500   6.661   3.025 -1.8792 -0.3178  1.1776
  172MOL    H2244824   1.293   6.774   3.027 -0.5137  2.5933 -0.6497
  172MOL    H2344825   1.102   6.883   2.852  2.7438 -0.1550  1.0328
  172MOL    H2444826   1.049   6.741   2.946 -0.4027  1.8870  1.0425
  172MOL    H2544827   0.990   6.621   2.718 -1.1420  1.0766 -0.8061
  172MOL    H2644828   1.077   6.757   2.646  3.0479 -0.4008  2.0981
  172MOL    H2744829   0.926   6.783   2.730 -0.0431  0.1179  0.3571
  172MOL    C2844830   1.398   6.889   2.885 -0.1839 -0.6008 -0.3386
  172MOL    C2944831   1.483   6.961   2.994  0.0331 -0.0083  0.9328
  172MOL    O3044832   1.391   6.996   3.097  0.2955 -0.4919 -0.0744
  172MOL    C3144833   1.444   7.031   3.226  0.0435 -0.0988  0.0392
  172MOL    C3244834   1.475   6.908   3.306  0.3122  0.3066 -0.0107
  172MOL    H3344835   1.317   6.956   2.856 -0.2043 -0.2675  0.4703
  172MOL    H3444836   1.460   6.869   2.797  3.0499  2.5207  1.0867
  172MOL    H3544837   1.554   6.885   3.026 -0.0649  0.1755  1.5955
  172MOL    H3644838   1.364   7.086   3.277 -2.1733 -1.2334 -2.0964
  172MOL    H3744839   1.535   7.091   3.224 -0.5509  0.8209  0.2451
  172MOL    H3844840   1.398   6.834   3.285  0.5845  0.5406 -2.0167
  172MOL    H3944841   1.569   6.865   3.273 -0.1302 -1.1324  0.5675
  172MOL    H4044842   1.471   6.932   3.412  2.0779 -0.6382  0.2746
  172MOL    C4144843   1.540   7.086   2.926  0.0450 -0.2982 -0.7567
  172MOL    C4244844   1.638   7.183   2.998  0.3907  0.2792 -0.2611
  172MOL    O4344845   1.695   7.253   2.892 -0.4487 -0.0174 -0.3095
  172MOL    C4444846   1.690   7.395   2.901  0.5249  0.3162  0.2215
  172MOL    C4544847   1.774   7.444   2.787 -0.6875 -0.8990 -0.3153
  172MOL    H4644848   1.445   7.136   2.908  0.0392 -0.1702 -0.3703
  172MOL    H4744849   1.575   7.053   2.828 -0.7579 -1.9864 -0.5013
  172MOL    H4844850   1.585   7.245   3.070 -1.1952 -1.2351 -0.0618
  172MOL    H4944851   1.723   7.439   2.996 -2.0162  0.5456  1.0267
  172MOL    H5044852   1.586   7.429   2.900  0.5016  0.2773 -2.0018
  172MOL    H5144853   1.781   7.552   2.783  0.4132 -0.9677 -0.5514
  172MOL    H5244854   1.872   7.396   2.799 -1.0234 -1.1538  1.6023
  172MOL    H5344855   1.728   7.421   2.691 -2.2312 -0.2671  0.2590
  172MOL    C5444856   1.747   7.098   3.072  0.6350 -0.3950 -0.2180
  172MOL    C5544857   1.856   7.185   3.139 -0.6962 -0.3668 -0.1820
  172MOL    O5644858   1.939   7.085   3.192  0.4049  0.4309  0.2010
  172MOL    C5744859   2.060   7.056   3.129 -0.1562  0.0670  0.4033
  172MOL    C5844860   2.139   6.957   3.212  0.1913  0.1828  0.2940
  172MOL    H5944861   1.782   7.027   2.997  1.2474 -0.1405 -0.1746
  172MOL    H6044862   1.702   7.029   3.144 -0.9565  0.6104 -0.2061
  172MOL    H6144863   1.899   7.245   3.059 -1.1147 -1.5117 -1.2857
  172MOL    H6244864   2.108   7.153   3.113 -0.6987  0.7917  2.9273
  172MOL    H6344865   2.044   7.008   3.032  1.9683 -0.5276  0.3240
  172MOL    H6444866   2.085   6.873   3.255  0.2405  1.7397  3.5522
  172MOL    H6544867   2.227   6.923   3.159 -0.0612  0.8338 -0.5621
  172MOL    H6644868   2.191   7.008   3.294 -0.9273  0.4961  0.8272
  172MOL    C6744869   1.806   7.274   3.260  0.3666  0.6458 -0.2689
  172MOL    C6844870   1.921   7.353   3.325  0.4872 -0.6832  0.2538
  172MOL    O6944871   1.877   7.399   3.448 -0.0140  0.0569  0.4650
  172MOL    C7044872   1.903   7.309   3.553  0.0606  0.4022 -0.0163
  172MOL    C7144873   1.930   7.377   3.685  0.6126  0.4590 -1.0825
  172MOL    H7244874   1.759   7.219   3.342  3.5704  1.0930  1.9744
  172MOL    H7344875   1.730   7.342   3.222 -0.8797  0.4851  1.8622
  172MOL    H7444876   2.013   7.295   3.334  0.0770 -0.9781  2.8830
  172MOL    H7544877   1.985   7.242   3.528 -0.9510 -0.9959  0.2979
  172MOL    H7644878   1.813   7.247   3.558  0.3159  0.1071  1.1044
  172MOL    H7744879   1.864   7.463   3.691 -1.7232 -1.3295 -0.7213
  172MOL    H7844880   1.926   7.308   3.769  0.4567  1.0822 -0.5765
  172MOL    H7944881   2.028   7.424   3.695  0.5288  0.1812  1.5304
  172MOL    C8044882   1.955   7.488   3.252 -0.7048 -0.5241  0.0303
  172MOL    C8144883   2.075   7.572   3.309  0.2332  0.4761  0.7303
  172MOL    O8244884   2.075   7.693   3.236  0.2758  0.6542  0.5968
  172MOL    C8344885   1.994   7.803   3.284  0.1210  0.4803 -0.0237
  172MOL    C8444886   1.975   0.058   3.178  0.3225  0.5110 -0.1311
  172MOL    H8544887   1.870   7.556   3.255  0.4732  1.0934 -1.9229
  172MOL    H8644888   1.970   7.468   3.146  1.7025  0.9839  0.0547
  172MOL    H8744889   2.050   7.604   3.410 -1.0291  1.3084  0.1821
  172MOL    H8844890   2.048   0.009   3.364  0.6732  0.2635 -0.2604
  172MOL    H8944891   1.896   7.781   3.328  0.9574 -1.1873  1.0677
  172MOL    H9044892   1.918   0.017   3.095 -1.7967 -1.5334  2.2489
  172MOL    H9144893   1.901   0.127   3.219 -0.2055 -0.8367  1.2329
  172MOL    H9244894   2.060   0.104   3.129  0.5279  0.7655  0.4653
  172MOL    C9344895   2.215   7.508   3.278  0.3032  0.5916  0.4580
  172MOL    C9444896   2.322   7.513   3.391 -0.0746 -0.5323 -0.2115
  172MOL    O9544897   2.450   7.559   3.337  0.2113 -0.2066  0.0035
  172MOL    C9644898   2.457   7.702   3.306 -0.9211 -0.0097 -0.0515
  172MOL    C9744899   2.550   7.714   3.184 -0.5713 -0.8607 -0.1117
  172MOL    H9844900   2.256   7.553   3.188  3.4404 -1.6575  0.6925
  172MOL    H9944901   2.208   7.405   3.244 -1.8106  0.9308 -0.1658
  172MOL   H10044902   2.303   7.592   3.464  1.7276  0.2664 -0.5810
  172MOL   H10144903   2.501   7.753   3.392 -0.4873  0.1684 -0.3786
  172MOL   H10244904   2.358   7.746   3.290 -1.2584 -0.0841  1.7049
  172MOL   H10344905   2.650   7.688   3.218 -0.3433 -0.9286 -0.8269
  172MOL   H10444906   2.518   7.663   3.093 -0.2903 -0.2408 -0.5622
  172MOL   H10544907   2.556   7.818   3.152  0.7249  0.0483  2.9270
  172MOL   C10644908   2.336   7.380   3.471 -0.4816 -0.3110 -0.0113
  172MOL   C10744909   2.429   7.272   3.412 -0.2289  0.4738 -0.0499
  172MOL   O10844910   2.421   7.240   3.273 -0.0261 -0.3541 -0.2166
  172MOL   C10944911   2.541   7.200   3.206  0.0912  0.1501 -0.1932
  172MOL   C11044912   2.504   7.161   3.058 -0.0475  0.1804  0.3586
  172MOL   H11144913   2.240   7.335   3.497 -0.2215 -0.4922  0.6479
  172MOL   H11244914   2.393   7.399   3.562  0.8937  1.6744 -1.2312
  172MOL   H11344915   2.532   7.307   3.421  0.7495 -2.6609  1.7130
  172MOL   H11444916   2.581   7.115   3.262  0.5196 -0.6207 -1.6309
  172MOL   H11544917   2.613   7.279   3.227  1.4501 -1.2568  0.5537
  172MOL   H11644918   2.448   7.243   3.013  1.9217  1.0648 -0.5830
  172MOL   H11744919   2.603   7.144   3.015 -0.2527  1.9256 -0.8687
  172MOL   H11844920   2.437   7.076   3.054 -2.0688  1.7425  0.4729
  172MOL   C11944921   2.427   7.143   3.494 -0.2974  0.3491  0.0857
  172MOL   C12044922   2.538   7.137   3.604  0.1453 -0.8292 -0.1106
  172MOL   O12144923   2.662   7.163   3.544 -0.0204  0.3827  0.2817
  172MOL   C12244924   2.734   7.261   3.617 -0.3785 -0.4414 -0.6860
  172MOL   C12344925   2.860   7.279   3.538  0.4887 -0.7928 -0.1000
  172MOL   H12444926   2.435   7.061   3.422  0.1102  0.1235  0.3845
  172MOL   H12544927   2.329   7.119   3.536 -0.1874  2.3669  1.5412
  172MOL   H12644928   2.511   7.208   3.682 -0.7009 -0.8860 -0.3374
  172MOL   H12744929   2.755   7.239   3.722  0.2395 -1.3163 -0.9841
  172MOL   H12844930   2.668   7.347   3.611  2.4747  1.7562 -1.8805
  172MOL   H12944931   2.940   7.328   3.593  0.9848 -0.0688 -1.4484
  172MOL   H13044932   2.888   7.184   3.491  2.3444 -0.9758  1.3484
  172MOL   H13144933   2.833   7.338   3.451 -1.7848 -2.3016 -0.4800
  172MOL   C13244934   2.547   7.004   3.678  0.3893  0.2131 -0.2796
  172MOL   C13344935   2.422   6.950   3.761 -0.5539 -0.0095 -0.3311
  172MOL   O13444936   2.420   7.033   3.879  0.6628 -0.0668 -0.8864
  172MOL   C13544937   2.289   7.072   3.927 -1.2209 -0.3004  0.1699
  172MOL   C13644938   2.237   7.202   3.862  0.2815  0.1297 -0.6446
  172MOL   H13744939   2.629   7.012   3.750  0.6518 -0.2789 -0.5232
  172MOL   H13844940   2.577   6.926   3.608 -1.3785 -0.0968 -0.7107
  172MOL   H13944941   2.330   6.962   3.704 -0.3757  0.8555 -0.4470
  172MOL   H14044942   2.292   7.067   4.035  1.7326  0.3000  0.1598
  172MOL   H14144943   2.220   6.992   3.900 -0.8885 -1.1675  1.8162
  172MOL   H14244944   2.306   7.277   3.901 -0.3827  0.0375  0.7533
  172MOL   H14344945   2.255   7.203   3.755 -1.5359 -1.8464 -0.9787
  172MOL   H14444946   2.141   7.225   3.908  0.6844 -2.9049  1.9236
  172MOL   C14544947   2.433   6.811   3.821 -0.0468 -0.1508 -0.3739
  172MOL   C14644948   2.410   6.702   3.714  0.2881 -0.1008  0.4941
  172MOL   O14744949   2.275   6.708   3.674 -0.2448  0.0832  0.1001
  172MOL   C14844950   2.240   6.653   3.546  0.3850  0.2484  0.0540
  172MOL   C14944951   2.277   6.759   3.442 -0.0354 -0.7333  0.5461
  172MOL   H15044952   2.371   6.810   3.911 -0.4897 -0.3552 -0.6810
  172MOL   H15144953   2.530   6.795   3.869 -0.1346  1.9107  0.5100
  172MOL   H15244954   2.475   6.727   3.631 -0.2249 -1.5404 -0.3624
  172MOL   H15344955   2.133   6.637   3.559  0.1476  2.9252  1.7185
  172MOL   H15444956   2.291   6.558   3.529  0.6765  0.6623 -1.4483
  172MOL   H15544957   2.229   6.743   3.345 -0.1124 -0.9900  0.6262
  172MOL   H15644958   2.231   6.854   3.471  1.2106  0.7966 -2.2640
  172MOL   H15744959   2.379   6.797   3.445 -0.1937 -0.1515 -1.1479
  172MOL   C15844960   2.437   6.548   3.752  0.0160  0.0849  0.3318
  172MOL   C15944961   2.574   6.484   3.708 -0.5516 -0.1877 -0.0438
  172MOL   O16044962   2.580   6.491   3.563 -0.1231  0.2381  0.5970
  172MOL   C16144963   2.678   6.578   3.502  0.0652  0.0985 -0.3709
  172MOL   C16244964   2.682   6.555   3.349 -0.5704 -0.3369 -0.2857
  172MOL   H16344965   2.351   6.489   3.720  0.0710 -0.2634  0.8240
  172MOL   H16444966   2.426   6.547   3.861 -2.2602  0.5729  0.1386
  172MOL   H16544967   2.652   6.553   3.742 -1.1873  0.5867 -0.1343
  172MOL   H16644968   2.776   6.552   3.543 -0.5556  0.0761  1.0993
  172MOL   H16744969   2.662   6.683   3.522  1.4686  0.3883 -0.7225
  172MOL   H16844970   2.773   6.585   3.296  0.1247  0.8146  1.5335
  172MOL   H16944971   2.672   6.447   3.335  1.1591 -0.8406  1.9653
  172MOL   H17044972   2.592   6.596   3.305 -0.5171  0.1807  0.0873
  172MOL   C17144973   2.580   6.348   3.762 -0.2146 -0.0602  0.2429
  172MOL   C17244974   2.728   6.307   3.746 -0.2735 -0.0685 -0.3970
  172MOL   O17344975   2.731   6.174   3.697  0.0406  0.0927 -0.3005
  172MOL   C17444976   2.728   6.154   3.558  0.0438 -0.4661  0.0839
  172MOL   C17544977   2.736   6.007   3.519 -0.3684  0.0940  0.3497
  172MOL   H17644978   2.525   6.268   3.712  1.2607 -0.1919 -1.2337
  172MOL   H17744979   2.544   6.329   3.863  0.2415 -2.0262  0.0560
  172MOL   H17844980   2.780   6.375   3.680  1.6769 -0.0838  1.0782
  172MOL   H17944981   2.802   6.217   3.509  0.6602 -0.4224  1.0619
  172MOL   H18044982   2.638   6.191   3.508 -0.3569 -0.9170  0.4686
  172MOL   H18144983   2.644   5.952   3.536  0.9342 -1.8382  1.2985
  172MOL   H18244984   2.754   6.001   3.411  0.7827 -0.6901  0.5719
  172MOL   H18344985   2.820   5.961   3.571  0.0737  2.9687  2.2268
  172MOL   C18444986   2.812   6.312   3.877  0.3771 -0.1292  0.0905
  172MOL   C18544987   2.856   6.453   3.921  0.3705 -0.1060 -0.0870
  172MOL   O18644988   2.747   6.540   3.964 -0.1809  0.4167  0.1053
  172MOL   C18744989   2.673   6.510   4.083 -0.4332  0.1496  0.6434
  172MOL   C18844990   2.606   6.636   4.131 -0.2077  0.3580  0.3242
  172MOL   H18944991   2.908   6.263   3.866  0.6027 -0.1897  2.1025
  172MOL   H19044992   2.761   6.262   3.959  0.0017  0.7013  0.3757
  172MOL   H19144993   2.917   6.449   4.011 -1.2127  2.4074  1.1534
  172MOL   H19244994   2.748   6.483   4.156  0.0081 -0.2605  0.0416
  172MOL   H19344995   2.604   6.428   4.065  0.5802 -0.4512 -0.5934
  172MOL   H19444996   2.559   6.607   4.225  0.8068 -0.2337  0.6513
  172MOL   H19544997   2.667   6.726   4.144  0.3069  0.2637 -1.3161
  172MOL   H19644998   2.516   6.656   4.072 -0.1524  1.5826  0.6421
  172MOL   C19744999   2.950   6.530   3.828  0.3817  0.1283  0.1889
  172MOL   C19845000   3.012   6.662   3.891 -0.1019 -0.5417  0.9640
  172MOL   O19945001   3.042   6.748   3.782  0.2754 -0.0205  0.1058
  172MOL   C20045002   2.937   6.835   3.737  0.2783 -0.6867 -0.0674
  172MOL   C20145003   3.005   6.907   3.627 -0.3438 -0.4397 -0.0779
  172MOL   H20245004   2.894   6.562   3.739 -0.3749 -1.8530 -0.0637
  172MOL   H20345005   3.028   6.464   3.792  0.7550  0.2704  0.7452
  172MOL   H20445006   2.947   6.725   3.953  2.0168  0.4027  2.2683
  172MOL   H20545007   2.914   6.900   3.822  0.7548 -1.7877  0.9077
  172MOL   H20645008   2.838   6.792   3.721 -0.1635 -0.1626  1.1888
  172MOL   H20745009   3.093   6.960   3.664 -0.6955  1.3636 -1.7483
  172MOL   H20845010   3.027   6.841   3.543  1.3643 -2.9194  2.2047
  172MOL   H20945011   2.931   6.975   3.585  0.4084  0.8296  0.6305
  172MOL   C21045012   3.154   6.653   3.958  0.1517 -0.5576 -0.0697
  172MOL   C21145013   3.209   6.772   4.035  0.0904 -0.0128 -0.7784
  172MOL   O21245014   3.348   6.745   4.061 -0.1578 -0.2688  0.3135
  172MOL   C21345015   3.429   6.788   3.948  0.0117 -0.8058 -0.0134
  172MOL   C21445016   3.570   6.727   3.964 -0.0103 -0.3544 -0.1183
  172MOL   H21545017   3.217   6.624   3.875  0.4094  0.7829 -0.3442
  172MOL   H21645018   3.149   6.568   4.026  3.8266 -1.4904 -0.8914
  172MOL   H21745019   3.200   6.861   3.973 -0.9633 -0.7493 -1.7248
  172MOL   H21845020   3.439   6.897   3.948  1.1472 -0.8978  0.7558
  172MOL   H21945021   3.393   6.742   3.856 -0.4662  1.1865 -0.8464
  172MOL   H22045022   3.618   6.751   4.059  0.1928  0.4567 -0.4267
  172MOL   H22145023   3.585   6.619   3.961  0.1277 -0.3513  0.4086
  172MOL   H22245024   3.634   6.766   3.886  0.0844  1.3512  0.7911
  172MOL   C22345025   3.135   6.809   4.162  0.4655 -1.4105 -0.9484
  172MOL   C22445026   3.117   6.703   4.274 -0.0850  0.0232  0.1219
  172MOL   O22545027   3.030   6.758   4.363 -0.4831 -0.4580 -0.4383
  172MOL   C22645028   2.904   6.717   4.367  0.2785 -0.4464  0.0441
  172MOL   C22745029   2.828   6.818   4.455  0.3178 -0.5958 -0.4549
  172MOL   H22845030   3.031   6.832   4.140  0.3977  2.4709  2.8296
  172MOL   H22945031   3.172   6.907   4.193 -1.0644 -0.5434 -1.8297
  172MOL   H23045032   3.083   6.609   4.232  0.1534  0.3770 -0.8836
  172MOL   H23145033   2.898   6.615   4.407 -0.9487 -0.8936 -1.2238
  172MOL   H23245034   2.852   6.706   4.272 -0.6326 -3.6668  0.8536
  172MOL   H23345035   2.727   6.793   4.485  1.1100 -0.8582  2.1636
  172MOL   H23445036   2.869   6.831   4.555 -0.6376  2.1109 -0.3876
  172MOL   H23545037   2.846   6.920   4.421 -2.8823  0.5005  1.0096
  172MOL   C23645038   3.253   6.683   4.356  0.2271  0.1113 -0.0350
  172MOL   C23745039   3.249   6.576   4.462 -0.4709 -0.0600 -0.1042
  172MOL   O23845040   3.377   6.555   4.512  0.3436 -0.2465  0.3516
  172MOL   C23945041   3.393   6.529   4.656 -0.6161 -0.0476 -0.1363
  172MOL   C24045042   3.537   6.471   4.676  0.5137 -0.0409  0.3798
  172MOL   H24145043   3.287   6.772   4.410 -2.6373  0.8167  0.7029
  172MOL   H24245044   3.337   6.667   4.289  0.0753  1.0728 -0.4681
  172MOL   H24345045   3.175   6.604   4.537 -1.2932  2.6640 -1.8524
  172MOL   H24445046   3.320   6.451   4.680  1.8668 -2.6234 -0.7003
  172MOL   H24545047   3.375   6.620   4.713 -2.6212  0.8175 -2.0678
  172MOL   H24645048   3.617   6.542   4.657 -1.8094  2.4529 -0.4861
  172MOL   H24745049   3.546   6.445   4.781  1.2432 -1.0712  0.0743
  172MOL   H24845050   3.548   6.387   4.607 -0.8144  0.9504 -1.0816
  172MOL   C24945051   3.212   6.434   4.400  0.2070 -0.8885  0.2586
  172MOL   C25045052   3.290   6.393   4.279  0.1224  0.2608  0.4850
  172MOL   O25145053   3.222   6.281   4.219 -0.1132  0.0529 -0.0808
  172MOL   C25245054   3.247   6.269   4.085  0.0015 -0.1199 -0.3675
  172MOL   C25345055   3.182   6.151   4.028  0.3749  0.0133  0.3602
  172MOL   H25445056   3.106   6.444   4.374  0.1601 -3.1395 -0.4561
  172MOL   H25545057   3.215   6.356   4.476 -1.5272 -1.0095  0.2407
  172MOL   H25645058   3.293   6.468   4.200  1.7102 -0.5766 -0.2553
  172MOL   H25745059   3.353   6.242   4.083 -0.0380 -0.2495 -1.5726
  172MOL   H25845060   3.223   6.362   4.032 -1.8503 -0.6268 -0.4271
  172MOL   H25945061   3.202   6.156   3.921 -1.8599  0.5677 -0.0564
  172MOL   H26045062   3.237   6.065   4.067  0.1033  1.5209  4.3015
  172MOL   H26145063   3.073   6.150   4.033  0.3044  0.7464 -0.9467
  172MOL   H26245064   3.393   6.380   4.309  0.2588 -1.4585 -0.6776
  173MOL     C145065   3.285   6.734   0.488  0.5790  0.8990  0.4034
  173MOL     C245066   3.424   6.782   0.501 -0.0876  0.4190  0.5704
  173MOL     O345067   3.471   6.832   0.373 -0.4009 -0.6824  0.0750
  173MOL     C445068   3.429   6.960   0.326  0.1886  0.3666 -0.5146
  173MOL     C545069   3.553   7.017   0.261  0.2067 -0.1538  0.0117
  173MOL     H645070   3.290   6.667   0.402 -0.4931 -0.1218  1.1311
  173MOL     H745071   3.250   6.677   0.574 -1.2151  0.6743 -0.4610
  173MOL     H845072   3.437   6.859   0.577  0.6426  0.4397  0.4209
  173MOL     H945073   3.395   7.033   0.400  2.1167  0.8444 -0.0631
  173MOL    H1045074   3.344   6.941   0.260 -1.4427  0.0475  1.6030
  173MOL    H1145075   3.632   7.041   0.332 -0.1271 -0.4490  0.4856
  173MOL    H1245076   3.602   6.962   0.181  0.8734 -1.9368  1.6117
  173MOL    H1345077   3.523   7.117   0.230  0.1193 -1.1578 -3.3493
  173MOL    H1445078   3.223   6.821   0.467  2.0564  1.3036 -2.6750
  173MOL    C1545079   3.524   6.667   0.525 -0.0013 -0.6884  0.2360
  173MOL    C1645080   3.503   6.584   0.656 -0.4596  0.3583 -0.0929
  173MOL    O1745081   3.475   6.667   0.768 -0.0669 -0.8556  0.3097
  173MOL    C1845082   3.406   6.607   0.879 -0.5865  0.1134 -0.4859
  173MOL    C1945083   3.430   6.697   0.999  0.5506 -0.1541 -1.2825
  173MOL    H2045084   3.624   6.710   0.520  0.0651 -0.8050  0.5383
  173MOL    H2145085   3.529   6.595   0.444 -2.6037  0.5064 -1.0513
  173MOL    H2245086   3.409   6.529   0.652 -0.3353  0.1685 -0.5498
  173MOL    H2345087   3.423   6.504   0.911  2.5100  1.4808  2.6013
  173MOL    H2445088   3.299   6.601   0.859 -0.3245 -2.6078 -1.3335
  173MOL    H2545089   3.384   6.660   1.091  0.4512  3.3198  0.1534
  173MOL    H2645090   3.371   6.788   0.997  1.1387  0.2838  0.4080
  173MOL    H2745091   3.537   6.712   1.017  0.5036 -1.8479  0.7071
  173MOL    C2845092   3.615   6.490   0.680  0.7580 -0.5452  0.0018
  173MOL    C2945093   3.658   6.383   0.572  0.2470 -0.8272 -1.0073
  173MOL    O3045094   3.539   6.334   0.503 -0.7857 -0.1197  0.1796
  173MOL    C3145095   3.551   6.269   0.372  0.5668  0.2708 -0.5942
  173MOL    C3245096   3.425   6.310   0.291 -0.2749  0.2716 -0.1078
  173MOL    H3345097   3.575   6.433   0.764 -0.4579  1.1129  0.5815
  173MOL    H3445098   3.702   6.548   0.710  1.0826 -0.3741 -1.2465
  173MOL    H3545099   3.726   6.427   0.499  1.1728 -2.5084 -1.1868
  173MOL    H3645100   3.552   6.161   0.390  0.1556  0.4442  0.4983
  173MOL    H3745101   3.642   6.292   0.317 -1.4572  1.7021 -3.4586
  173MOL    H3845102   3.334   6.305   0.351 -1.2309  0.3122 -1.5375
  173MOL    H3945103   3.442   6.417   0.278 -1.9889  0.5207 -0.4467
  173MOL    H4045104   3.436   6.251   0.201 -1.1396 -0.1790  0.0790
  173MOL    C4145105   3.741   6.268   0.624  0.3746  0.8894 -0.8995
  173MOL    C4245106   3.872   6.304   0.712 -0.0346 -0.2627 -0.2599
  173MOL    O4345107   3.959   6.390   0.639 -0.4080 -0.0197  0.3540
  173MOL    C4445108   4.023   6.481   0.729  0.3725 -0.1381  0.4689
  173MOL    C4545109   4.071   6.593   0.635  0.0512  0.2708  0.1555
  173MOL    H4645110   3.776   6.207   0.541  2.7100 -0.5017  1.0307
  173MOL    H4745111   3.686   6.192   0.680 -0.4802  1.1907 -1.3356
  173MOL    H4845112   3.832   6.345   0.805 -2.2470 -0.0806 -1.2433
  173MOL    H4945113   4.107   6.439   0.784  0.1121 -0.8452  0.3324
  173MOL    H5045114   3.953   6.529   0.797  0.8507 -0.5338  1.2437
  173MOL    H5145115   4.124   6.674   0.686 -0.3388  0.5459  0.1302
  173MOL    H5245116   4.107   6.568   0.535 -1.0175  1.8657 -0.6622
  173MOL    H5345117   3.981   6.645   0.602 -0.7127 -1.3723 -0.3825
  173MOL    C5445118   3.953   6.177   0.747  0.1654  0.0195 -0.2299
  173MOL    C5545119   3.915   6.103   0.872 -0.0785  0.0764  0.7938
  173MOL    O5645120   3.960   6.181   0.987 -0.0849 -0.3625  0.0364
  173MOL    C5745121   3.854   6.211   1.079 -0.2290  0.5541 -0.0262
  173MOL    C5845122   3.900   6.288   1.194 -0.0586 -0.3855 -0.0854
  173MOL    H5945123   4.060   6.201   0.744  0.5902 -1.6357  0.9083
  173MOL    H6045124   3.940   6.109   0.663 -0.4990  0.1128 -0.2044
  173MOL    H6145125   3.806   6.098   0.882 -0.5594  0.9294 -3.0586
  173MOL    H6245126   3.820   6.111   1.105 -0.2752  0.7835  0.8142
  173MOL    H6345127   3.773   6.270   1.036 -1.9175 -0.2833  1.9427
  173MOL    H6445128   3.960   6.371   1.157  0.9128 -0.8830  0.3785
  173MOL    H6545129   3.805   6.305   1.246 -0.5137  0.6209 -1.2249
  173MOL    H6645130   3.951   6.225   1.267  3.6046  3.2291  0.6868
  173MOL    C6745131   3.980   5.959   0.884 -1.1684  0.1883  0.2046
  173MOL    C6845132   3.932   5.856   0.775  0.5735  0.2471 -0.3224
  173MOL    O6945133   3.996   5.883   0.654  0.3471 -0.5102  0.2901
  173MOL    C7045134   4.121   5.831   0.638 -0.0182 -0.2460  0.4321
  173MOL    C7145135   4.182   5.896   0.510 -0.1290 -0.3365 -0.2859
  173MOL    H7245136   3.952   5.915   0.980  0.2574 -3.1682 -0.8269
  173MOL    H7345137   4.088   5.969   0.892 -1.3480  1.6953  0.8130
  173MOL    H7445138   3.962   5.754   0.801 -1.6449 -0.1076  0.9585
  173MOL    H7545139   4.111   5.722   0.636  0.8807 -0.3348  0.7575
  173MOL    H7645140   4.186   5.857   0.721  1.0248  0.6838 -0.6688
  173MOL    H7745141   4.144   5.872   0.411 -0.3181 -0.5036 -0.1746
  173MOL    H7845142   4.194   6.004   0.517  0.9914 -0.3720 -1.5056
  173MOL    H7945143   4.278   5.845   0.506 -0.4582 -0.8876 -1.4269
  173MOL    C8045144   3.775   5.841   0.772  0.1656  0.1097  0.2939
  173MOL    C8145145   3.722   5.713   0.702 -0.4100 -0.0058  0.2843
  173MOL    O8245146   3.583   5.741   0.674  0.6277  0.6159  0.5898
  173MOL    C8345147   3.561   5.783   0.542 -0.5284 -0.2820  0.1245
  173MOL    C8445148   3.423   5.853   0.526  0.0071 -0.5099 -0.1725
  173MOL    H8545149   3.730   5.928   0.724  1.0720  0.2849 -0.2293
  173MOL    H8645150   3.745   5.850   0.877 -0.2959  0.9401  0.1023
  173MOL    H8745151   3.786   5.686   0.618 -1.7218 -2.0151 -0.1034
  173MOL    H8845152   3.557   5.698   0.473 -2.2556  0.7663 -1.1224
  173MOL    H8945153   3.640   5.850   0.511 -0.6406  0.7992  2.1289
  173MOL    H9045154   3.428   5.953   0.569  1.0311 -1.0533  1.0218
  173MOL    H9145155   3.383   5.862   0.425 -0.2595 -1.9526 -0.2136
  173MOL    H9245156   3.348   5.802   0.586 -0.3036 -2.9067 -2.4995
  173MOL    C9345157   3.714   5.591   0.793  0.4929  0.0500  0.4192
  173MOL    C9445158   3.691   5.461   0.705  0.0983  0.6286  0.1695
  173MOL    O9545159   3.644   5.358   0.793  0.3778  0.4046 -0.5039
  173MOL    C9645160   3.508   5.330   0.802  0.4756  0.3773 -0.4304
  173MOL    C9745161   3.499   5.224   0.909  0.0215  0.4568 -0.6262
  173MOL    H9845162   3.627   5.608   0.857  0.9535 -0.4209  1.1868
  173MOL    H9945163   3.797   5.573   0.861 -1.1705 -0.8849  2.2757
  173MOL   H10045164   3.611   5.482   0.634 -0.1367 -0.0205  0.2400
  173MOL   H10145165   3.473   5.288   0.708  0.4958  0.6792 -0.5739
  173MOL   H10245166   3.449   5.419   0.820 -0.2541 -0.0381 -0.7482
  173MOL   H10345167   3.578   5.149   0.908 -1.6196 -1.3144 -0.2007
  173MOL   H10445168   3.508   5.276   1.005 -0.3921 -0.7579  0.0826
  173MOL   H10545169   3.399   5.182   0.903 -0.1361  1.0386 -2.0406
  173MOL   C10645170   3.814   5.407   0.634 -0.3750  0.2206 -0.7271
  173MOL   C10745171   3.801   5.293   0.526 -0.1144 -0.4618 -0.5566
  173MOL   O10845172   3.928   5.258   0.484  0.1210 -0.3265 -0.4804
  173MOL   C10945173   3.964   5.117   0.488  0.2315  0.1409  0.1453
  173MOL   C11045174   4.076   5.090   0.387  0.1422 -0.0764  0.5871
  173MOL   H11145175   3.886   5.379   0.711  2.0609  1.8259 -2.3429
  173MOL   H11245176   3.855   5.493   0.581 -1.2591  1.6970  0.9279
  173MOL   H11345177   3.754   5.203   0.565  0.2650 -0.2369  0.4541
  173MOL   H11445178   3.881   5.054   0.457  1.2340 -0.6841 -0.8952
  173MOL   H11545179   3.995   5.084   0.587  1.4071 -1.0118 -0.5847
  173MOL   H11645180   4.168   5.136   0.422 -1.6227  0.1611  5.1857
  173MOL   H11745181   4.083   4.984   0.364 -0.3965  0.6853 -3.4434
  173MOL   H11845182   4.052   5.130   0.288 -1.3911 -1.2803  0.4445
  173MOL   C11945183   3.718   5.341   0.402  0.0639 -0.1802  0.2922
  173MOL   C12045184   3.789   5.422   0.295 -0.3074 -0.7229  0.5841
  173MOL   O12145185   3.798   5.548   0.352  0.2127  0.4687 -0.0918
  173MOL   C12245186   3.901   5.627   0.298 -0.6411 -0.6035  0.0597
  173MOL   C12345187   3.874   5.770   0.336 -0.3653  0.2132 -0.5216
  173MOL   H12445188   3.626   5.389   0.436  0.0658  1.1124 -1.4239
  173MOL   H12545189   3.683   5.254   0.346 -2.0485  0.0132  1.2700
  173MOL   H12645190   3.891   5.389   0.276  0.7539  2.5233  0.2646
  173MOL   H12745191   3.909   5.635   0.189 -1.0789  0.7185  0.1260
  173MOL   H12845192   3.999   5.589   0.330 -0.5427  0.9325  1.6216
  173MOL   H12945193   3.926   5.840   0.272 -1.2104 -0.1960 -1.6766
  173MOL   H13045194   3.767   5.791   0.332 -0.8383 -1.9705 -0.0438
  173MOL   H13145195   3.899   5.788   0.441 -0.1596 -1.0050 -0.3543
  173MOL   C13245196   3.701   5.422   0.166  0.2033  0.3568 -0.1358
  173MOL   C13345197   3.712   5.303   0.070 -0.1514  0.5264  0.2351
  173MOL   O13445198   3.833   5.330   7.839  0.1113  0.0849 -0.0128
  173MOL   C13545199   3.887   5.223   7.758  0.0865  0.4483 -0.2188
  173MOL   C13645200   4.039   5.273   7.742 -0.0362 -0.1406 -0.1677
  173MOL   H13745201   3.736   5.507   0.107  0.5591  0.7591  0.6399
  173MOL   H13845202   3.598   5.447   0.192  0.2033  0.6603 -0.4139
  173MOL   H13945203   3.731   5.218   0.136  0.3514  0.6671  0.2765
  173MOL   H14045204   3.826   5.227   7.668 -1.1577  0.6702  0.6249
  173MOL   H14145205   3.873   5.127   7.807  1.7212 -0.8986 -2.3027
  173MOL   H14245206   4.089   5.204   7.674  1.0342 -0.4181  0.8861
  173MOL   H14345207   4.052   5.367   7.688 -0.6252  0.0028 -0.0578
  173MOL   H14445208   4.099   5.275   7.832 -0.6860  1.4221  0.2455
  173MOL   C14545209   3.586   5.286   7.832  0.6913 -0.1297 -0.1400
  173MOL   C14645210   3.526   5.414   7.764 -0.0549 -0.5923  0.8351
  173MOL   O14745211   3.388   5.393   7.720 -0.9968  0.4331  0.2155
  173MOL   C14845212   3.288   5.397   7.831 -0.2890  0.1425 -0.1750
  173MOL   C14945213   3.143   5.390   7.772  0.0994 -0.3808 -0.5299
  173MOL   H15045214   3.508   5.258   0.059  1.8116 -1.9578  0.3899
  173MOL   H15145215   3.608   5.203   7.764  2.0608  0.9982 -1.1126
  173MOL   H15245216   3.523   5.501   7.831  0.7337 -1.3571  1.8806
  173MOL   H15345217   3.310   5.487   0.045 -0.5156  0.7327 -1.0131
  173MOL   H15445218   3.295   5.312   0.055  0.3223  0.5991  0.3413
  173MOL   H15545219   3.120   5.486   7.726 -1.7496  0.0183  1.1644
  173MOL   H15645220   3.118   5.312   7.700 -1.1614 -0.4329 -0.0443
  173MOL   H15745221   3.074   5.376   0.012  0.8018  0.8734  0.2866
  173MOL   C15845222   3.616   5.449   7.640 -0.2645  0.6025  0.4495
  173MOL   C15945223   3.579   5.579   7.560  0.6682  0.0886 -0.1713
  173MOL   O16045224   3.659   5.601   7.449  0.6500  0.2248 -0.0065
  173MOL   C16145225   3.689   5.483   7.370  0.3196  0.4101 -0.1202
  173MOL   C16245226   3.741   5.532   7.241 -0.1681 -0.2866 -0.0830
  173MOL   H16345227   3.609   5.364   7.573 -2.2125  2.2838 -1.5467
  173MOL   H16445228   3.716   5.464   7.681 -0.4107  0.1604  0.9817
  173MOL   H16545229   3.478   5.567   7.522  1.1581 -0.6747 -1.2658
  173MOL   H16645230   3.596   5.428   7.358 -0.1730  1.0402  0.8212
  173MOL   H16745231   3.762   5.421   7.423  0.2568  0.4427  0.0040
  173MOL   H16845232   3.674   5.582   7.170 -0.0654 -1.8827 -1.3318
  173MOL   H16945233   3.838   5.582   7.240  0.4454 -1.2923  3.2882
  173MOL   H17045234   3.759   5.439   7.187  1.3844 -1.3702  2.2768
  173MOL   C17145235   3.580   5.703   7.654 -0.6687  0.3608  0.3362
  173MOL   C17245236   3.715   5.744   7.727 -0.0076 -0.2625  0.2945
  173MOL   O17345237   3.691   5.867   7.804  0.6400 -0.5251  0.0587
  173MOL   C17445238   3.623   5.841   0.085 -0.5939 -0.9802  0.1825
  173MOL   C17545239   3.611   5.973   0.160 -0.3710 -0.4627 -0.9886
  173MOL   H17645240   3.505   5.689   7.732 -0.4462 -2.6019  0.0716
  173MOL   H17745241   3.549   5.782   7.586 -1.1431  0.6861  0.9266
  173MOL   H17845242   3.739   5.655   7.784 -0.3208 -0.3511  0.2907
  173MOL   H17945243   3.676   5.763   0.140 -1.2996 -0.7329  1.2427
  173MOL   H18045244   3.527   5.794   0.063 -2.1789  2.0697  0.2772
  173MOL   H18145245   3.706   6.018   0.192 -0.7262 -1.0152  0.9206
  173MOL   H18245246   3.545   6.046   0.113 -3.2714 -0.6351  2.6066
  173MOL   H18345247   3.554   5.950   0.250 -1.6766 -1.1366 -1.9725
  173MOL   C18445248   3.829   5.785   7.630  0.0963  0.2027  0.0795
  173MOL   C18545249   3.960   5.842   7.684 -0.0561 -0.8086 -0.6273
  173MOL   O18645250   4.049   5.845   7.573  0.7939 -0.4832 -0.2472
  173MOL   C18745251   4.041   5.964   7.495  0.3614  0.3739  0.0918
  173MOL   C18845252   4.122   5.950   7.372  0.1452  0.5294 -0.1251
  173MOL   H18945253   3.792   5.852   7.553 -0.3231 -3.7202 -3.2700
  173MOL   H19045254   3.843   5.691   7.577 -0.8817 -0.3993  0.8720
  173MOL   H19145255   3.942   5.946   7.710  2.7198 -0.6420  0.7615
  173MOL   H19245256   4.082   6.054   7.541  0.3209  1.5000 -2.0107
  173MOL   H19345257   3.941   5.989   7.461 -0.6415 -1.0545  1.8986
  173MOL   H19445258   4.219   5.909   7.398  0.4281  1.1330 -0.2157
  173MOL   H19545259   4.076   5.879   7.303  0.7988  1.0489 -1.1034
  173MOL   H19645260   4.139   6.033   7.303 -0.4407  0.0522 -0.8551
  173MOL   C19745261   4.020   5.766   7.803  0.5835  0.2243  0.0371
  173MOL   C19845262   4.176   5.767   7.816  0.2765  0.7170  0.0925
  173MOL   O19945263   4.223   5.687   0.080 -0.4845 -0.8986  0.2921
  173MOL   C20045264   4.211   5.545   0.062  0.1727  0.0634 -0.4269
  173MOL   C20145265   4.303   5.484   0.167 -0.7539 -0.1130 -0.0839
  173MOL   H20245266   3.993   5.663   7.778 -0.8527  0.3400  1.0530
  173MOL   H20345267   3.972   5.804   0.049  1.8127 -1.0259  1.2491
  173MOL   H20445268   4.221   5.738   7.721  1.8004  1.0630  0.7066
  173MOL   H20545269   4.250   5.520   7.807 -0.4859 -3.4495  0.1384
  173MOL   H20645270   4.105   5.520   0.074 -0.0964  1.5490  0.5577
  173MOL   H20745271   4.312   5.376   0.154 -1.8755 -0.2700  0.4848
  173MOL   H20845272   4.398   5.537   0.152 -1.3880  0.8754 -0.6731
  173MOL   H20945273   4.264   5.512   0.265  5.0672  2.6717  1.6833
  173MOL   C21045274   4.225   5.905   0.011  0.4777 -0.5006  0.0167
  173MOL   C21145275   4.381   5.924   7.836 -0.1294 -0.1376 -0.0843
  173MOL   O21245276   4.411   6.064   0.029 -0.2448  0.4022  0.0946
  173MOL   C21345277   4.428   6.080   0.165 -0.5711  0.4804  0.0662
  173MOL   C21445278   4.436   6.228   0.196 -0.5520  0.2067  0.4721
  173MOL   H21545279   4.173   5.934   0.103  1.3879  1.0180  0.0735
  173MOL   H21645280   4.177   5.969   7.781  1.5821 -0.3377 -0.5661
  173MOL   H21745281   4.442   5.858   0.053  0.9702  0.5295 -0.4511
  173MOL   H21845282   4.521   6.030   0.192 -0.9968  0.1294  0.9100
  173MOL   H21945283   4.350   6.029   0.221  2.6122 -2.6037  1.8942
  173MOL   H22045284   4.464   6.237   0.301 -3.3635  1.2511  1.1870
  173MOL   H22145285   4.503   6.295   0.142  0.2868  0.4396  1.7839
  173MOL   H22245286   4.337   6.272   0.184 -0.8407 -0.1870  1.3508
  173MOL   C22345287   4.404   5.921   7.685  0.5865 -0.0676 -0.1450
  173MOL   C22445288   4.544   5.970   7.647 -0.0455  0.2317  0.4666
  173MOL   O22545289   4.563   5.962   7.507  0.2112 -0.0146 -0.5578
  173MOL   C22645290   4.489   6.054   7.426  0.1754  0.0901  0.6921
  173MOL   C22745291   4.577   6.181   7.390  0.0120 -0.7801 -0.6628
  173MOL   H22845292   4.324   5.970   7.630  1.2495 -0.2226 -1.2414
  173MOL   H22945293   4.395   5.818   7.651 -0.6091 -1.1491  3.2366
  173MOL   H23045294   4.561   6.074   7.676  0.8127  0.0051  0.8230
  173MOL   H23145295   4.396   6.091   7.469  0.9340 -0.0858  2.5785
  173MOL   H23245296   4.483   5.997   7.333 -0.5127  2.0933 -0.5070
  173MOL   H23345297   4.681   6.149   7.378  0.0626 -0.8207 -0.0950
  173MOL   H23445298   4.534   6.231   7.302  0.6446  0.6573 -0.1772
  173MOL   H23545299   4.579   6.263   7.462  1.5321  1.0711 -2.7329
  173MOL   C23645300   4.663   5.886   7.701  0.1793  0.2929  0.4143
  173MOL   C23745301   4.798   5.938   7.646 -0.3070 -0.5790 -0.1397
  173MOL   O23845302   4.889   5.829   7.627 -0.4640  0.2786  0.1132
  173MOL   C23945303   4.907   5.783   7.499  0.0975  0.1464  0.7352
  173MOL   C24045304   5.033   5.831   7.440  0.0232 -0.3413 -0.3106
  173MOL   H24145305   4.647   5.783   7.671  2.0050  0.5458 -1.5188
  173MOL   H24245306   4.671   5.887   7.810  1.2773 -0.4267  0.3440
  173MOL   H24345307   4.786   5.987   7.549  1.0478 -0.6294 -0.3328
  173MOL   H24445308   4.826   5.815   7.434 -1.0234 -0.2483  1.9078
  173MOL   H24545309   4.911   5.674   7.498  0.3886  0.1041  2.9280
  173MOL   H24645310   5.064   5.931   7.472  0.4396 -0.3608 -0.6563
  173MOL   H24745311   5.116   5.769   7.474  0.0498  0.2438  0.7402
  173MOL   H24845312   5.023   5.841   7.332  0.2230 -2.7265 -0.5707
  173MOL   C24945313   4.876   6.027   7.738  0.1617  0.0648 -0.6508
  173MOL   C25045314   4.812   6.160   7.763 -0.2168  0.5888  0.7073
  173MOL   O25145315   4.897   6.249   7.829  0.0139 -0.3058  0.3741
  173MOL   C25245316   4.863   6.290   0.117  0.2353  0.1874 -0.9421
  173MOL   C25345317   4.890   6.177   0.221 -0.5949 -0.1460  0.1834
  173MOL   H25445318   4.980   6.041   7.708  0.5856  2.6562  1.8545
  173MOL   H25545319   4.888   5.980   7.836 -1.6790  2.2907  0.6983
  173MOL   H25645320   4.799   6.200   7.662  2.0554 -1.6371 -0.4998
  173MOL   H25745321   4.763   6.332   0.117 -0.5116 -1.5212 -1.5919
  173MOL   H25845322   4.925   6.373   0.150 -0.7302  1.0133 -1.2250
  173MOL   H25945323   4.998   6.171   0.236 -0.6366  2.0037  1.6501
  173MOL   H26045324   4.829   6.195   0.310 -0.8534  0.4428 -0.1073
  173MOL   H26145325   4.859   6.080   0.183  0.4668  0.1134 -1.3627
  173MOL   H26245326   4.716   6.153   7.814 -1.1816  2.0199 -0.8271
  174MOL     C145327   1.142   6.007   6.561  0.4292 -0.0065 -0.7539
  174MOL     C245328   1.290   6.012   6.526 -0.5944 -0.2023  0.7175
  174MOL     O345329   1.304   6.128   6.439  0.6546 -0.4520  0.2911
  174MOL     C445330   1.291   6.102   6.301  0.0242  0.6399 -0.5095
  174MOL     C545331   1.306   6.234   6.217  0.2569  0.1462  0.5003
  174MOL     H645332   1.107   6.104   6.594  1.8020  0.9573 -2.0597
  174MOL     H745333   1.085   5.980   6.472 -2.3922  0.5860  0.8255
  174MOL     H845334   1.339   6.053   6.614  0.5888  0.7541 -0.3547
  174MOL     H945335   1.191   6.060   6.290 -0.2417  1.4439 -1.1899
  174MOL    H1045336   1.366   6.028   6.272  0.9910  0.9894  1.0310
  174MOL    H1145337   1.403   6.279   6.194  0.0151  0.2448 -0.3332
  174MOL    H1245338   1.266   6.206   6.120 -0.8295 -2.1803  1.5574
  174MOL    H1345339   1.251   6.315   6.265  1.0424  1.7776 -1.2922
  174MOL    H1445340   1.115   5.932   6.635 -1.4573 -0.3353 -1.7402
  174MOL    C1545341   1.355   5.882   6.485  0.2500  1.3621  0.1615
  174MOL    C1645342   1.348   5.771   6.601 -0.3196  0.2010  0.1161
  174MOL    O1745343   1.452   5.806   6.696  0.2092 -0.0674  0.2462
  174MOL    C1845344   1.407   5.809   6.830  0.4726  0.1712  0.4050
  174MOL    C1945345   1.498   5.874   6.930 -0.0545 -0.6379 -0.2094
  174MOL    H2045346   1.463   5.893   6.491  0.7028 -2.1834  0.0457
  174MOL    H2145347   1.328   5.840   6.388  3.4118 -0.8498  0.1639
  174MOL    H2245348   1.253   5.773   6.654  0.0365 -2.9686  0.9943
  174MOL    H2345349   1.378   5.708   6.859  3.3190 -0.5045  0.9953
  174MOL    H2445350   1.315   5.867   6.830  1.1826  1.3201  1.3821
  174MOL    H2545351   1.572   5.793   6.934  0.1814 -0.4777 -1.4323
  174MOL    H2645352   1.455   5.877   7.030 -0.5659 -1.2324 -0.4105
  174MOL    H2745353   1.541   5.969   6.901  0.9417 -0.9892  0.0751
  174MOL    C2845354   1.377   5.625   6.562 -0.2793  0.5342 -0.0292
  174MOL    C2945355   1.257   5.545   6.504 -0.3365 -0.1632 -0.6795
  174MOL    O3045356   1.140   5.556   6.579  0.2110  0.5576  0.3154
  174MOL    C3145357   1.030   5.624   6.531  0.6102 -0.3320  0.4066
  174MOL    C3245358   0.907   5.582   6.607  0.1348 -0.4820 -0.4230
  174MOL    H3345359   1.411   5.567   6.648  2.4381  1.0370 -0.7158
  174MOL    H3445360   1.461   5.620   6.493 -0.1313  0.8332  0.1303
  174MOL    H3545361   1.245   5.589   6.405 -0.9125 -0.3092 -0.6754
  174MOL    H3645362   1.026   5.614   6.423  2.6442 -1.7511  0.4183
  174MOL    H3745363   1.048   5.730   6.549 -0.5117  0.1276 -1.1065
  174MOL    H3845364   0.825   5.633   6.557 -0.5554  0.2638  1.4300
  174MOL    H3945365   0.890   5.475   6.595 -0.0667 -0.1172 -3.8102
  174MOL    H4045366   0.914   5.613   6.712 -1.1717  1.2075 -0.8299
  174MOL    C4145367   1.285   5.394   6.475 -0.1882 -0.0397 -0.1892
  174MOL    C4245368   1.284   5.350   6.327 -0.6653  0.2401 -0.1935
  174MOL    O4345369   1.152   5.357   6.279 -0.2150 -0.2405  0.1732
  174MOL    C4445370   1.139   5.424   6.159 -0.0544  0.0838  0.2811
  174MOL    C4545371   0.992   5.407   6.132 -0.0820 -0.1237 -0.7657
  174MOL    H4645372   1.219   5.332   6.535  1.3246 -1.1192  0.3807
  174MOL    H4745373   1.383   5.369   6.515  1.0212  0.4377 -2.7216
  174MOL    H4845374   1.354   5.418   6.279  0.1584 -1.6988 -1.8192
  174MOL    H4945375   1.197   5.367   6.086  0.0005 -0.9196  1.0910
  174MOL    H5045376   1.172   5.528   6.163  1.3578 -0.1497 -3.1677
  174MOL    H5145377   0.935   5.462   6.206  1.1037  0.1019 -0.0093
  174MOL    H5245378   0.953   5.439   6.035 -0.9403 -0.9087 -0.6833
  174MOL    H5345379   0.953   5.306   6.143  1.8514 -0.8108  0.1315
  174MOL    C5445380   1.338   5.212   6.298  0.4144 -0.2040 -0.1366
  174MOL    C5545381   1.478   5.174   6.355 -0.7426 -0.2400  1.0029
  174MOL    O5645382   1.564   5.262   6.290 -0.5375 -0.1068 -0.4117
  174MOL    C5745383   1.677   5.301   6.368 -0.6905  0.2019 -0.4637
  174MOL    C5845384   1.778   5.361   6.264  0.0238 -0.5833 -0.3498
  174MOL    H5945385   1.336   5.191   6.191  1.2971  0.1394 -0.2218
  174MOL    H6045386   1.264   5.141   6.336 -0.8446  0.9148 -0.4660
  174MOL    H6145387   1.483   5.178   6.464  1.0859  0.6430  0.9056
  174MOL    H6245388   1.730   5.224   6.423 -0.7724  0.8336  0.5087
  174MOL    H6345389   1.636   5.381   6.430 -0.1504  1.0994 -1.2436
  174MOL    H6445390   1.716   5.421   6.197 -2.0302 -1.2189  0.9458
  174MOL    H6545391   1.859   5.425   6.301  0.4193 -0.3157 -1.6521
  174MOL    H6645392   1.821   5.293   6.191  1.1395 -0.9171  0.5893
  174MOL    C6745393   1.527   5.039   6.319 -0.4865  0.1259 -0.0956
  174MOL    C6845394   1.444   4.931   6.400 -0.4427  0.2619  0.1250
  174MOL    O6945395   1.464   4.962   6.541 -0.5129  0.2280  0.6711
  174MOL    C7045396   1.373   4.892   6.623 -0.3805 -0.2276  0.7273
  174MOL    C7145397   1.235   4.957   6.627  0.2278  0.1472  0.9005
  174MOL    H7245398   1.633   5.027   6.344 -0.4446 -2.6282 -1.4130
  174MOL    H7345399   1.509   5.017   6.214 -2.1663 -1.5674  0.5196
  174MOL    H7445400   1.338   4.943   6.377 -0.0619  0.9308 -1.3195
  174MOL    H7545401   1.409   4.902   6.726 -0.0971 -1.9262  0.7993
  174MOL    H7645402   1.358   4.787   6.598 -0.0184 -0.2564  0.6282
  174MOL    H7745403   1.248   5.061   6.658  0.6674  0.2194  0.4826
  174MOL    H7845404   1.187   4.934   6.532 -0.4033 -0.3340  1.3337
  174MOL    H7945405   1.181   4.897   6.700 -1.9094  2.1324  1.0158
  174MOL    C8045406   1.508   4.795   6.369  0.1776  0.5624  0.4465
  174MOL    C8145407   1.473   4.725   6.230 -0.4887 -0.1025  0.2323
  174MOL    O8245408   1.337   4.680   6.232  0.1379  0.1613  0.0390
  174MOL    C8345409   1.252   4.714   6.121 -0.1497 -0.5711 -0.4049
  174MOL    C8445410   1.202   4.851   6.146  0.4285  0.0237  0.4514
  174MOL    H8545411   1.472   4.719   6.438 -4.0063  0.3371 -1.7601
  174MOL    H8645412   1.616   4.803   6.370  0.1388  1.0416  1.1980
  174MOL    H8745413   1.495   4.789   6.145  0.3725  1.3581  1.5342
  174MOL    H8845414   1.172   4.639   6.125 -0.5096 -0.1702  0.0821
  174MOL    H8945415   1.299   4.697   6.024  0.5778 -0.2299 -0.1133
  174MOL    H9045416   1.156   4.856   6.245 -0.0095 -0.6800  0.2868
  174MOL    H9145417   1.286   4.918   6.130  0.1168  0.2424 -0.2906
  174MOL    H9245418   1.128   4.890   6.076 -1.4556  0.0579  2.4094
  174MOL    C9345419   1.555   4.595   6.206 -0.1081  0.7536  0.1074
  174MOL    C9445420   1.699   4.595   6.139 -0.4250  0.0344 -0.3459
  174MOL    O9545421   1.749   4.708   6.196  0.2306  0.2550 -0.4250
  174MOL    C9645422   1.888   4.736   6.174 -0.3835  0.3760  0.2390
  174MOL    C9745423   1.909   4.837   6.285 -0.1403 -0.1490  0.4859
  174MOL    H9845424   1.490   4.533   6.143  0.5683  1.1715 -1.0066
  174MOL    H9945425   1.544   4.549   6.305 -2.4633  0.7228 -0.1384
  174MOL   H10045426   1.763   4.514   6.174 -0.4135  0.1041 -0.2050
  174MOL   H10145427   1.910   4.787   6.080  1.5306 -1.2310 -0.2137
  174MOL   H10245428   1.958   4.653   6.187 -0.4861 -0.3195 -3.1405
  174MOL   H10345429   1.875   4.801   6.382 -3.6666  1.4236 -0.1100
  174MOL   H10445430   2.016   4.854   6.297  0.1680 -1.8259  0.2251
  174MOL   H10545431   1.879   4.940   6.267  2.6907  0.5348 -0.6593
  174MOL   C10645432   1.692   4.604   5.982 -0.7104  0.2770 -0.0896
  174MOL   C10745433   1.669   4.470   5.903  0.3739  0.2292 -0.1518
  174MOL   O10845434   1.791   4.407   5.903  0.4959  0.5717  0.0725
  174MOL   C10945435   1.783   4.262   5.921 -0.0016 -0.3048  0.7830
  174MOL   C11045436   1.923   4.211   5.885 -0.2284  0.3646 -0.3080
  174MOL   H11145437   1.785   4.644   5.941 -0.5113  1.6722  1.6839
  174MOL   H11245438   1.629   4.691   5.965 -0.2603  0.5871 -0.1731
  174MOL   H11345439   1.595   4.413   5.958  0.4734  1.1333  0.9243
  174MOL   H11445440   1.710   4.223   5.851  1.2069 -0.8709 -0.1723
  174MOL   H11545441   1.754   4.228   6.021  0.0703 -0.5603  0.7148
  174MOL   H11645442   1.989   4.237   5.967 -0.5186 -0.1620  0.0960
  174MOL   H11745443   1.925   4.102   5.881 -1.9396  0.3410 -1.1549
  174MOL   H11845444   1.948   4.251   5.787 -2.9713  0.0267 -1.1855
  174MOL   C11945445   1.628   4.495   5.757  0.3115  0.0832 -0.1342
  174MOL   C12045446   1.492   4.567   5.746  0.3593 -0.1524  0.9384
  174MOL   O12145447   1.402   4.479   5.676  0.2258  0.0625 -0.3141
  174MOL   C12245448   1.361   4.366   5.754 -0.0581  0.2348 -0.5987
  174MOL   C12345449   1.214   4.330   5.721  0.5835  0.6762 -0.9936
  174MOL   H12445450   1.617   4.398   5.707 -1.5249  0.3081 -0.2213
  174MOL   H12545451   1.704   4.558   5.710 -0.6899  0.2080 -1.6493
  174MOL   H12645452   1.458   4.587   5.848 -0.0417 -0.7263  0.9179
  174MOL   H12745453   1.370   4.382   5.861 -3.8543  0.5351 -0.2570
  174MOL   H12845454   1.426   4.282   5.728  0.8900  0.6220  0.4940
  174MOL   H12945455   1.202   4.324   5.612  0.1596 -0.6157 -0.8890
  174MOL   H13045456   1.193   4.234   5.769  0.6740  2.1534  2.0899
  174MOL   H13145457   1.143   4.403   5.759  1.7635  2.1153 -1.5093
  174MOL   C13245458   1.506   4.699   5.662 -0.0460 -0.2836  0.8675
  174MOL   C13345459   1.372   4.758   5.614  0.5138 -0.2432  0.3851
  174MOL   O13445460   1.398   4.868   5.531 -0.6666 -0.1121  0.1470
  174MOL   C13545461   1.402   4.846   5.386  0.5313 -0.2844 -0.8228
  174MOL   C13645462   1.252   4.857   5.348 -0.0564 -0.3173  0.0741
  174MOL   H13745463   1.567   4.677   5.574  0.9921  1.0121  1.2557
  174MOL   H13845464   1.567   4.771   5.715  2.0755 -0.8839 -0.6699
  174MOL   H13945465   1.304   4.687   5.568  0.0319 -0.0621  0.8010
  174MOL   H14045466   1.434   4.747   5.354 -0.7976 -1.2595  0.7715
  174MOL   H14145467   1.473   4.912   5.336  1.0229  0.5455  0.9179
  174MOL   H14245468   1.178   4.791   5.394 -1.8904 -0.0819 -2.4056
  174MOL   H14345469   1.214   4.957   5.372  1.1469  0.2527 -0.3785
  174MOL   H14445470   1.239   4.842   5.241  1.2874  2.0630 -0.4662
  174MOL   C14545471   1.296   4.829   5.730  0.4392 -0.1460  0.1579
  174MOL   C14645472   1.147   4.845   5.706  0.2057  0.1430 -0.1038
  174MOL   O14745473   1.105   4.949   5.792 -0.1152 -0.1618  0.2239
  174MOL   C14845474   1.120   5.082   5.742 -1.5548  0.0356  0.5194
  174MOL   C14945475   1.052   5.178   5.834 -0.6697  0.1658  0.3527
  174MOL   H15045476   1.342   4.926   5.749 -0.1707  0.5021 -1.5793
  174MOL   H15145477   1.317   4.766   5.817  0.3008 -1.8285 -1.0017
  174MOL   H15245478   1.120   4.869   5.603 -1.6708 -0.5470  0.1947
  174MOL   H15345479   1.086   5.087   5.639  1.3531  1.7195 -0.4072
  174MOL   H15445480   1.226   5.106   5.728 -1.3423 -0.9570  0.3596
  174MOL   H15545481   1.115   5.174   5.923  0.4173 -0.5514 -0.4284
  174MOL   H15645482   1.067   5.278   5.795 -1.3366  1.3118  2.9745
  174MOL   H15745483   0.955   5.147   5.872 -1.2619  0.2276 -1.0874
  174MOL   C15845484   1.067   4.730   5.753 -0.1470 -0.1960 -0.8250
  174MOL   C15945485   0.918   4.717   5.709 -0.1423 -0.7434  0.3763
  174MOL   O16045486   0.837   4.633   5.781 -0.0454  0.0278 -0.0146
  174MOL   C16145487   0.818   4.666   5.917 -0.0922 -0.1208  0.3553
  174MOL   C16245488   0.676   4.626   5.961 -0.3821  0.8800  0.4325
  174MOL   H16345489   1.083   4.729   5.861 -2.1156 -2.4903 -0.4993
  174MOL   H16445490   1.116   4.641   5.713  3.0025  0.6152  1.0520
  174MOL   H16545491   0.874   4.817   5.708  2.9249  0.6493  0.1220
  174MOL   H16645492   0.830   4.772   5.941  1.2926  0.4328 -2.5278
  174MOL   H16745493   0.892   4.607   5.972 -0.7837 -0.3729  1.0186
  174MOL   H16845494   0.671   4.526   5.917 -0.5888 -0.1732  2.7727
  174MOL   H16945495   0.671   4.596   6.066  1.2652  0.2455  0.3353
  174MOL   H17045496   0.592   4.681   5.918 -0.8755  0.3785  0.7394
  174MOL   C17145497   0.914   4.667   5.555 -0.2987  0.3918  0.6022
  174MOL   C17245498   0.774   4.676   5.491 -0.2509  0.2467  0.5423
  174MOL   O17345499   0.752   4.567   5.408 -0.8006 -0.1154 -0.0347
  174MOL   C17445500   0.727   4.440   5.465 -0.0475 -0.4490 -0.0447
  174MOL   C17545501   0.580   4.440   5.511 -0.5665  0.1037  0.2068
  174MOL   H17645502   0.961   4.569   5.554  0.7627  0.8637  2.1838
  174MOL   H17745503   0.980   4.723   5.489  1.1979 -2.6012 -0.4800
  174MOL   H17845504   0.697   4.678   5.569 -0.0373 -0.5189  0.7734
  174MOL   H17945505   0.791   4.424   5.551  0.6764 -1.0263 -0.6887
  174MOL   H18045506   0.748   4.364   5.389 -0.9743 -0.2217 -0.5369
  174MOL   H18145507   0.502   4.471   5.441  1.0629  1.6794 -0.9735
  174MOL   H18245508   0.545   4.342   5.543  0.0081 -0.5663 -1.1583
  174MOL   H18345509   0.546   4.511   5.587  1.3840  1.3794 -0.0643
  174MOL   C18445510   0.753   4.815   5.423  0.2266 -0.6711  0.0834
  174MOL   C18545511   0.602   4.846   5.420 -0.6001  0.5019  0.6478
  174MOL   O18645512   0.593   4.970   5.358 -0.4645  0.0315  0.0415
  174MOL   C18745513   0.568   4.971   5.220 -0.0211 -0.2505 -0.0335
  174MOL   C18845514   0.587   5.110   5.159 -0.7372  0.1901 -0.2847
  174MOL   H18945515   0.787   4.812   5.319 -1.7514  0.0732 -0.6055
  174MOL   H19045516   0.805   4.883   5.491  2.5656 -0.6319 -1.6562
  174MOL   H19145517   0.547   4.766   5.370 -0.7019 -0.4490  2.2550
  174MOL   H19245518   0.468   4.940   5.189  1.2282 -3.2575 -1.3076
  174MOL   H19345519   0.649   4.916   5.173  1.6584 -0.0680  2.5713
  174MOL   H19445520   0.689   5.148   5.160  0.1461 -2.0767 -0.1840
  174MOL   H19545521   0.558   5.091   5.056 -1.0629 -2.8001  0.3156
  174MOL   H19645522   0.520   5.187   5.197  0.2173  0.7169  0.3472
  174MOL   C19745523   0.533   4.880   5.555  0.1727 -0.0045  0.9278
  174MOL   C19845524   0.384   4.914   5.538  0.0498 -0.1228  0.8735
  174MOL   O19945525   0.334   4.980   5.656  0.6567  0.6656  0.3394
  174MOL   C20045526   0.366   5.117   5.654  0.8164 -0.6165  0.2026
  174MOL   C20145527   0.315   5.195   5.785 -0.8989  0.1649 -0.0949
  174MOL   H20245528   0.586   4.960   5.606  3.2426 -0.9932 -0.5767
  174MOL   H20345529   0.535   4.802   5.632 -1.2572 -1.3826 -0.4166
  174MOL   H20445530   0.366   4.977   5.451  1.5810 -1.7795 -0.6914
  174MOL   H20545531   0.339   5.174   5.565  1.5095  0.1264  0.4568
  174MOL   H20645532   0.474   5.136   5.652  0.1563  3.3808 -1.7647
  174MOL   H20745533   0.375   5.164   5.870 -1.7500  0.5484  0.6467
  174MOL   H20845534   0.336   5.301   5.775  1.1673 -0.2503 -0.3429
  174MOL   H20945535   0.214   5.174   5.820 -1.4052  0.9005 -1.0833
  174MOL   C21045536   0.308   4.779   5.526  0.6634  0.7284  0.8520
  174MOL   C21145537   0.161   4.790   5.503  0.0464 -0.7448  0.1847
  174MOL   O21245538   0.098   4.688   5.581 -0.4054 -0.2457  0.0060
  174MOL   C21345539   0.054   4.736   5.703  0.0501  0.0808  0.0348
  174MOL   C21445540   0.016   4.615   5.787 -0.1262 -0.2631  0.0243
  174MOL   H21545541   0.326   4.724   5.619  1.6094  1.1077  0.9016
  174MOL   H21645542   0.360   4.715   5.455  2.5571  1.3787  1.6061
  174MOL   H21745543   0.124   4.889   5.529 -0.4460 -1.0318  0.5934
  174MOL   H21845544   7.822   4.814   5.703 -0.5129 -0.4653  0.5186
  174MOL   H21945545   0.141   4.780   5.752  0.3025 -3.2334  2.7039
  174MOL   H22045546   0.111   4.568   5.812  0.8326  0.3908 -2.2658
  174MOL   H22145547   7.812   4.654   5.877 -2.2172  0.5562 -1.4025
  174MOL   H22245548   7.798   4.546   5.728 -0.1995  0.8938 -1.2587
  174MOL   C22345549   0.132   4.764   5.352 -0.2825  0.0684  0.1959
  174MOL   C22445550   0.010   4.847   5.302 -1.0682  0.3283 -1.0944
  174MOL   O22545551   0.052   4.982   5.317  0.2291  0.1000  0.1518
  174MOL   C22645552   0.111   5.024   5.196 -0.1203 -0.0163 -0.0176
  174MOL   C22745553   0.128   5.169   5.193 -0.5176 -0.1407 -0.6464
  174MOL   H22845554   0.107   4.658   5.344 -0.5443 -0.0271  2.0592
  174MOL   H22945555   0.221   4.777   5.289 -0.4603  0.1213 -0.0443
  174MOL   H23045556   7.822   4.826   5.200 -3.2813 -0.2081 -0.3348
  174MOL   H23145557   0.062   4.998   5.102  0.8370 -3.9190  0.4574
  174MOL   H23245558   0.208   4.973   5.196 -0.7740 -1.2901  0.5352
  174MOL   H23345559   0.186   5.201   5.280 -0.0654 -3.9180  0.5133
  174MOL   H23445560   0.172   5.208   5.101 -3.0925  0.7086 -1.5542
  174MOL   H23545561   0.028   5.213   5.198 -0.5817 -0.4271  0.9400
  174MOL   C23645562   7.718   4.831   5.383 -1.1635  0.0975  0.1712
  174MOL   C23745563   7.593   4.842   5.297 -0.0634  0.1844 -0.4374
  174MOL   O23845564   7.586   4.975   5.236  0.1668  0.4562  0.4035
  174MOL   C23945565   7.519   4.979   5.110 -0.1440 -0.1897  0.3944
  174MOL   C24045566   7.549   5.091   5.020 -0.2107  0.7967  0.9010
  174MOL   H24145567   7.708   4.907   5.461 -0.1540  1.5971 -1.1229
  174MOL   H24245568   7.722   4.730   5.424 -0.0199  0.0760  0.0096
  174MOL   H24345569   7.604   4.766   5.219 -1.7057 -1.5601  0.9697
  174MOL   H24445570   7.412   4.976   5.134 -0.2804 -0.3401 -0.2166
  174MOL   H24545571   7.546   4.890   5.053 -2.5707 -0.1248 -0.9294
  174MOL   H24645572   7.648   5.075   4.977 -0.3554 -0.2696  0.9659
  174MOL   H24745573   7.484   5.088   4.933  2.2082 -0.4214 -0.9553
  174MOL   H24845574   7.554   5.191   5.063 -0.0998  0.1972  2.3326
  174MOL   C24945575   7.460   4.797   5.357 -0.0937  0.4483 -0.2773
  174MOL   C25045576   7.468   4.644   5.405 -0.3580  0.1378  0.4562
  174MOL   O25145577   7.345   4.608   5.458 -0.2678  0.0589  0.2768
  174MOL   C25245578   7.340   4.472   5.504  0.5636 -0.4018 -0.3299
  174MOL   C25345579   7.374   4.461   5.657 -0.6135 -0.1189 -0.0882
  174MOL   H25445580   7.388   4.800   5.276  0.4250  1.0938 -0.7179
  174MOL   H25545581   7.444   4.867   5.439 -1.2278  0.5126 -0.5532
  174MOL   H25645582   7.485   4.576   5.322  0.2364  1.3316 -0.4126
  174MOL   H25745583   7.401   4.391   5.462  1.5688 -0.4061  1.1032
  174MOL   H25845584   7.238   4.434   5.500  0.2726  0.4099 -0.8495
  174MOL   H25945585   7.336   4.552   5.703  0.4244  1.1143 -1.6386
  174MOL   H26045586   7.335   4.373   5.708 -0.9747 -0.5603 -1.1115
  174MOL   H26145587   7.480   4.462   5.682 -0.1633 -1.3569 -1.8048
  174MOL   H26245588   7.548   4.630   5.479 -1.4892  1.3440  1.9415
  175MOL     C145589   4.659   1.218   6.417 -0.0783  0.0646 -0.1044
  175MOL     C245590   4.640   1.073   6.462 -1.3201 -0.6400  0.4989
  175MOL     O345591   4.759   1.035   6.530 -0.5350 -0.2698  0.0984
  175MOL     C445592   4.733   0.941   6.633 -0.3161 -0.7153  0.3669
  175MOL     C545593   4.865   0.865   6.667 -0.0296 -0.8032 -0.6079
  175MOL     H645594   4.578   1.262   6.359 -0.2473  1.3033  1.0325
  175MOL     H745595   4.662   1.280   6.507  0.4809  0.4855 -0.4135
  175MOL     H845596   4.556   1.063   6.531 -0.2021  0.1476  2.0174
  175MOL     H945597   4.664   0.861   6.611  1.6480 -2.5461  0.6751
  175MOL    H1045598   4.705   1.002   6.720  1.7775 -2.2245  2.1744
  175MOL    H1145599   4.938   0.942   6.692 -0.9297 -0.4025  0.8836
  175MOL    H1245600   4.852   0.787   6.743  2.3716 -2.3033 -1.6670
  175MOL    H1345601   4.894   0.804   6.582 -1.0665 -2.5898  0.2794
  175MOL    H1445602   4.756   1.231   6.371  0.4080 -0.4219  0.7581
  175MOL    C1545603   4.622   0.975   6.345  0.4322  0.1500 -0.5394
  175MOL    C1645604   4.496   0.992   6.252  0.0460 -0.1737 -0.4095
  175MOL    O1745605   4.371   0.981   6.326 -0.0515 -0.1715  0.3133
  175MOL    C1845606   4.299   1.096   6.329 -0.2724  0.6523 -0.1097
  175MOL    C1945607   4.226   1.111   6.196 -0.2428  0.1986  0.3197
  175MOL    H2045608   4.623   0.870   6.376 -0.7724  0.1289 -0.5534
  175MOL    H2145609   4.715   0.977   6.287 -0.1684  1.5964 -1.4827
  175MOL    H2245610   4.510   1.090   6.206  0.4772  0.0585  0.2073
  175MOL    H2345611   4.363   1.179   6.359  0.9160 -0.1563 -0.3687
  175MOL    H2445612   4.219   1.091   6.404  0.6252 -0.9178  0.7729
  175MOL    H2545613   4.154   1.035   6.167  0.7708 -0.9434  0.8066
  175MOL    H2645614   4.291   1.129   6.110 -0.2483 -0.0304  0.2681
  175MOL    H2745615   4.159   1.198   6.204 -1.3358 -0.4344 -1.5302
  175MOL    C2845616   4.510   0.886   6.143 -0.2646 -0.3651 -0.6309
  175MOL    C2945617   4.609   0.918   6.027  0.2235 -0.3042  0.0544
  175MOL    O3045618   4.566   1.030   5.954  0.4126 -0.7281 -0.3323
  175MOL    C3145619   4.644   1.152   5.962 -0.4069 -1.2091 -0.5425
  175MOL    C3245620   4.555   1.272   5.909  0.8182 -0.5981 -0.4961
  175MOL    H3345621   4.412   0.867   6.099  0.5465 -0.0905 -2.5969
  175MOL    H3445622   4.527   0.788   6.189 -0.4921 -1.5059 -2.9219
  175MOL    H3545623   4.701   0.949   6.077  0.3927  0.5921 -0.7885
  175MOL    H3645624   4.736   1.130   5.907  2.2960  1.9006  2.4959
  175MOL    H3745625   4.673   1.173   6.065 -4.0776  0.0390  0.3070
  175MOL    H3845626   4.496   1.234   5.826 -0.9200  0.7959  0.0760
  175MOL    H3945627   4.485   1.317   5.979  1.0809  1.4339 -1.5115
  175MOL    H4045628   4.617   1.352   5.868  0.3786 -1.1966 -2.3933
  175MOL    C4145629   4.638   0.797   5.950 -0.4328  0.1499  0.4876
  175MOL    C4245630   4.713   0.686   6.030  0.2558  0.3207 -0.1690
  175MOL    O4345631   4.851   0.725   6.044 -0.3039  0.5966  0.4044
  175MOL    C4445632   4.904   0.736   6.182 -0.1131  0.4772  0.0189
  175MOL    C4545633   5.057   0.727   6.167 -0.2766  0.5753 -0.1005
  175MOL    H4645634   4.705   0.820   5.867  0.1819 -0.7996  0.7070
  175MOL    H4745635   4.556   0.768   5.885  1.4338 -1.4171 -1.2284
  175MOL    H4845636   4.659   0.662   6.122  1.5671  2.3041  1.1532
  175MOL    H4945637   4.874   0.659   6.252 -1.0221 -0.5208 -1.4332
  175MOL    H5045638   4.884   0.836   6.221 -1.7860 -0.6518  2.1519
  175MOL    H5145639   5.100   0.727   6.267  1.6925  0.5150 -0.9307
  175MOL    H5245640   5.092   0.640   6.112  1.0229  0.2257  1.2634
  175MOL    H5345641   5.101   0.813   6.117 -1.0373  1.1362  0.1836
  175MOL    C5445642   4.713   0.545   5.962  0.0641  0.5384  0.3207
  175MOL    C5545643   4.575   0.481   5.942  0.1385  0.9036  0.5183
  175MOL    O5645644   4.530   0.450   6.069 -0.4705 -0.2307  0.3813
  175MOL    C5745645   4.389   0.434   6.086  0.1207 -1.0445 -0.0372
  175MOL    C5845646   4.316   0.569   6.054  0.0631 -0.1668  0.1310
  175MOL    H5945647   4.772   0.478   6.025  0.4049  0.2896 -0.2659
  175MOL    H6045648   4.773   0.548   5.871  2.3252  0.3670  1.7381
  175MOL    H6145649   4.515   0.555   5.890 -1.3379 -1.2112 -0.8467
  175MOL    H6245650   4.365   0.406   6.188  2.0314 -0.2682  0.6467
  175MOL    H6345651   4.342   0.357   6.024 -1.5214 -0.5722  0.5968
  175MOL    H6445652   4.306   0.584   5.947  1.1986  0.6581  0.1362
  175MOL    H6545653   4.218   0.552   6.100 -0.3877  1.7598 -0.0820
  175MOL    H6645654   4.379   0.650   6.090  2.5217 -1.0415 -2.0231
  175MOL    C6745655   4.579   0.339   5.878 -0.0166 -0.6551 -0.1845
  175MOL    C6845656   4.657   0.339   5.740  0.5937  0.0494  0.2173
  175MOL    O6945657   4.612   0.444   5.664  0.2668 -1.0667  0.0472
  175MOL    C7045658   4.704   0.502   5.569  0.4316  0.7472 -0.3727
  175MOL    C7145659   4.652   0.646   5.530 -0.7088  1.0208  0.5141
  175MOL    H7245660   4.477   0.308   5.855  0.0020 -0.4350 -0.5636
  175MOL    H7345661   4.615   0.269   5.953  1.2498 -1.3837 -1.4673
  175MOL    H7445662   4.761   0.364   5.759  0.8532 -2.0051  1.6506
  175MOL    H7545663   4.720   0.431   5.488 -0.0457  1.1970 -0.8627
  175MOL    H7645664   4.802   0.515   5.613  1.1176 -1.4265 -1.1650
  175MOL    H7745665   4.545   0.636   5.507 -0.3277 -0.4812 -0.7878
  175MOL    H7845666   4.665   0.711   5.616  1.0275  1.0435  0.2536
  175MOL    H7945667   4.708   0.687   5.446  1.1371  0.3076  1.3650
  175MOL    C8045668   4.646   0.209   5.658  0.3306  0.2376 -0.0361
  175MOL    C8145669   4.714   0.087   5.719 -0.1661 -0.8350 -1.2115
  175MOL    O8245670   4.653   0.043   5.839 -0.0075 -0.1789 -0.2251
  175MOL    C8345671   4.521   7.841   5.830 -0.4481  0.5920 -0.3101
  175MOL    C8445672   4.477   7.774   5.965 -0.4373 -0.7185 -0.3782
  175MOL    H8545673   4.686   0.212   5.556  1.3773 -1.9587  0.2756
  175MOL    H8645674   4.542   0.189   5.635  0.2121  0.2507  0.4905
  175MOL    H8745675   4.707   0.015   5.638  2.6920 -0.8566 -1.4703
  175MOL    H8845676   4.518   7.766   5.751 -0.4465 -0.3832  0.6109
  175MOL    H8945677   4.449   0.072   5.798  0.9733  2.4448  0.6940
  175MOL    H9045678   4.552   7.696   5.978  0.3177  0.0622  0.0142
  175MOL    H9145679   4.477   0.004   6.046  0.2924 -0.3767 -0.6916
  175MOL    H9245680   4.375   7.735   5.963 -1.0329  0.8625 -1.9802
  175MOL    C9345681   4.864   0.104   5.760  0.0743 -0.0770  0.8104
  175MOL    C9445682   4.954   0.124   5.639 -0.3581 -1.1424  0.0273
  175MOL    O9545683   4.928   0.008   5.548 -0.1010 -0.5609  0.2653
  175MOL    C9645684   4.971   0.025   5.418  0.4294  0.9072 -0.0615
  175MOL    C9745685   4.909   7.758   5.346 -0.2824 -0.0244 -0.4771
  175MOL    H9845686   4.904   0.017   5.814  3.3073  1.2527  0.7123
  175MOL    H9945687   4.876   0.178   5.839 -1.1541  0.9976  0.0080
  175MOL   H10045688   4.938   0.216   5.584  0.4844 -2.0504 -1.7642
  175MOL   H10145689   5.079   0.024   5.403  0.2799  0.0947 -1.0869
  175MOL   H10245690   4.930   0.116   5.373 -1.0770  1.1882  1.7748
  175MOL   H10345691   4.973   7.671   5.357 -1.1158 -0.5590  0.2097
  175MOL   H10445692   4.808   7.733   5.379 -0.2183  3.9624  3.1943
  175MOL   H10545693   4.906   7.775   5.239  0.7576  0.1733 -0.4752
  175MOL   C10645694   5.096   0.135   5.669 -0.4666 -0.0726  0.5003
  175MOL   C10745695   5.145   0.248   5.761  0.4943 -0.4619  0.4966
  175MOL   O10845696   5.143   0.380   5.696 -0.1322  0.6671 -0.6958
  175MOL   C10945697   5.087   0.471   5.782 -0.3481 -0.7892 -0.1477
  175MOL   C11045698   5.096   0.610   5.715 -0.4300  0.5233  0.0710
  175MOL   H11145699   5.154   0.138   5.577 -1.6366 -0.1307 -0.2411
  175MOL   H11245700   5.118   0.036   5.709  0.1606  0.6220  1.9370
  175MOL   H11345701   5.087   0.242   5.854  1.1603  0.9025  1.0178
  175MOL   H11445702   5.144   0.478   5.875  3.0327  1.8678 -2.2929
  175MOL   H11545703   4.985   0.452   5.814 -0.2707 -0.7435  0.1337
  175MOL   H11645704   5.068   0.681   5.793 -0.3323 -1.3736  1.8746
  175MOL   H11745705   5.202   0.622   5.693 -0.9626 -0.5637 -3.5138
  175MOL   H11845706   5.029   0.636   5.633 -0.0651  0.0503 -0.3760
  175MOL   C11945707   5.288   0.217   5.805 -0.7074  0.7062  0.2210
  175MOL   C12045708   5.291   0.127   5.926 -0.2405  0.1448 -0.0225
  175MOL   O12145709   5.231   0.204   6.030  0.2751  0.3294 -0.0580
  175MOL   C12245710   5.189   0.127   6.143 -0.6528 -0.1181 -0.0350
  175MOL   C12345711   5.102   0.219   6.222  0.4342  0.0024  0.2937
  175MOL   H12445712   5.342   0.307   5.833  1.2084 -0.4432  0.3238
  175MOL   H12545713   5.348   0.178   5.722 -1.5881 -3.8632  1.6040
  175MOL   H12645714   5.227   0.039   5.913 -1.3513  1.4485 -3.7981
  175MOL   H12745715   5.272   0.083   6.198 -2.0250 -0.8642  1.4784
  175MOL   H12845716   5.129   0.043   6.108  0.9611 -1.2278 -0.1855
  175MOL   H12945717   4.998   0.206   6.192  0.6428  0.2436 -0.5752
  175MOL   H13045718   5.096   0.197   6.328 -0.0155 -0.4559  0.1763
  175MOL   H13145719   5.116   0.327   6.209 -0.4077  0.1269  0.3703
  175MOL   C13245720   5.443   0.102   5.963  1.1823  0.1906  0.7932
  175MOL   C13345721   5.527   7.841   5.879  0.2466  0.0913  0.3040
  175MOL   O13445722   5.553   0.036   5.754  0.1758 -0.1337 -0.4253
  175MOL   C13545723   5.676   0.111   5.748 -0.2130 -0.0708  0.6682
  175MOL   C13645724   5.704   0.119   5.601  0.4252  0.0749 -0.1381
  175MOL   H13745725   5.452   0.080   6.069 -0.1577 -0.4598  0.7793
  175MOL   H13845726   5.495   0.197   5.954  0.2402  0.3920 -4.1278
  175MOL   H13945727   5.618   7.840   5.940 -0.6530 -0.2894  1.6797
  175MOL   H14045728   5.759   0.055   5.792 -1.2226 -1.5625  0.6820
  175MOL   H14145729   5.669   0.208   5.796  3.5503  0.8636 -0.4717
  175MOL   H14245730   5.710   0.017   5.563  1.7228 -0.1370  0.6116
  175MOL   H14345731   5.614   0.161   5.556 -0.1807 -0.5328  0.5001
  175MOL   H14445732   5.797   0.175   5.591  1.3070 -1.4322 -0.6018
  175MOL   C14545733   5.456   7.702   5.864 -0.0583 -0.3392 -0.3275
  175MOL   C14645734   5.523   7.603   5.773  0.0358 -0.1306 -0.3570
  175MOL   O14745735   5.432   7.486   5.762 -0.0144 -0.6419  0.5375
  175MOL   C14845736   5.355   7.491   5.642  0.8063 -0.5979  0.4545
  175MOL   C14945737   5.269   7.363   5.653 -0.0060 -0.2860 -0.0562
  175MOL   H15045738   5.362   7.735   5.819 -0.4678 -0.8391  0.1524
  175MOL   H15145739   5.436   7.660   5.963 -0.3038 -0.0648 -0.2600
  175MOL   H15245740   5.534   7.651   5.676  1.4894  0.7693  0.2413
  175MOL   H15345741   5.414   7.498   5.551  0.1297 -0.7429  0.0042
  175MOL   H15445742   5.286   7.574   5.653 -1.2336 -2.1637 -0.2950
  175MOL   H15545743   5.207   7.350   5.564 -2.6178 -2.6588  1.9987
  175MOL   H15645744   5.337   7.279   5.668 -1.2150 -1.0042  1.6453
  175MOL   H15745745   5.211   7.364   5.746 -0.3414  0.0423 -0.2669
  175MOL   C15845746   5.656   7.551   5.825  0.0079  0.4810  0.1492
  175MOL   C15945747   5.738   7.458   5.737 -0.2699  0.4881  0.4260
  175MOL   O16045748   5.844   7.408   5.817 -0.2466 -0.4422 -0.4499
  175MOL   C16145749   5.844   7.281   5.871  0.0093 -0.7668  0.0876
  175MOL   C16245750   5.983   7.260   5.928 -0.2434  0.1309  0.5875
  175MOL   H16345751   5.634   7.495   5.916  2.8813  1.8420  1.7519
  175MOL   H16445752   5.719   7.635   5.852 -0.9153  0.8488  1.2136
  175MOL   H16545753   5.684   7.373   5.696 -0.2050 -0.5015  2.3352
  175MOL   H16645754   5.832   7.197   5.802 -1.7436 -2.1922  2.0882
  175MOL   H16745755   5.780   7.272   5.958  0.5132  1.1290  0.6844
  175MOL   H16845756   6.021   7.345   5.984  1.3011 -0.3406  0.2972
  175MOL   H16945757   5.995   7.168   5.985 -0.4267 -1.0677 -1.2753
  175MOL   H17045758   6.048   7.258   5.841 -0.3765  2.4653  0.3968
  175MOL   C17145759   5.791   7.525   5.609 -0.4952  1.3594 -0.1527
  175MOL   C17245760   5.886   7.437   5.515  0.9246 -0.4245  0.0376
  175MOL   O17345761   5.914   7.510   5.395  0.2480  0.6645 -0.2245
  175MOL   C17445762   5.984   7.636   5.398 -0.4326 -0.2901  0.3274
  175MOL   C17545763   6.044   7.680   5.265 -0.0839  0.4139  0.4223
  175MOL   H17645764   5.846   7.612   5.644 -2.2167  1.1934  3.1817
  175MOL   H17745765   5.705   7.561   5.553  1.1908  3.1869 -1.6319
  175MOL   H17845766   5.987   7.427   5.554  0.5392 -1.6267  0.7567
  175MOL   H17945767   6.081   7.623   5.446 -0.6524  0.0648  0.8810
  175MOL   H18045768   5.926   7.719   5.439 -1.3711 -0.3022 -0.9492
  175MOL   H18145769   5.963   7.664   5.194 -1.4962 -0.0153  2.0944
  175MOL   H18245770   6.063   7.787   5.260  0.7691  0.3637  2.1657
  175MOL   H18345771   6.131   7.621   5.235 -1.6583 -0.9368 -1.5448
  175MOL   C18445772   5.842   7.292   5.480  0.3782 -0.5161  1.1337
  175MOL   C18545773   5.859   7.248   5.333 -0.8160 -0.2807  0.5605
  175MOL   O18645774   5.808   7.115   5.315  0.0403 -0.2714 -0.3074
  175MOL   C18745775   5.680   7.109   5.245 -0.5124  0.2412 -0.3005
  175MOL   C18845776   5.631   6.968   5.240  0.6587  0.6497 -0.0039
  175MOL   H18945777   5.735   7.288   5.497  0.3655 -1.3045  0.8754
  175MOL   H19045778   5.887   7.220   5.549  2.7978  0.4151  0.6017
  175MOL   H19145779   5.798   7.318   5.276 -2.5604 -1.3777  1.0207
  175MOL   H19245780   5.697   7.124   5.138  0.8344  0.3648 -0.0751
  175MOL   H19345781   5.605   7.180   5.278 -3.1730 -2.1807 -0.9008
  175MOL   H19445782   5.687   6.902   5.174 -1.4890 -0.7583 -0.4532
  175MOL   H19545783   5.626   6.930   5.342 -3.5459  0.6901 -0.0840
  175MOL   H19645784   5.525   6.963   5.214  0.1208 -0.4751  2.2489
  175MOL   C19745785   6.011   7.248   5.282  0.1746  0.1384 -0.2717
  175MOL   C19845786   6.116   7.195   5.381 -0.3064 -0.6088 -0.2001
  175MOL   O19945787   6.243   7.215   5.340 -0.0550  0.4166 -0.1523
  175MOL   C20045788   6.295   7.351   5.340  0.0558  0.0469  0.0466
  175MOL   C20145789   6.453   7.332   5.311 -0.5465 -0.5033 -0.1896
  175MOL   H20245790   6.049   7.350   5.272  1.1217 -0.1999 -0.1552
  175MOL   H20345791   6.020   7.199   5.186  2.5881 -1.0449  0.5349
  175MOL   H20445792   6.106   7.228   5.485  0.8746  0.3200 -0.3698
  175MOL   H20545793   6.275   7.399   5.436  2.0246  2.2665 -0.5884
  175MOL   H20645794   6.246   7.423   5.274  0.8700 -0.4664 -1.1267
  175MOL   H20745795   6.473   7.274   5.221  0.7039  0.5241 -0.5926
  175MOL   H20845796   6.514   7.423   5.311  0.8674 -1.4389  0.7999
  175MOL   H20945797   6.499   7.273   5.390 -0.4468 -1.1981 -0.7608
  175MOL   C21045798   6.102   7.035   5.386 -0.3744 -0.5893  0.1740
  175MOL   C21145799   6.206   6.956   5.467  0.0374  0.1864  0.4088
  175MOL   O21245800   6.186   6.817   5.429  0.7771  0.1449  0.3940
  175MOL   C21345801   6.291   6.768   5.339  0.6844  0.2799 -0.3811
  175MOL   C21445802   6.292   6.613   5.318 -0.1118  0.1667 -0.1125
  175MOL   H21545803   6.097   7.000   5.283 -2.6482 -0.8363  0.3584
  175MOL   H21645804   6.001   7.014   5.418 -0.1922 -1.4063  0.2322
  175MOL   H21745805   6.307   6.995   5.451 -0.5320  0.9973 -1.3271
  175MOL   H21845806   6.391   6.791   5.375  0.5146 -1.2208  1.0928
  175MOL   H21945807   6.270   6.826   5.248 -0.3244 -1.5072 -1.3237
  175MOL   H22045808   6.366   6.585   5.243 -0.0006  1.3571 -0.4550
  175MOL   H22145809   6.321   6.571   5.414  0.3484  0.5842 -0.0680
  175MOL   H22245810   6.194   6.572   5.293  0.8007 -1.8737 -0.3942
  175MOL   C22345811   6.184   6.978   5.617 -0.2355 -0.0612 -0.3115
  175MOL   C22445812   6.311   6.985   5.707 -0.5511  0.2016 -0.4484
  175MOL   O22545813   6.384   7.097   5.668  0.4490  0.3099  0.0478
  175MOL   C22645814   6.340   7.222   5.711 -0.9135 -0.6622 -0.6923
  175MOL   C22745815   6.364   7.252   5.861  0.0323  0.2217 -0.2705
  175MOL   H22845816   6.126   6.890   5.648  0.6697 -0.1784  1.0894
  175MOL   H22945817   6.120   7.063   5.639 -2.4058 -1.6375 -0.2679
  175MOL   H23045818   6.281   6.994   5.811 -0.0897  1.6256 -0.4237
  175MOL   H23145819   6.234   7.244   5.702 -1.2465 -1.4529  1.1437
  175MOL   H23245820   6.396   7.294   5.651  0.6774 -1.3444 -0.0715
  175MOL   H23345821   6.459   7.248   5.914 -1.5597  1.8309  2.8358
  175MOL   H23445822   6.333   7.352   5.890 -0.0129 -0.0757  0.6964
  175MOL   H23545823   6.294   7.196   5.923  0.4725  1.1520  1.0720
  175MOL   C23645824   6.394   6.861   5.681 -0.1611  0.0279  0.2099
  175MOL   C23745825   6.506   6.828   5.783 -0.3368  0.1500  0.1826
  175MOL   O23845826   6.448   6.783   5.905  0.1570  0.0462  0.4525
  175MOL   C23945827   6.440   6.643   5.911  0.4835 -0.0563 -0.0995
  175MOL   C24045828   6.342   6.603   6.017  0.0420 -0.0466 -0.4804
  175MOL   H24145829   6.442   6.874   5.584 -3.4246 -2.2705 -1.8464
  175MOL   H24245830   6.325   6.777   5.666  0.1991 -0.1423 -0.4956
  175MOL   H24345831   6.564   6.747   5.740 -0.4263  0.9635 -1.5058
  175MOL   H24445832   6.539   6.605   5.934  0.3981  0.3703  0.9880
  175MOL   H24545833   6.413   6.589   5.820 -1.4277  1.3503 -0.4000
  175MOL   H24645834   6.357   6.664   6.106  1.2760  2.2165 -2.1763
  175MOL   H24745835   6.240   6.624   5.984 -0.2140 -1.3419 -0.5480
  175MOL   H24845836   6.346   6.496   6.035  1.5667  0.0724 -0.0074
  175MOL   C24945837   6.604   6.943   5.810  0.1102 -0.3874  0.4306
  175MOL   C25045838   6.727   6.904   5.892  0.2495  0.1809 -0.0928
  175MOL   O25145839   6.812   7.019   5.901  0.0814 -0.0671  0.3001
  175MOL   C25245840   6.938   6.987   5.962 -0.0502 -0.8988  0.6708
  175MOL   C25345841   7.044   7.085   5.896  0.3006  0.4096  0.4982
  175MOL   H25445842   6.552   7.034   5.841 -2.2066 -1.6257  0.2798
  175MOL   H25545843   6.637   6.972   5.710  2.4374 -1.4704  0.8449
  175MOL   H25645844   6.702   6.872   5.994  1.4680 -0.0578  0.1338
  175MOL   H25745845   6.975   6.886   5.947 -2.0687 -1.8305  1.8927
  175MOL   H25845846   6.932   7.007   6.069 -2.0580 -1.3042  0.6513
  175MOL   H25945847   7.141   7.062   5.939  0.4851 -1.4431 -0.8312
  175MOL   H26045848   7.027   7.053   5.793  1.2061  1.6270 -0.0336
  175MOL   H26145849   7.020   7.191   5.904 -0.6334  0.3719 -1.4526
  175MOL   H26245850   6.792   6.828   5.848  2.4286  2.7594 -1.4419
  176MOL     C145851   2.014   6.026   3.770  0.1044  0.0076 -0.2607
  176MOL     C245852   2.060   6.103   3.887  0.6902 -0.3213 -0.2839
  176MOL     O345853   2.082   6.243   3.853 -0.0475  0.6103 -0.0244
  176MOL     C445854   1.964   6.318   3.837  0.4700  0.2166 -0.2371
  176MOL     C545855   2.008   6.461   3.810  0.2372 -0.6946 -0.2635
  176MOL     H645856   2.078   6.041   3.683 -0.5254  2.0398 -0.4176
  176MOL     H745857   1.990   5.922   3.792 -0.3056  0.1272 -0.1291
  176MOL     H845858   1.990   6.107   3.970 -2.0620 -1.8688 -2.4454
  176MOL     H945859   1.920   6.314   3.936  2.2355 -1.1377  0.5121
  176MOL    H1045860   1.895   6.284   3.760 -0.0138  0.7570 -0.0478
  176MOL    H1145861   2.073   6.467   3.722  1.2716  2.5717  0.6586
  176MOL    H1245862   1.926   6.532   3.795  0.3902 -0.9096 -2.2915
  176MOL    H1345863   2.076   6.487   3.891 -3.6548 -1.2860  3.3763
  176MOL    H1445864   1.920   6.066   3.731 -2.0744 -2.6385  2.1004
  176MOL    C1545865   2.189   6.037   3.937 -0.2929 -0.5914 -0.2592
  176MOL    C1645866   2.255   6.106   4.052  0.1899  0.6322 -0.7781
  176MOL    O1745867   2.370   6.036   4.086  0.5714 -0.4599 -0.2288
  176MOL    C1845868   2.484   6.063   4.006 -0.5230  0.0205  0.8763
  176MOL    C1945869   2.613   6.006   4.064 -0.8772 -0.5354  0.3974
  176MOL    H2045870   2.254   6.021   3.851 -0.4569  0.4996 -0.5944
  176MOL    H2145871   2.161   5.936   3.968  1.5858 -0.5919  1.5155
  176MOL    H2245872   2.276   6.206   4.012 -0.7574  0.5390 -1.5165
  176MOL    H2345873   2.506   6.169   3.992 -0.7245  0.2439  2.1879
  176MOL    H2445874   2.476   6.022   3.905 -0.0448 -2.3469  1.7655
  176MOL    H2545875   2.603   5.904   4.100 -1.8922 -0.1348  1.2616
  176MOL    H2645876   2.646   6.067   4.148  0.2949 -1.1747  0.4234
  176MOL    H2745877   2.699   6.012   3.996 -0.3052  0.4000  1.1884
  176MOL    C2845878   2.174   6.137   4.185  0.4756 -0.0450  0.1755
  176MOL    C2945879   2.245   6.187   4.314  0.0932  0.2262  0.2200
  176MOL    O3045880   2.163   6.184   4.427  0.3503  0.0898 -0.2279
  176MOL    C3145881   2.195   6.098   4.530 -0.1723  0.6270 -0.0950
  176MOL    C3245882   2.067   6.063   4.610 -0.2097 -0.1769 -0.4992
  176MOL    H3345883   2.131   6.042   4.216  1.4261  0.2604  2.4917
  176MOL    H3445884   2.093   6.207   4.163  1.8373  1.8395  1.0576
  176MOL    H3545885   2.335   6.130   4.334 -0.0347 -1.0290 -2.5104
  176MOL    H3645886   2.286   6.126   4.583  0.3869 -1.5361  0.1382
  176MOL    H3745887   2.229   6.009   4.479 -0.6742  0.4465 -0.1194
  176MOL    H3845888   2.081   5.976   4.674 -4.7731  0.7422  1.9047
  176MOL    H3945889   2.039   6.148   4.673 -2.5272  0.6541 -2.5586
  176MOL    H4045890   1.989   6.028   4.543 -0.3895  1.2672 -1.0771
  176MOL    C4145891   2.307   6.319   4.300  0.2582 -0.2156  0.5511
  176MOL    C4245892   2.407   6.359   4.414 -0.3315 -0.3551 -0.5234
  176MOL    O4345893   2.445   6.500   4.411 -0.5724 -0.1543 -0.2725
  176MOL    C4445894   2.373   6.583   4.491  0.0706 -0.9932 -0.1586
  176MOL    C4545895   2.408   6.729   4.449 -0.0073  0.2395 -0.1090
  176MOL    H4645896   2.229   6.396   4.300  0.2553 -0.2186  0.6856
  176MOL    H4745897   2.355   6.331   4.203 -0.8764  1.0617  0.1207
  176MOL    H4845898   2.361   6.334   4.510  0.0573 -1.1991 -0.5478
  176MOL    H4945899   2.399   6.565   4.595  2.9724  0.4494 -0.5672
  176MOL    H5045900   2.268   6.576   4.463  0.3910 -1.4683 -1.2963
  176MOL    H5145901   2.379   6.736   4.344 -1.3977 -1.2701  0.1636
  176MOL    H5245902   2.360   6.799   4.517 -1.3763  0.7642 -1.6028
  176MOL    H5345903   2.516   6.747   4.455 -0.0029  0.6123 -1.2291
  176MOL    C5445904   2.546   6.285   4.414  0.4904  0.0645 -0.3412
  176MOL    C5545905   2.674   6.342   4.485  0.2558  0.2442  0.3694
  176MOL    O5645906   2.784   6.258   4.462  0.0262  0.2479  0.1905
  176MOL    C5745907   2.834   6.251   4.327 -0.0667 -0.6634 -0.0242
  176MOL    C5845908   2.949   6.147   4.332 -0.3405  0.1432 -0.7814
  176MOL    H5945909   2.570   6.267   4.310 -0.5568  2.0212 -0.9468
  176MOL    H6045910   2.530   6.187   4.460  3.1805  0.6062  1.8516
  176MOL    H6145911   2.691   6.436   4.432 -1.9019 -0.6187 -1.9397
  176MOL    H6245912   2.872   6.346   4.289  0.3047 -1.0187 -0.5557
  176MOL    H6345913   2.767   6.217   4.248  0.6579 -1.2645 -0.3854
  176MOL    H6445914   2.919   6.046   4.358 -0.3112  0.2641 -0.2791
  176MOL    H6545915   2.987   6.134   4.231 -1.8928  0.6335 -1.4483
  176MOL    H6645916   3.026   6.184   4.399 -2.2303  2.8432 -0.0160
  176MOL    C6745917   2.654   6.348   4.637 -0.4113 -0.0718 -0.1112
  176MOL    C6845918   2.769   6.429   4.696  0.3033 -0.0939 -0.0222
  176MOL    O6945919   2.817   6.361   4.811 -0.4227 -0.2223 -1.0122
  176MOL    C7045920   2.953   6.375   4.835 -1.0863 -0.3004  0.3999
  176MOL    C7145921   2.969   6.336   4.982  0.2059 -0.5461 -0.1720
  176MOL    H7245922   2.675   6.249   4.677  1.1574  0.1785 -0.2752
  176MOL    H7345923   2.556   6.384   4.670  0.3426  0.2005  1.8476
  176MOL    H7445924   2.853   6.426   4.627 -0.1177 -1.8569 -0.4879
  176MOL    H7545925   2.980   6.478   4.814  1.4546 -0.5694  2.1219
  176MOL    H7645926   3.007   6.325   4.755  0.6103  1.4548  0.4401
  176MOL    H7745927   3.061   6.371   5.028 -0.1790  0.6786 -0.3059
  176MOL    H7845928   2.881   6.376   5.033  1.5617  2.1475  0.1443
  176MOL    H7945929   2.975   6.229   5.000  4.4762 -0.3319  0.0653
  176MOL    C8045930   2.731   6.576   4.731  0.6648  0.0417 -0.1112
  176MOL    C8145931   2.670   6.619   4.859 -0.3285  0.1825 -0.2510
  176MOL    O8245932   2.539   6.559   4.884 -1.3631 -0.5054 -0.6052
  176MOL    C8345933   2.543   6.465   4.988  0.4498  0.8681 -0.4411
  176MOL    C8445934   2.415   6.397   4.995 -0.5771  0.7568 -0.0596
  176MOL    H8545935   2.653   6.604   4.661 -1.3317 -0.4043  1.8683
  176MOL    H8645936   2.814   6.646   4.721 -0.3289  0.8343 -3.1417
  176MOL    H8745937   2.733   6.592   4.943 -3.2869  0.2953  2.0823
  176MOL    H8845938   2.566   6.522   5.079 -3.2054  3.1262 -0.8335
  176MOL    H8945939   2.621   6.392   4.965 -1.2858 -0.6948 -1.4010
  176MOL    H9045940   2.322   6.445   5.025 -1.2165 -0.1792 -0.4908
  176MOL    H9145941   2.387   6.352   4.899 -0.3992 -1.0654  0.7286
  176MOL    H9245942   2.426   6.314   5.065 -1.5140 -0.5275 -1.3840
  176MOL    C9345943   2.623   6.767   4.859  0.1636  0.0939  0.0492
  176MOL    C9445944   2.584   6.821   4.994 -0.5372  0.2494  0.4039
  176MOL    O9545945   2.552   6.956   4.976 -0.1002 -0.1734  0.4651
  176MOL    C9645946   2.423   6.985   4.922  0.2751  0.0203 -0.0014
  176MOL    C9745947   2.420   7.137   4.895  0.0225  0.5455 -0.2983
  176MOL    H9845948   2.551   6.784   4.779  3.4171  2.5776 -2.5060
  176MOL    H9945949   2.708   6.823   4.821  0.7867  0.6288  2.1432
  176MOL   H10045950   2.498   6.768   5.036 -0.0949 -0.8394 -0.0484
  176MOL   H10145951   2.344   6.954   4.990  1.8880  0.1781  1.9968
  176MOL   H10245952   2.407   6.919   4.837  0.4575 -2.1370  1.5890
  176MOL   H10345953   2.487   7.166   4.814 -1.1428 -0.0153 -1.4727
  176MOL   H10445954   2.318   7.165   4.871 -1.6626 -2.4394  2.8071
  176MOL   H10545955   2.459   7.197   4.977  1.9567  0.3011 -0.9939
  176MOL   C10645956   2.697   6.801   5.098  0.5371 -0.4716  0.3598
  176MOL   C10745957   2.829   6.872   5.062 -0.1157 -0.3761  0.5351
  176MOL   O10845958   2.914   6.765   5.030 -0.0121 -0.1658  0.1277
  176MOL   C10945959   3.012   6.799   4.931 -0.5130  0.3729 -0.5671
  176MOL   C11045960   3.127   6.714   4.958 -0.5394 -0.2240  0.5983
  176MOL   H11145961   2.713   6.701   5.137 -1.0701 -0.1270  1.9696
  176MOL   H11245962   2.664   6.854   5.187  2.0819  2.5581 -0.7752
  176MOL   H11345963   2.811   6.944   4.982  2.1967  1.6226  1.7196
  176MOL   H11445964   3.041   6.904   4.930  0.0960  0.2198  0.0459
  176MOL   H11545965   2.975   6.778   4.831  0.2028 -1.0818 -0.5370
  176MOL   H11645966   3.163   6.709   5.060  0.5227 -0.2909  0.2250
  176MOL   H11745967   3.109   6.610   4.932  2.5131 -0.8458  0.8614
  176MOL   H11845968   3.211   6.734   4.891  0.5281 -0.0175  1.9816
  176MOL   C11945969   2.898   6.962   5.171  0.2360  1.1127 -0.2475
  176MOL   C12045970   2.841   7.101   5.170  0.2793  0.2422 -0.2530
  176MOL   O12145971   2.900   7.192   5.075 -0.0101 -0.2633 -0.0809
  176MOL   C12245972   2.821   7.256   4.973  0.6702 -0.0359  0.3739
  176MOL   C12345973   2.919   7.316   4.873  0.4638 -0.3814  0.6707
  176MOL   H12445974   3.006   6.947   5.171  0.0279 -0.5381  0.5813
  176MOL   H12545975   2.863   6.921   5.265 -0.6885 -0.1856 -1.1408
  176MOL   H12645976   2.735   7.085   5.154  0.2634 -1.2721  1.2186
  176MOL   H12745977   2.753   7.323   5.025  0.2766 -1.7220  2.1088
  176MOL   H12845978   2.759   7.181   4.923  2.0260 -1.7461  1.1965
  176MOL   H12945979   2.929   7.425   4.882 -1.1347  0.1025 -2.5522
  176MOL   H13045980   3.017   7.280   4.904  1.6036  1.0368 -1.1750
  176MOL   H13145981   2.888   7.284   4.774 -1.0338  0.8714  0.7007
  176MOL   C13245982   2.859   7.163   5.308  0.2934  0.7085  0.0851
  176MOL   C13345983   2.767   7.277   5.345 -0.6902 -0.1100  1.1580
  176MOL   O13445984   2.781   7.309   5.485  0.3587 -0.3989  0.0345
  176MOL   C13545985   2.913   7.345   5.532 -1.1698 -0.5446  0.0048
  176MOL   C13645986   2.891   7.454   5.639  0.3102 -0.1354  0.7145
  176MOL   H13745987   2.965   7.180   5.325  0.4977 -0.8684  0.3901
  176MOL   H13845988   2.838   7.084   5.380 -2.2583 -1.5754 -3.0126
  176MOL   H13945989   2.815   7.359   5.291  0.8346 -1.1319  0.9121
  176MOL   H14045990   2.971   7.385   5.448  0.3428 -1.7223  0.4501
  176MOL   H14145991   2.964   7.255   5.566 -0.6530 -0.0589  0.5495
  176MOL   H14245992   2.979   7.498   5.686 -0.7981  2.0253  0.8432
  176MOL   H14345993   2.832   7.538   5.603 -0.2871 -0.5353  0.7498
  176MOL   H14445994   2.839   7.413   5.725  1.5785 -1.3704  0.9246
  176MOL   C14545995   2.622   7.270   5.309  0.5196 -0.1518 -0.1091
  176MOL   C14645996   2.546   7.153   5.383 -0.2837  0.1131 -0.4907
  176MOL   O14745997   2.413   7.156   5.336 -0.4977  0.0243  0.0671
  176MOL   C14845998   2.358   7.030   5.312  1.0253 -0.0956 -0.1404
  176MOL   C14945999   2.207   7.045   5.294 -0.6822  1.1849 -0.4153
  176MOL   H15046000   2.610   7.256   5.202 -0.2833 -0.4626  0.0212
  176MOL   H15146001   2.578   7.367   5.334 -1.6730 -0.3527 -3.0141
  176MOL   H15246002   2.592   7.059   5.354 -1.1238 -0.4116 -0.1436
  176MOL   H15346003   2.384   6.955   5.387 -0.2981  0.1830  0.5952
  176MOL   H15446004   2.395   6.996   5.215  3.3855 -0.5809  0.8857
  176MOL   H15546005   2.159   7.077   5.387 -0.9734 -0.8725  0.1500
  176MOL   H15646006   2.185   7.115   5.214  0.6206  1.7898 -0.2579
  176MOL   H15746007   2.154   6.951   5.281 -1.5499  1.6770 -0.4608
  176MOL   C15846008   2.533   7.162   5.540 -0.4258  0.2140  0.0133
  176MOL   C15946009   2.615   7.057   5.621  0.7020  0.1599 -0.1472
  176MOL   O16046010   2.573   6.930   5.560 -0.3578 -0.3716 -0.7733
  176MOL   C16146011   2.674   6.829   5.528  0.3747 -0.4374  0.2128
  176MOL   C16246012   2.601   6.721   5.454  0.3686  0.6083 -0.4230
  176MOL   H16346013   2.428   7.137   5.556 -0.9033  1.2423 -1.4381
  176MOL   H16446014   2.538   7.262   5.582 -1.5604 -0.2266  1.2511
  176MOL   H16546015   2.721   7.061   5.599  0.3275  3.1052 -1.5654
  176MOL   H16646016   2.729   6.791   5.614  0.6147  0.3684  0.4192
  176MOL   H16746017   2.754   6.867   5.465 -0.0093 -0.1449 -0.1044
  176MOL   H16846018   2.570   6.754   5.355  1.7797 -0.5595 -1.2649
  176MOL   H16946019   2.659   6.629   5.455 -1.9839 -0.9346  2.6751
  176MOL   H17046020   2.502   6.692   5.490  0.0460 -2.2266 -3.3632
  176MOL   C17146021   2.574   7.049   5.772  0.6174 -0.2596  1.0001
  176MOL   C17246022   2.672   7.128   5.856  0.4150  0.0589  0.9726
  176MOL   O17346023   2.783   7.056   5.899 -0.0414 -0.8368 -0.2936
  176MOL   C17446024   2.906   7.104   5.844 -0.4734 -0.6100  0.4364
  176MOL   C17546025   3.017   7.013   5.902  0.4466 -0.4780  0.8617
  176MOL   H17646026   2.570   6.944   5.801  0.5986  0.0153  1.9939
  176MOL   H17746027   2.470   7.080   5.782  0.1485 -1.6544  0.6034
  176MOL   H17846028   2.697   7.211   5.791 -0.2214 -1.1336 -0.8324
  176MOL   H17946029   2.938   7.207   5.854 -1.3405 -0.3163  0.2260
  176MOL   H18046030   2.916   7.073   5.740  1.4308 -0.9304  0.6783
  176MOL   H18146031   2.995   6.907   5.892 -1.1918 -0.0507 -0.3969
  176MOL   H18246032   3.116   7.031   5.861  0.8904 -2.7758  0.8659
  176MOL   H18346033   3.021   7.027   6.010 -1.9906  1.4763  0.7427
  176MOL   C18446034   2.612   7.194   5.978 -0.4853 -0.0413  0.0845
  176MOL   C18546035   2.523   7.316   5.947  0.2996 -0.0988  0.3190
  176MOL   O18646036   2.603   7.434   5.920  0.3887  0.0530 -0.9148
  176MOL   C18746037   2.572   7.507   5.802 -0.2957 -0.1868  0.0190
  176MOL   C18846038   2.645   7.640   5.807  0.2218 -0.3195 -0.3512
  176MOL   H18946039   2.693   7.226   6.043 -0.9724 -0.0420  0.7043
  176MOL   H19046040   2.552   7.111   6.016  1.4445 -1.7017 -0.4242
  176MOL   H19146041   2.464   7.302   5.857 -0.4941  0.8686  0.6837
  176MOL   H19246042   2.465   7.513   5.782 -0.1454 -1.4426 -1.2440
  176MOL   H19346043   2.619   7.457   5.717 -0.2962 -2.8957  1.5648
  176MOL   H19446044   2.750   7.626   5.831  0.4360  1.2004 -0.3515
  176MOL   H19546045   2.635   7.684   5.708  0.3215  1.3668  0.3719
  176MOL   H19646046   2.600   7.706   5.881  1.0710 -0.3180  0.1696
  176MOL   C19746047   2.428   7.347   6.066  0.6654  0.5493  0.1121
  176MOL   C19846048   2.299   7.254   6.058 -0.2426 -0.5760 -0.2750
  176MOL   O19946049   2.180   7.326   6.037 -0.1160  0.0541 -0.2412
  176MOL   C20046050   2.175   7.387   5.907 -0.1770  0.3995  0.0974
  176MOL   C20146051   2.034   7.444   5.888 -0.1888 -0.7636 -0.7427
  176MOL   H20246052   2.393   7.450   6.056 -0.5941  0.0595 -0.7076
  176MOL   H20346053   2.472   7.341   6.166 -2.2056  1.8297  1.5115
  176MOL   H20446054   2.311   7.194   5.968 -1.8285 -0.7711 -0.3736
  176MOL   H20546055   2.179   7.304   5.836 -0.6748  1.0894 -0.7466
  176MOL   H20646056   2.256   7.458   5.893  1.7340 -2.1817 -2.6316
  176MOL   H20746057   1.959   7.365   5.884 -1.7900  0.7455 -0.8694
  176MOL   H20846058   2.012   7.507   5.974  0.9821  1.2015 -1.8583
  176MOL   H20946059   2.030   7.507   5.800 -1.4868  1.1898  0.6829
  176MOL   C21046060   2.273   7.163   6.178  0.8199 -0.1260 -0.0850
  176MOL   C21146061   2.140   7.073   6.170 -0.7091 -1.1389 -0.1292
  176MOL   O21246062   2.134   6.967   6.268  0.0347 -0.3530  0.0421
  176MOL   C21346063   2.107   7.012   6.405  0.3292  0.3150 -0.1186
  176MOL   C21446064   2.085   6.894   6.497  0.4153  0.0206  0.0895
  176MOL   H21546065   2.268   7.219   6.272 -1.1157 -1.0303  0.3839
  176MOL   H21646066   2.358   7.098   6.198  1.2734  0.4488 -0.1207
  176MOL   H21746067   2.058   7.142   6.189  0.2965  1.0012 -3.3084
  176MOL   H21846068   2.024   7.082   6.409  1.1853  1.2310  1.6814
  176MOL   H21946069   2.188   7.079   6.432 -1.3122  1.7938  1.2396
  176MOL   H22046070   2.157   6.814   6.481  1.6108  0.9055  0.8941
  176MOL   H22146071   2.100   6.936   6.597  0.4183 -0.5508  0.3318
  176MOL   H22246072   1.985   6.853   6.487  1.2479 -2.0928  0.3057
  176MOL   C22346073   2.114   6.988   6.034 -0.0249  0.3443  0.4539
  176MOL   C22446074   1.975   6.915   6.032  0.5752 -0.2894  0.4768
  176MOL   O22546075   1.963   6.855   5.903  0.5412 -0.1021  0.4724
  176MOL   C22646076   2.017   6.720   5.876 -0.5396  0.3496 -0.2823
  176MOL   C22746077   1.968   6.683   5.741  0.4167  0.2407 -0.2587
  176MOL   H22846078   2.199   6.921   6.019 -0.4620 -0.5327  1.7904
  176MOL   H22946079   2.104   7.053   5.947 -1.6594  1.5178  1.4896
  176MOL   H23046080   1.979   6.830   6.100 -2.7783  0.4858  1.7564
  176MOL   H23146081   1.981   6.644   5.946  1.4756 -1.4402 -1.1347
  176MOL   H23246082   2.126   6.716   5.880 -0.5774 -2.3692 -1.0114
  176MOL   H23346083   2.032   6.607   5.696  1.0887 -0.1323  1.3073
  176MOL   H23446084   1.866   6.646   5.748  0.5540  0.1724  1.4558
  176MOL   H23546085   1.963   6.770   5.676 -0.9933  0.1427 -0.2959
  176MOL   C23646086   1.840   7.002   6.051  0.1349 -0.4902  0.0701
  176MOL   C23746087   1.723   6.905   6.076  0.9460  0.2936 -0.2991
  176MOL   O23846088   1.609   6.987   6.089  0.6238  0.2912  0.5037
  176MOL   C23946089   1.515   6.969   5.978 -0.3707 -0.4359 -0.1333
  176MOL   C24046090   1.422   6.849   5.997 -0.0490 -0.0496  0.1192
  176MOL   H24146091   1.817   7.062   5.963  0.3129  1.4087  1.2995
  176MOL   H24246092   1.863   7.067   6.135  0.8609  0.5923 -0.9457
  176MOL   H24346093   1.723   6.835   5.992  1.0676  0.7599 -0.6903
  176MOL   H24446094   1.563   6.961   5.881  1.9846 -0.0298  0.9770
  176MOL   H24546095   1.447   7.054   5.981  0.7355  0.4341  0.5971
  176MOL   H24646096   1.376   6.845   6.095 -0.7971 -1.2136 -0.2733
  176MOL   H24746097   1.343   6.850   5.921  0.8212  0.1385 -0.7965
  176MOL   H24846098   1.472   6.753   5.985 -0.6957 -0.6161  1.8549
  176MOL   C24946099   1.732   6.837   6.210  0.0049  0.0509 -0.2500
  176MOL   C25046100   1.614   6.758   6.273  0.7320 -0.5217 -0.1282
  176MOL   O25146101   1.655   6.686   6.392  0.0806  0.0561 -0.6471
  176MOL   C25246102   1.548   6.625   6.466 -0.5301  0.6791  0.1818
  176MOL   C25346103   1.460   6.523   6.387 -0.2879  0.2409 -0.3499
  176MOL   H25446104   1.759   6.915   6.281  2.5223 -0.7650 -0.2317
  176MOL   H25546105   1.817   6.770   6.221 -0.1620 -0.1870 -0.4194
  176MOL   H25646106   1.538   6.827   6.309  1.3143 -0.5164  1.1000
  176MOL   H25746107   1.477   6.698   6.508  0.6726  1.0041  1.6720
  176MOL   H25846108   1.598   6.570   6.546  0.2915 -1.5369 -1.8161
  176MOL   H25946109   1.513   6.437   6.347  1.2852  0.9811  0.1212
  176MOL   H26046110   1.373   6.498   6.449 -0.1481  0.3428 -0.1150
  176MOL   H26146111   1.426   6.572   6.296  0.8616  1.2361 -0.2535
  176MOL   H26246112   1.567   6.685   6.207 -1.0611 -1.9855  2.7182
  177MOL     C146113   2.141   7.356   2.909  0.0532 -0.3708  0.3858
  177MOL     C246114   2.202   7.460   2.818  0.7991 -0.2759  0.4689
  177MOL     O346115   2.344   7.445   2.785 -0.5818  0.4242 -0.7280
  177MOL     C446116   2.369   7.368   2.671 -0.2734 -0.4789  0.0971
  177MOL     C546117   2.521   7.359   2.641 -0.3074  0.7408 -0.3389
  177MOL     H646118   2.046   7.391   2.949  0.2236 -2.0283  2.3225
  177MOL     H746119   2.124   7.269   2.846  4.1286 -0.3960 -0.7698
  177MOL     H846120   2.142   7.445   2.728  1.9365 -0.8583 -0.1995
  177MOL     H946121   2.330   7.416   2.581  1.6396  1.9551  0.5229
  177MOL    H1046122   2.326   7.267   2.672 -1.9254  0.2111  0.3356
  177MOL    H1146123   2.539   7.277   2.571 -1.5299 -0.7596  1.0726
  177MOL    H1246124   2.562   7.448   2.593  1.3598  1.3500  2.1467
  177MOL    H1346125   2.580   7.335   2.729 -0.3402 -0.7997 -0.7227
  177MOL    H1446126   2.196   7.324   2.998 -1.1343  0.8114  1.5680
  177MOL    C1546127   2.187   7.605   2.879  0.2930 -0.0252  0.9423
  177MOL    C1646128   2.209   7.725   2.781 -0.1669  0.1637 -0.1456
  177MOL    O1746129   2.193   0.013   2.840  0.3334  1.1287  0.0131
  177MOL    C1846130   2.268   0.050   2.953  0.0675  0.7771 -0.0409
  177MOL    C1946131   2.257   0.205   2.976  0.0314 -0.5219 -0.5466
  177MOL    H2046132   2.256   7.616   2.962  1.7730 -2.2326  0.0472
  177MOL    H2146133   2.088   7.621   2.922  1.0713  0.1269  2.7218
  177MOL    H2246134   2.307   7.712   2.736  0.5106  0.2278  1.2802
  177MOL    H2346135   2.372   0.031   2.927  0.1102  0.7363  0.1626
  177MOL    H2446136   2.234   7.837   3.039 -0.6089  3.5682  1.5815
  177MOL    H2546137   2.302   0.239   3.070 -1.5592  1.4142 -0.4567
  177MOL    H2646138   2.158   0.250   2.984  0.6395  0.7552  0.0616
  177MOL    H2746139   2.313   0.258   2.899  0.3944  0.4960  0.4020
  177MOL    C2846140   2.098   7.718   2.670  0.0150 -0.1488  0.5498
  177MOL    C2946141   2.106   7.819   2.555  0.1875 -0.1188  0.2446
  177MOL    O3046142   1.984   7.815   2.484 -0.4579 -0.6289 -0.5106
  177MOL    C3146143   1.952   0.098   2.422  0.3051  0.6896  0.1476
  177MOL    C3246144   1.824   0.066   2.332 -0.2894 -0.2457  0.7705
  177MOL    H3346145   2.005   7.730   2.725  0.3051  1.7600  0.6850
  177MOL    H3446146   2.096   7.617   2.629 -1.6441  0.3795 -0.6960
  177MOL    H3546147   2.124   0.079   2.584  0.0512 -0.1259  0.3546
  177MOL    H3646148   2.025   0.156   2.366  0.9034 -1.2758 -1.1690
  177MOL    H3746149   1.933   0.170   2.500  3.2198  0.9526  0.6528
  177MOL    H3846150   1.740   0.057   2.400 -0.1199  1.7894  1.2838
  177MOL    H3946151   1.807   0.156   2.273  0.0072  0.2155  1.3814
  177MOL    H4046152   1.844   7.821   2.271  1.0891  0.3955  0.2654
  177MOL    C4146153   2.213   7.791   2.449  0.4990 -0.2206 -0.7023
  177MOL    C4246154   2.339   0.022   2.459  0.6675  0.2307  0.1956
  177MOL    O4346155   2.311   0.160   2.452 -0.1574  0.6773 -0.1702
  177MOL    C4446156   2.352   0.243   2.561  0.1182  0.2667  0.1456
  177MOL    C4546157   2.264   0.372   2.551 -0.0405  0.6405 -0.4366
  177MOL    H4646158   2.170   7.796   2.349 -0.9330 -1.3425 -0.1606
  177MOL    H4746159   2.230   7.683   2.454  0.1717 -0.2688 -0.6236
  177MOL    H4846160   2.397   0.007   2.550  0.9089  1.0981  0.1941
  177MOL    H4946161   2.460   0.262   2.564  0.1555  0.2300 -0.7409
  177MOL    H5046162   2.332   0.188   2.653  1.5286  0.4965  0.6023
  177MOL    H5146163   2.270   0.416   2.451  0.1714  0.9293 -0.2985
  177MOL    H5246164   2.166   0.352   2.594  0.6283 -1.5459  0.1010
  177MOL    H5346165   2.303   0.449   2.616  1.9797  0.0656 -0.9290
  177MOL    C5446166   2.433   7.834   2.336 -0.0556  0.3671 -0.0696
  177MOL    C5546167   2.579   0.030   2.346 -0.3221 -0.3984  0.3882
  177MOL    O5646168   2.639   0.005   2.222 -0.4977  0.3336 -0.1473
  177MOL    C5746169   2.675   0.103   2.132  0.4197 -0.4072  0.3744
  177MOL    C5846170   2.699   0.041   1.999 -0.1883 -0.1053  0.3552
  177MOL    H5946171   2.392   0.039   2.247  0.9819  1.7907  0.2075
  177MOL    H6046172   2.436   7.727   2.316 -1.2507 -0.0607  1.8913
  177MOL    H6146173   2.581   0.136   2.370 -0.6350 -0.0163 -1.2585
  177MOL    H6246174   2.761   0.161   2.167 -0.6252  1.7869 -0.6210
  177MOL    H6346175   2.592   0.173   2.124  0.2121 -0.5840  0.9785
  177MOL    H6446176   2.761   7.795   2.001 -0.1162 -0.0934 -0.6671
  177MOL    H6546177   2.610   0.001   1.951 -0.2597 -1.1748  1.3621
  177MOL    H6646178   2.736   0.117   1.930  0.7482 -1.8486 -1.1274
  177MOL    C6746179   2.660   7.806   2.457  0.1082 -0.1528  0.0230
  177MOL    C6846180   2.809   7.838   2.463  0.1118 -0.0141 -0.5209
  177MOL    O6946181   2.861   7.756   2.567  0.7542  0.1896 -0.0850
  177MOL    C7046182   2.917   7.636   2.531 -0.1088  0.2363  0.4210
  177MOL    C7146183   2.923   7.533   2.638  0.4403 -0.6452  0.0907
  177MOL    H7246184   2.653   7.698   2.444  2.1753 -0.2816 -0.1186
  177MOL    H7346185   2.617   7.819   2.557 -0.2514  0.1200 -0.1641
  177MOL    H7446186   2.860   7.822   2.368  0.0660 -1.7409 -0.2681
  177MOL    H7546187   3.015   7.666   2.494  0.3435 -0.2179  1.2118
  177MOL    H7646188   2.863   7.594   2.446  2.4558 -0.3624 -0.9544
  177MOL    H7746189   2.824   7.502   2.673 -0.0556 -0.6290 -1.2887
  177MOL    H7846190   2.974   7.439   2.620  1.0873  0.0162 -1.5848
  177MOL    H7946191   2.983   7.581   2.716  0.6994 -0.6132 -0.1282
  177MOL    C8046192   2.839   0.143   2.505 -0.0167  0.0754 -0.0792
  177MOL    C8146193   2.989   0.176   2.505  0.3403  0.3009  0.4490
  177MOL    O8246194   2.999   0.310   2.563 -0.5630  0.1306  0.5239
  177MOL    C8346195   3.020   0.315   2.703  0.4726 -0.4186  0.6800
  177MOL    C8446196   3.166   0.273   2.740  0.4163  0.2264  0.4748
  177MOL    H8546197   2.795   0.180   2.597  0.3851  1.2841 -0.3630
  177MOL    H8646198   2.798   0.211   2.431  0.7116  2.1148  1.3532
  177MOL    H8746199   3.035   0.101   2.569  1.6213 -0.0636 -0.8536
  177MOL    H8846200   2.951   0.248   2.754 -1.1125 -2.3565 -3.7116
  177MOL    H8946201   3.001   0.417   2.737 -2.8071 -1.1730  1.2659
  177MOL    H9046202   3.188   0.293   2.845 -1.5588  0.7791  0.8029
  177MOL    H9146203   3.167   0.164   2.738 -0.3395  0.2216  0.1781
  177MOL    H9246204   3.239   0.314   2.670  2.2618 -2.5259  0.6949
  177MOL    C9346205   3.067   0.183   2.374 -0.2812  1.0398 -0.0190
  177MOL    C9446206   3.221   0.176   2.397 -0.1776  0.1536  0.3823
  177MOL    O9546207   3.285   0.191   2.270  0.0896 -0.0719 -0.1352
  177MOL    C9646208   3.333   0.320   2.235 -0.0328  0.0460  0.5995
  177MOL    C9746209   3.400   0.314   2.097  0.4455 -0.2392 -0.4324
  177MOL    H9846210   3.049   0.276   2.320 -1.0366 -0.3525 -2.2484
  177MOL    H9946211   3.034   0.096   2.318  0.4415  0.6318  0.1865
  177MOL   H10046212   3.239   0.257   2.467  0.8163  0.3490 -0.0964
  177MOL   H10146213   3.402   0.358   2.310  1.4670  1.5399 -1.4663
  177MOL   H10246214   3.248   0.387   2.229  1.5395  2.0370  0.2070
  177MOL   H10346215   3.466   0.398   2.075  0.5020  0.3621  1.8806
  177MOL   H10446216   3.455   0.221   2.084  1.5476  0.1427  1.3425
  177MOL   H10546217   3.330   0.307   2.014  1.5174  1.4749 -1.5152
  177MOL   C10646218   3.279   0.040   2.449 -0.5363  0.0210 -0.5512
  177MOL   C10746219   3.434   0.027   2.463  0.1889  0.2870  0.2464
  177MOL   O10846220   3.467   7.741   2.511 -0.8672 -0.6701  0.0540
  177MOL   C10946221   3.473   7.644   2.412 -0.1235 -0.5793 -0.0014
  177MOL   C11046222   3.493   7.514   2.484 -0.8297 -0.3846  0.3612
  177MOL   H11146223   3.240   7.803   2.387 -1.5072 -0.4709  0.6804
  177MOL   H11246224   3.237   0.006   2.544  0.9521  3.6938  1.5196
  177MOL   H11346225   3.482   0.038   2.366  2.8769 -0.7149  1.4333
  177MOL   H11446226   3.556   7.656   2.342  0.5481  0.1167  0.9027
  177MOL   H11546227   3.384   7.639   2.349 -1.6071 -0.6150  2.0531
  177MOL   H11646228   3.409   7.466   2.534 -0.1936 -1.2246  0.6426
  177MOL   H11746229   3.520   7.454   2.397  3.3446  0.1343  1.1512
  177MOL   H11846230   3.579   7.514   2.552  0.0740 -2.8639 -0.7308
  177MOL   C11946231   3.494   0.123   2.563  0.2194 -0.1395 -1.1244
  177MOL   C12046232   3.630   0.084   2.621 -0.1428 -0.3057  0.9715
  177MOL   O12146233   3.699   0.190   2.691 -0.1713 -0.3962 -0.5239
  177MOL   C12246234   3.666   0.202   2.825 -0.5921 -0.6615 -0.1880
  177MOL   C12346235   3.731   0.099   2.917 -0.1887 -0.2071  1.5154
  177MOL   H12446236   3.425   0.138   2.646  0.3366  0.5060 -1.1369
  177MOL   H12546237   3.518   0.221   2.520  1.4268  0.5377  0.9783
  177MOL   H12646238   3.609   7.842   2.686  1.2117  0.3938  2.3468
  177MOL   H12746239   3.560   0.187   2.845 -0.9515 -0.2602 -1.7570
  177MOL   H12846240   3.701   0.297   2.866  0.2381 -0.8979 -0.3441
  177MOL   H12946241   3.696   0.106   3.020 -1.2408 -0.3928  1.1846
  177MOL   H13046242   3.692   0.001   2.887 -0.4910  0.4980 -0.4573
  177MOL   H13146243   3.839   0.103   2.904 -0.4655 -0.8869 -1.5546
  177MOL   C13246244   3.737   0.040   2.519 -0.4087 -0.3548  0.2845
  177MOL   C13346245   3.863   7.824   2.583 -0.4575  0.8635 -0.4550
  177MOL   O13446246   3.964   7.800   2.482 -0.3536 -0.1463 -0.4690
  177MOL   C13546247   4.093   0.025   2.503  0.1031 -0.7874 -0.8214
  177MOL   C13646248   4.161   0.018   2.368  0.7353 -0.9053  0.5973
  177MOL   H13746249   3.766   0.126   2.459  1.5884 -1.3905 -0.2785
  177MOL   H13846250   3.702   7.806   2.451 -0.8825 -0.2101  0.3642
  177MOL   H13946251   3.892   0.054   2.658  1.6695  0.6124 -1.0067
  177MOL   H14046252   4.153   7.826   2.584  0.0470 -0.5508 -0.6545
  177MOL   H14146253   4.079   0.130   2.530 -0.5282 -0.8213 -0.9973
  177MOL   H14246254   4.208   7.766   2.348  1.2935 -0.3655 -0.7316
  177MOL   H14346255   4.093   0.029   2.284  1.1205  0.5587  0.4562
  177MOL   H14446256   4.244   0.087   2.349  0.3426 -0.6914 -0.3703
  177MOL   C14546257   3.834   7.684   2.647 -0.1594  0.3194  0.0918
  177MOL   C14646258   3.951   7.601   2.697 -0.0901 -0.8551 -0.4060
  177MOL   O14746259   3.892   7.493   2.766 -0.7848  0.2786 -0.0213
  177MOL   C14846260   3.869   7.383   2.681 -0.0390 -0.1826 -0.3484
  177MOL   C14946261   3.764   7.294   2.763  0.1214 -0.1356  0.1458
  177MOL   H15046262   3.776   7.626   2.577 -1.7263  1.0721  0.7357
  177MOL   H15146263   3.769   7.711   2.730  1.2216  2.8155  0.4257
  177MOL   H15246264   4.019   7.579   2.616 -1.2715  1.6996 -2.1862
  177MOL   H15346265   3.963   7.331   2.661 -0.7973 -0.7881 -2.5266
  177MOL   H15446266   3.825   7.410   2.584 -1.5537  0.5219  0.5242
  177MOL   H15546267   3.795   7.253   2.860 -1.1006 -2.5093 -0.4154
  177MOL   H15646268   3.676   7.354   2.784 -0.1968 -1.0246  1.4228
  177MOL   H15746269   3.724   7.219   2.695 -3.6656  2.2282 -0.3674
  177MOL   C15846270   4.012   7.678   2.813 -0.8594  0.2687  0.1071
  177MOL   C15946271   4.117   7.605   2.892  0.3128  0.3219  0.4105
  177MOL   O16046272   4.156   7.707   2.982  0.0125  0.1438  0.3848
  177MOL   C16146273   4.124   7.683   3.113  0.2857 -0.0267 -0.4856
  177MOL   C16246274   4.142   7.806   3.200 -0.6511 -0.6514 -0.9035
  177MOL   H16346275   3.939   7.715   2.885 -2.4358 -0.4435 -1.0939
  177MOL   H16446276   4.064   7.768   2.777  0.8383 -0.6546  0.1974
  177MOL   H16546277   4.076   7.514   2.936  0.8128 -0.7940 -1.3609
  177MOL   H16646278   4.184   7.605   3.160  0.0575  0.3335  0.3993
  177MOL   H16746279   4.019   7.655   3.124 -0.1485  2.3853  1.8665
  177MOL   H16846280   4.241   0.007   3.186 -0.4315 -0.5751  0.7239
  177MOL   H16946281   4.068   0.040   3.183 -1.9743 -1.7483 -0.3108
  177MOL   H17046282   4.130   7.770   3.303  1.3746  0.8659 -0.1015
  177MOL   C17146283   4.236   7.567   2.805 -0.2064  0.0209 -0.1402
  177MOL   C17246284   4.368   7.533   2.875  0.0422 -0.3849  0.9186
  177MOL   O17346285   4.470   7.516   2.778 -0.2621  0.3179  0.7662
  177MOL   C17446286   4.592   7.578   2.819 -0.3940 -0.3063  0.1337
  177MOL   C17546287   4.711   7.552   2.729 -0.0297 -0.0730 -0.1079
  177MOL   H17646288   4.265   7.653   2.746 -0.2198 -0.4795 -0.8913
  177MOL   H17746289   4.206   7.486   2.738 -0.4218  0.9187 -1.1294
  177MOL   H17846290   4.377   7.621   2.939 -0.5371  0.8126 -0.6141
  177MOL   H17946291   4.614   7.541   2.919  1.9450  2.5327  0.7397
  177MOL   H18046292   4.579   7.686   2.827 -0.0870 -0.3398  1.1454
  177MOL   H18146293   4.704   7.443   2.729  0.5265 -0.1208  1.0448
  177MOL   H18246294   4.719   7.605   2.634 -0.9370 -1.4701 -0.9738
  177MOL   H18346295   4.804   7.571   2.783 -0.8404  1.7537  0.6692
  177MOL   C18446296   4.358   7.415   2.972 -1.0023  1.0666 -0.0149
  177MOL   C18546297   4.309   7.285   2.908  0.0526  0.5506  0.5723
  177MOL   O18646298   4.343   7.176   2.995 -0.0183 -0.2635 -0.0602
  177MOL   C18746299   4.236   7.144   3.073  0.5826 -0.1969 -0.7540
  177MOL   C18846300   4.291   7.020   3.146  0.1061  0.0339 -0.0560
  177MOL   H18946301   4.296   7.440   3.058 -2.7543 -0.2909 -0.8324
  177MOL   H19046302   4.454   7.396   3.020  0.8396  2.1405 -3.1061
  177MOL   H19146303   4.200   7.281   2.905  0.1859 -3.8345 -1.3331
  177MOL   H19246304   4.144   7.118   3.020 -0.9865 -2.1179  2.7578
  177MOL   H19346305   4.212   7.225   3.142  0.0882 -1.2308  0.3130
  177MOL   H19446306   4.365   7.046   3.222 -0.0336 -2.4874  1.0004
  177MOL   H19546307   4.221   6.963   3.207  0.6564  0.1921  0.7430
  177MOL   H19646308   4.327   6.942   3.079 -1.3109  0.6061 -1.5009
  177MOL   C19746309   4.379   7.248   2.777 -0.4288 -0.2743 -0.0495
  177MOL   C19846310   4.359   7.111   2.704  0.7495 -0.1433 -0.3955
  177MOL   O19946311   4.434   7.121   2.583 -0.0093  0.6469 -0.1338
  177MOL   C20046312   4.565   7.062   2.595 -0.1410  0.2253  0.0211
  177MOL   C20146313   4.648   7.143   2.491 -0.4740  0.1931  0.4682
  177MOL   H20246314   4.485   7.264   2.796 -0.6470  1.5749 -0.2659
  177MOL   H20346315   4.363   7.323   2.699  2.5335  0.1412 -0.2956
  177MOL   H20446316   4.398   7.039   2.775 -1.9684 -0.8323  0.4490
  177MOL   H20546317   4.564   6.955   2.577  0.9741 -0.2074  2.4316
  177MOL   H20646318   4.612   7.066   2.693  1.5746  0.3414 -0.7927
  177MOL   H20746319   4.639   7.106   2.389  1.2593  0.7405  0.1003
  177MOL   H20846320   4.627   7.249   2.504 -0.7631  0.3690 -1.3005
  177MOL   H20946321   4.753   7.129   2.517 -0.3171  0.5657  0.0291
  177MOL   C21046322   4.207   7.103   2.690  0.3921 -0.4329 -0.0969
  177MOL   C21146323   4.170   7.000   2.586 -0.4162 -0.2132  0.3758
  177MOL   O21246324   4.031   7.027   2.554  0.3468  0.0669  0.2011
  177MOL   C21346325   3.972   6.977   2.432  0.2246 -0.5129  0.1913
  177MOL   C21446326   3.822   6.991   2.445 -0.0787 -1.1800  0.4379
  177MOL   H21546327   4.172   7.200   2.655 -1.0898 -1.3601 -1.2456
  177MOL   H21646328   4.161   7.078   2.786 -1.2043  2.1767 -0.1430
  177MOL   H21746329   4.226   7.034   2.499  0.4466 -1.6595  0.3571
  177MOL   H21846330   3.990   6.871   2.421 -0.4038 -0.5804 -0.1785
  177MOL   H21946331   4.025   7.020   2.347 -1.0812 -0.9003 -0.8279
  177MOL   H22046332   3.784   7.093   2.458 -0.8610 -1.6814  2.2318
  177MOL   H22146333   3.767   6.943   2.365 -1.4141  2.0591 -0.6989
  177MOL   H22246334   3.789   6.943   2.537 -1.8959  0.5269  0.7138
  177MOL   C22346335   4.216   6.855   2.615  0.5032  0.6122 -0.2214
  177MOL   C22446336   4.166   6.780   2.737  0.5227 -0.3258 -0.6604
  177MOL   O22546337   4.249   6.671   2.781 -0.6303  0.2735  0.3997
  177MOL   C22646338   4.355   6.702   2.866 -0.4651  0.3127 -0.6866
  177MOL   C22746339   4.470   6.593   2.868 -0.1564  0.1591  0.3932
  177MOL   H22846340   4.325   6.858   2.615  0.5253  0.9462  2.0378
  177MOL   H22946341   4.194   6.793   2.528  1.3302  1.6936 -1.2081
  177MOL   H23046342   4.164   6.856   2.815 -0.8274 -1.8230  0.8059
  177MOL   H23146343   4.310   6.714   2.964 -2.0150  1.6765 -1.5344
  177MOL   H23246344   4.401   6.795   2.833 -1.4283  1.2974  0.7102
  177MOL   H23346345   4.545   6.626   2.940  0.2308 -1.0693  0.5651
  177MOL   H23446346   4.431   6.496   2.901  0.4344 -0.6314 -1.1724
  177MOL   H23546347   4.526   6.576   2.776 -0.6762  0.6402 -0.0136
  177MOL   C23646348   4.021   6.741   2.725  0.3628  0.8515 -0.1732
  177MOL   C23746349   3.940   6.690   2.849 -0.0562 -0.1009 -0.4597
  177MOL   O23846350   3.808   6.678   2.805 -0.4551  0.5089 -0.1881
  177MOL   C23946351   3.771   6.565   2.722 -0.6270  0.0332 -0.2427
  177MOL   C24046352   3.624   6.594   2.690  0.2427  0.1961  0.9330
  177MOL   H24146353   4.017   6.669   2.643 -0.1709 -1.0162  1.4566
  177MOL   H24246354   3.966   6.830   2.694 -0.8357  0.0882 -0.2533
  177MOL   H24346355   3.993   6.597   2.870  0.5114  0.1881 -0.6272
  177MOL   H24446356   3.775   6.467   2.770 -0.7674  1.2025  2.1795
  177MOL   H24546357   3.835   6.556   2.634 -2.4982  0.5715 -1.6922
  177MOL   H24646358   3.606   6.696   2.657 -2.0068 -1.0029 -1.7463
  177MOL   H24746359   3.588   6.530   2.610  0.1395  1.9469 -0.4590
  177MOL   H24846360   3.568   6.581   2.782  0.1063 -1.3122  0.6464
  177MOL   C24946361   3.932   6.775   2.979  0.1498  0.1058 -0.1885
  177MOL   C25046362   3.889   6.916   2.952 -0.3299  0.1358 -0.2510
  177MOL   O25146363   3.888   6.965   3.084  0.1906 -0.0073 -0.3315
  177MOL   C25246364   3.841   7.097   3.106  0.0781 -0.1183 -0.1770
  177MOL   C25346365   3.895   7.124   3.251  0.1013  0.4606  0.4040
  177MOL   H25446366   4.038   6.783   3.002 -0.0122 -0.6432  0.8732
  177MOL   H25546367   3.876   6.715   3.051 -0.0672 -0.0002 -0.4454
  177MOL   H25646368   3.975   6.961   2.903  0.1588  0.2440  0.6892
  177MOL   H25746369   3.733   7.113   3.116 -0.1528  1.3706 -4.0813
  177MOL   H25846370   3.883   7.176   3.044 -1.7556  0.2714 -0.9781
  177MOL   H25946371   3.999   7.099   3.271  0.3890 -0.1462 -1.7521
  177MOL   H26046372   3.886   7.231   3.269 -0.0647  0.5013  0.0961
  177MOL   H26146373   3.836   7.063   3.320  2.2070 -1.5215  0.5405
  177MOL   H26246374   3.803   6.930   2.887 -0.5833  0.6063  0.1797
  178MOL     C146375   6.363   0.161   3.674 -0.6250 -0.3950  0.0512
  178MOL     C246376   6.343   0.159   3.825  0.1504  0.4786  0.2880
  178MOL     O346377   6.449   0.233   3.880  0.0209 -0.1386  0.2947
  178MOL     C446378   6.414   0.323   3.986 -0.7716 -0.0406 -0.4060
  178MOL     C546379   6.525   0.423   3.996 -0.4758  0.5507 -0.1411
  178MOL     H646380   6.382   0.262   3.639 -2.3263  0.1040  0.5287
  178MOL     H746381   6.441   0.090   3.649  0.4062  0.4044  0.9211
  178MOL     H846382   6.253   0.221   3.828 -1.1988 -1.4073 -0.2160
  178MOL     H946383   6.430   0.275   4.082  2.3811  0.8270 -0.4382
  178MOL    H1046384   6.314   0.365   3.971 -1.5520 -1.8280 -0.3685
  178MOL    H1146385   6.507   0.504   4.067  0.4586  0.8103 -0.1816
  178MOL    H1246386   6.620   0.376   4.021 -1.1424 -0.3381  0.7567
  178MOL    H1346387   6.541   0.475   3.902  1.9585 -0.4384 -0.3333
  178MOL    H1446388   6.271   0.129   3.624 -1.5010 -0.8066  1.8758
  178MOL    C1546389   6.333   0.025   3.888 -0.2884  0.0095 -0.6408
  178MOL    C1646390   6.193   7.807   3.890 -0.2149 -0.0537  1.0315
  178MOL    O1746391   6.208   7.677   3.962 -0.0770 -0.7092 -0.1823
  178MOL    C1846392   6.191   7.698   4.101  0.0410  0.5868  0.5367
  178MOL    C1946393   6.170   7.553   4.162  0.3543  0.8588 -0.3427
  178MOL    H2046394   6.371   0.056   3.985 -3.9732  1.4648  0.4288
  178MOL    H2146395   6.405   7.802   3.841  0.4855  1.0289 -0.9355
  178MOL    H2246396   6.129   0.037   3.939  1.1931  1.3077  0.8727
  178MOL    H2346397   6.107   7.766   4.116  0.1110  0.9705 -0.7602
  178MOL    H2446398   6.274   7.750   4.151  1.0754 -2.1250  1.7575
  178MOL    H2546399   6.094   7.501   4.103  2.0308  0.4097 -2.1405
  178MOL    H2646400   6.138   7.566   4.265  0.3257  2.6307 -0.5562
  178MOL    H2746401   6.256   7.487   4.167 -0.6314 -0.3581  0.8514
  178MOL    C2846402   6.127   7.766   3.752  0.4534  0.3110  0.0036
  178MOL    C2946403   5.977   7.711   3.772 -0.3858 -0.1347 -0.5234
  178MOL    O3046404   5.950   7.629   3.662  0.3319  0.0370 -0.5381
  178MOL    C3146405   5.980   7.490   3.682 -0.3482 -0.0896 -0.1136
  178MOL    C3246406   5.882   7.398   3.595 -0.1655  0.0807  0.1595
  178MOL    H3346407   6.191   7.681   3.727 -1.7573 -1.0148 -1.2309
  178MOL    H3446408   6.115   0.006   3.683 -0.6119 -0.1169 -0.3361
  178MOL    H3546409   5.982   7.644   3.858  4.5333 -0.0115 -0.5799
  178MOL    H3646410   5.968   7.468   3.788  0.8594  0.8313  0.2241
  178MOL    H3746411   6.082   7.468   3.650 -1.4532 -2.5576 -2.1503
  178MOL    H3846412   5.773   7.406   3.597 -0.3548 -1.4520 -2.2083
  178MOL    H3946413   5.906   7.407   3.489 -0.0158 -1.2484  0.0693
  178MOL    H4046414   5.906   7.295   3.623 -1.7409  0.0518  1.4801
  178MOL    C4146415   5.865   7.823   3.800  0.4345 -0.2876 -0.4864
  178MOL    C4246416   5.731   7.767   3.847  0.1580 -0.7799 -0.0149
  178MOL    O4346417   5.740   7.688   3.964  0.1262  0.0335  0.0319
  178MOL    C4446418   5.745   7.765   4.081 -0.5247 -0.4336 -0.6669
  178MOL    C4546419   5.802   7.673   4.189  0.3018  0.2584  0.8429
  178MOL    H4646420   5.843   0.041   3.713 -1.3291  1.1204  0.9222
  178MOL    H4746421   5.898   0.036   3.887  1.1220 -2.0015  0.4011
  178MOL    H4846422   5.677   0.017   3.862 -1.6234 -1.6597 -0.8842
  178MOL    H4946423   5.643   7.794   4.103  0.0373  1.5200 -0.5145
  178MOL    H5046424   5.804   0.014   4.084 -0.3101 -0.5118 -2.0324
  178MOL    H5146425   5.904   7.639   4.170  0.1252 -0.2813  0.8451
  178MOL    H5246426   5.798   7.713   4.290 -1.7265 -1.5084  1.4822
  178MOL    H5346427   5.743   7.582   4.186 -0.3621  0.7055  0.2575
  178MOL    C5446428   5.656   7.684   3.732 -0.3131 -1.0085  0.2643
  178MOL    C5546429   5.512   7.715   3.710 -0.0349  0.0948 -0.2531
  178MOL    O5646430   5.487   0.016   3.672 -0.7861 -0.1044 -0.4394
  178MOL    C5746431   5.530   0.064   3.545  0.1752 -0.2217 -0.3096
  178MOL    C5846432   5.547   0.219   3.555  0.2281 -0.4008  0.0483
  178MOL    H5946433   5.666   7.576   3.745 -0.5493 -1.0876 -0.1805
  178MOL    H6046434   5.709   7.707   3.639  0.4070  0.7168  1.0814
  178MOL    H6146435   5.471   7.662   3.624 -1.0432  1.7396 -0.8155
  178MOL    H6246436   5.460   0.050   3.463 -0.4611 -0.1349  0.2080
  178MOL    H6346437   5.619   0.006   3.521 -0.2230 -0.4558 -1.2400
  178MOL    H6446438   5.575   0.255   3.654  0.3890 -1.6658  0.4729
  178MOL    H6546439   5.622   0.251   3.483  0.6749 -1.1000  0.1961
  178MOL    H6646440   5.453   0.263   3.523 -0.4354 -0.5690  1.6989
  178MOL    C6746441   5.420   7.689   3.831 -0.3729  0.0399 -0.0380
  178MOL    C6846442   5.394   7.553   3.891  0.8631  0.0112 -0.5535
  178MOL    O6946443   5.347   7.466   3.798  0.1596 -0.2786 -0.1042
  178MOL    C7046444   5.440   7.370   3.758 -0.0802  0.2921 -0.1095
  178MOL    C7146445   5.382   7.254   3.687  0.2598  0.4200  0.6423
  178MOL    H7246446   5.319   7.712   3.795 -1.0216 -0.2140  1.5918
  178MOL    H7346447   5.457   7.759   3.905  0.3699 -0.3652 -0.0234
  178MOL    H7446448   5.487   7.520   3.938  0.2966 -1.3750 -0.3722
  178MOL    H7546449   5.490   7.321   3.841  0.1336  1.4247  0.4454
  178MOL    H7646450   5.511   7.404   3.682  0.7462  0.6590  0.8208
  178MOL    H7746451   5.367   7.279   3.582  1.5532  0.6501  0.5056
  178MOL    H7846452   5.447   7.167   3.699 -0.8174 -0.1846  2.2125
  178MOL    H7946453   5.287   7.217   3.727  0.1545  0.3286  0.3101
  178MOL    C8046454   5.278   7.555   4.000 -1.2529  0.4774  0.8736
  178MOL    C8146455   5.332   7.624   4.126 -0.1115 -0.4403  0.3865
  178MOL    O8246456   5.302   7.558   4.246 -0.1558  0.1450  0.0502
  178MOL    C8346457   5.393   7.455   4.280 -0.5897  0.2079  0.1726
  178MOL    C8446458   5.353   7.386   4.407  0.2286 -0.2369  0.2997
  178MOL    H8546459   5.246   7.456   4.030 -4.1630  1.5998  1.6336
  178MOL    H8646460   5.194   7.614   3.963  0.4519  1.4951 -1.5611
  178MOL    H8746461   5.440   7.636   4.118 -0.1881 -0.3445 -0.7030
  178MOL    H8846462   5.499   7.482   4.277 -0.4517  0.1308  3.1278
  178MOL    H8946463   5.388   7.382   4.199  0.5211  1.4260 -1.0243
  178MOL    H9046464   5.401   7.289   4.416  0.2288 -0.3227 -0.5536
  178MOL    H9146465   5.386   7.448   4.491  0.3800 -1.3324  1.0522
  178MOL    H9246466   5.244   7.378   4.413  0.0284  1.7676 -0.1046
  178MOL    C9346467   5.276   7.767   4.133  0.3250  0.3186 -0.7231
  178MOL    C9446468   5.354   0.020   4.227 -0.1146  0.2559 -0.3662
  178MOL    O9546469   5.336   7.810   4.357 -0.1257  0.2757  0.2766
  178MOL    C9646470   5.460   7.807   4.430  0.1927 -0.3257 -0.2391
  178MOL    C9746471   5.431   7.750   4.569 -0.8255  0.7322 -0.0045
  178MOL    H9846472   5.171   7.758   4.163  0.7554  0.1111  0.7072
  178MOL    H9946473   5.274   7.815   4.035  1.4478  0.4274 -0.6991
  178MOL   H10046474   5.458   0.014   4.196 -0.2640  0.3969 -0.8906
  178MOL   H10146475   5.510   0.058   4.451  2.0006 -1.4970  0.9032
  178MOL   H10246476   5.533   7.741   4.382  0.1458  0.4219 -1.3649
  178MOL   H10346477   5.331   7.777   4.604  0.1012  2.7962  1.1059
  178MOL   H10446478   5.418   7.641   4.575  2.9285  0.3017  1.4423
  178MOL   H10546479   5.513   7.772   4.638 -0.8598  0.5463  0.0966
  178MOL   C10646480   5.305   0.164   4.242 -0.1061  0.9364  0.5528
  178MOL   C10746481   5.308   0.246   4.112  0.0251 -0.2532 -0.9683
  178MOL   O10846482   5.445   0.257   4.086 -0.2124 -0.6613  0.5452
  178MOL   C10946483   5.480   0.250   3.949  0.2392  0.3923 -0.0404
  178MOL   C11046484   5.636   0.260   3.958 -0.0782  0.2796 -0.7094
  178MOL   H11146485   5.371   0.211   4.315  0.1997  0.2136  0.7394
  178MOL   H11246486   5.205   0.170   4.285 -1.0420 -0.8379 -1.2595
  178MOL   H11346487   5.245   0.191   4.042 -1.5309 -0.5408  0.6086
  178MOL   H11446488   5.453   0.326   3.876  0.4461 -0.3477 -0.9031
  178MOL   H11546489   5.447   0.159   3.897 -0.1881 -0.7324  2.1493
  178MOL   H11646490   5.673   0.236   3.858 -0.3876 -3.6307  0.0150
  178MOL   H11746491   5.663   0.363   3.977 -3.5124  1.3208 -1.1451
  178MOL   H11846492   5.668   0.190   4.036 -1.7846  0.5966  0.3032
  178MOL   C11946493   5.246   0.387   4.125  0.3387  0.6602 -0.1936
  178MOL   C12046494   5.319   0.480   4.230 -0.4078 -0.2709 -0.0530
  178MOL   O12146495   5.255   0.442   4.355  0.4073  0.0230 -0.2722
  178MOL   C12246496   5.334   0.450   4.475  0.6869 -0.1328  0.6902
  178MOL   C12346497   5.245   0.391   4.586 -0.2118 -0.6913 -0.2425
  178MOL   H12446498   5.140   0.385   4.150  0.4080  0.6161  0.1066
  178MOL   H12546499   5.255   0.425   4.023  1.3904 -2.8503 -1.4775
  178MOL   H12646500   5.424   0.451   4.238 -0.4424 -0.0811  1.1372
  178MOL   H12746501   5.356   0.556   4.493  0.6754 -0.1703  0.9197
  178MOL   H12846502   5.429   0.398   4.464  0.7351  0.3957 -1.7005
  178MOL   H12946503   5.226   0.286   4.564  2.3979 -1.4714  1.0100
  178MOL   H13046504   5.300   0.379   4.679  0.6870 -1.0015 -0.8063
  178MOL   H13146505   5.167   0.466   4.598  1.6933  1.4751 -1.0637
  178MOL   C13246506   5.284   0.627   4.203 -0.7192 -1.1188 -0.3644
  178MOL   C13346507   5.381   0.682   4.096 -0.1639 -0.1659  0.4567
  178MOL   O13446508   5.495   0.747   4.163  0.0323  0.1875  0.0674
  178MOL   C13546509   5.618   0.725   4.098 -0.0444 -0.2604  0.0302
  178MOL   C13646510   5.722   0.820   4.156  0.5061 -0.1131  0.1479
  178MOL   H13746511   5.289   0.679   4.299 -0.0552 -1.7669 -0.0427
  178MOL   H13846512   5.185   0.646   4.162 -1.1486  0.6207  1.4199
  178MOL   H13946513   5.424   0.609   4.028 -1.3007  0.0843 -0.5510
  178MOL   H14046514   5.613   0.745   3.991  0.9548 -0.3149 -0.0261
  178MOL   H14146515   5.635   0.617   4.093 -0.2922 -0.2426 -1.6045
  178MOL   H14246516   5.683   0.921   4.165 -1.2042 -0.8033  0.6731
  178MOL   H14346517   5.760   0.800   4.256 -1.1832  1.2588  1.1004
  178MOL   H14446518   5.811   0.827   4.093  0.2880 -2.1116 -0.4063
  178MOL   C14546519   5.321   0.798   4.017  0.5832 -0.2169  0.3076
  178MOL   C14646520   5.229   0.760   3.908  0.0749  0.1901  0.7247
  178MOL   O14746521   5.316   0.706   3.803  0.2804 -0.4710 -0.2172
  178MOL   C14846522   5.252   0.606   3.725  0.2588  0.3218  0.3689
  178MOL   C14946523   5.366   0.530   3.646  0.1358 -0.9726  0.1423
  178MOL   H15046524   5.400   0.848   3.961 -0.2240 -0.4069 -1.0195
  178MOL   H15146525   5.276   0.871   4.085  0.9807  0.6449 -0.3381
  178MOL   H15246526   5.171   0.674   3.942  1.1053 -1.0571 -0.6181
  178MOL   H15346527   5.184   0.650   3.652  0.0901 -0.2452  0.1753
  178MOL   H15446528   5.200   0.536   3.791  2.2080 -0.4597  1.1134
  178MOL   H15546529   5.326   0.444   3.593 -0.8907  0.2255 -1.0745
  178MOL   H15646530   5.414   0.601   3.579  1.6922 -0.2545  1.9628
  178MOL   H15746531   5.433   0.480   3.715 -0.9472 -0.7069  1.4195
  178MOL   C15846532   5.149   0.879   3.850 -0.1523 -0.7488 -1.0135
  178MOL   C15946533   5.047   0.944   3.945  0.2289  0.2058  0.6738
  178MOL   O16046534   4.981   0.835   4.009 -0.5323 -0.3153 -0.1771
  178MOL   C16146535   4.942   0.856   4.145 -0.2665 -0.2052 -0.2755
  178MOL   C16246536   4.860   0.745   4.210 -0.7009  0.0249  0.5640
  178MOL   H16346537   5.105   0.841   3.757  0.3818 -3.2525 -0.2771
  178MOL   H16446538   5.215   0.962   3.823 -1.1092  0.6349  0.7947
  178MOL   H16546539   5.106   1.002   4.016 -0.8426  1.1736  0.8015
  178MOL   H16646540   4.882   0.947   4.148 -0.2009 -0.1307 -1.0434
  178MOL   H16746541   5.027   0.883   4.208 -2.3988  3.2351  1.2569
  178MOL   H16846542   4.784   0.712   4.139  1.3711 -1.5535 -0.9919
  178MOL   H16946543   4.920   0.659   4.237 -2.0813 -1.2690 -0.3749
  178MOL   H17046544   4.810   0.777   4.302 -0.2069  0.9747  0.5048
  178MOL   C17146545   4.932   1.034   3.873 -0.3801 -0.1399  0.4522
  178MOL   C17246546   4.975   1.161   3.796  0.4000  0.5199  0.0722
  178MOL   O17346547   4.999   1.283   3.873  0.1579 -0.2464 -0.1500
  178MOL   C17446548   5.128   1.327   3.901 -0.5738  0.0297  0.1934
  178MOL   C17546549   5.124   1.457   3.987 -0.9845 -0.1895 -0.8905
  178MOL   H17646550   4.855   1.059   3.947  0.5530  0.9839  1.0618
  178MOL   H17746551   4.879   0.962   3.811 -1.1083 -0.3329  1.2814
  178MOL   H17846552   5.062   1.143   3.733  1.1282  0.5259  1.0685
  178MOL   H17946553   5.182   1.336   3.806  0.8967 -0.8503  0.9189
  178MOL   H18046554   5.174   1.248   3.960  0.8780  1.1039  0.5181
  178MOL   H18146555   5.219   1.480   4.036 -1.7054  0.1962  0.3457
  178MOL   H18246556   5.108   1.551   3.933 -3.0656 -0.7698 -1.3189
  178MOL   H18346557   5.049   1.446   4.064  1.8201  0.7310  2.0905
  178MOL   C18446558   4.861   1.198   3.702 -0.4777  0.0083  0.4991
  178MOL   C18546559   4.730   1.257   3.764 -1.1023  0.4634  1.1647
  178MOL   O18646560   4.624   1.161   3.789 -0.0651  0.2615 -0.1518
  178MOL   C18746561   4.538   1.196   3.897  1.2621  0.1780 -0.5011
  178MOL   C18846562   4.402   1.128   3.901 -0.4815  0.5326  0.1144
  178MOL   H18946563   4.826   1.116   3.640  1.8899 -1.2615  0.8110
  178MOL   H19046564   4.903   1.278   3.640 -0.6573 -1.2732 -1.3304
  178MOL   H19146565   4.759   1.293   3.863  1.6498  0.2512  0.4613
  178MOL   H19246566   4.520   1.301   3.875  1.9899  0.3352 -0.3589
  178MOL   H19346567   4.594   1.188   3.990  0.9762  1.5939 -0.1952
  178MOL   H19446568   4.337   1.154   3.817 -0.4631  0.6612  0.1388
  178MOL   H19546569   4.400   1.025   3.936  0.1804  1.0420  1.6782
  178MOL   H19646570   4.349   1.154   3.993 -0.1245 -2.8942  1.3521
  178MOL   C19746571   4.683   1.380   3.677 -0.5732 -0.3123 -0.3146
  178MOL   C19846572   4.756   1.506   3.727 -0.4611  0.4682  0.0981
  178MOL   O19946573   4.698   1.556   3.853  0.1667  0.3659 -0.6015
  178MOL   C20046574   4.796   1.568   3.958  0.1597  0.1534  0.5162
  178MOL   C20146575   4.713   1.635   4.074 -0.4904  0.6078  0.4508
  178MOL   H20246576   4.580   1.412   3.689  0.1375  1.3480  1.6658
  178MOL   H20346577   4.691   1.355   3.571 -3.3639  2.2099 -1.1730
  178MOL   H20446578   4.861   1.488   3.748 -1.0088 -1.3737  1.4381
  178MOL   H20546579   4.884   1.626   3.932 -1.5262  1.9236 -1.4244
  178MOL   H20646580   4.820   1.466   3.987 -2.2819 -0.5189  0.3105
  178MOL   H20746581   4.773   1.639   4.165 -0.0211  0.2992  0.1611
  178MOL   H20846582   4.682   1.738   4.057  0.5025  1.2552  2.3680
  178MOL   H20946583   4.626   1.571   4.089  1.0252 -1.2567  1.5023
  178MOL   C21046584   4.740   1.614   3.620  0.0188 -0.7319 -0.5430
  178MOL   C21146585   4.812   1.752   3.644 -0.1872  0.0860  0.9121
  178MOL   O21246586   4.773   1.841   3.536  0.1300 -0.1810 -0.1937
  178MOL   C21346587   4.636   1.896   3.543 -1.1591 -0.0915  0.2104
  178MOL   C21446588   4.651   2.025   3.457  0.4497  0.5327  0.1038
  178MOL   H21546589   4.634   1.624   3.596  0.4952 -0.9372 -2.8745
  178MOL   H21646590   4.780   1.575   3.526  0.8336 -0.7116 -0.2132
  178MOL   H21746591   4.788   1.808   3.734  0.2746  1.4664  0.1929
  178MOL   H21846592   4.626   1.931   3.646  0.6823  1.0279  0.0202
  178MOL   H21946593   4.553   1.837   3.502 -0.4582 -1.8813  1.3287
  178MOL   H22046594   4.725   2.105   3.465  0.1656  0.7443  0.6812
  178MOL   H22146595   4.671   1.982   3.359 -1.6191 -0.8282  0.2654
  178MOL   H22246596   4.549   2.062   3.458 -1.0198 -3.3081  0.1453
  178MOL   C22346597   4.966   1.741   3.658 -0.3571  0.3574  0.4590
  178MOL   C22446598   5.059   1.871   3.685  0.4420 -1.0398  0.1837
  178MOL   O22546599   5.029   1.913   3.821 -0.4390  0.0629  0.1246
  178MOL   C22646600   5.095   1.839   3.925 -0.3476  0.4090 -0.5822
  178MOL   C22746601   5.128   1.947   4.025 -0.5615 -0.2976 -0.0177
  178MOL   H22846602   4.993   1.691   3.565  0.9131  0.4763  0.7505
  178MOL   H22946603   4.992   1.668   3.735 -2.0177 -1.2551 -0.4750
  178MOL   H23046604   5.161   1.833   3.683  0.1159 -2.0445  1.1758
  178MOL   H23146605   5.178   1.776   3.891  0.1624  0.8025 -0.0856
  178MOL   H23246606   5.034   1.755   3.960 -0.9068  0.1571 -2.1235
  178MOL   H23346607   5.161   1.915   4.124  3.1021 -0.4471 -1.2079
  178MOL   H23446608   5.207   2.006   3.979  1.4705 -1.3026  2.0927
  178MOL   H23546609   5.044   2.015   4.036  1.0510  1.4334  2.1349
  178MOL   C23646610   5.042   1.986   3.583  0.4339  0.4057  0.7255
  178MOL   C23746611   5.134   2.110   3.612  0.0010 -0.2015  0.3512
  178MOL   O23846612   5.116   2.226   3.528 -0.4168 -0.3889  0.1521
  178MOL   C23946613   4.988   2.274   3.520 -0.2815  0.2336 -0.5635
  178MOL   C24046614   4.986   2.407   3.452 -0.3347  0.6524  0.2385
  178MOL   H24146615   4.937   2.014   3.570  0.6092  0.5629 -0.3225
  178MOL   H24246616   5.072   1.957   3.483 -0.1927 -0.4275  0.7750
  178MOL   H24346617   5.106   2.153   3.708  0.2479 -0.2277  0.4345
  178MOL   H24446618   4.948   2.281   3.621 -2.4341 -2.4041 -1.1887
  178MOL   H24546619   4.926   2.207   3.461  1.0124 -1.4239 -0.1013
  178MOL   H24646620   5.060   2.478   3.488  0.6803  0.1331 -0.7873
  178MOL   H24746621   4.997   2.402   3.343 -0.8863  1.0321  0.1637
  178MOL   H24846622   4.894   2.457   3.482  0.0331  0.8359  1.0498
  178MOL   C24946623   5.287   2.085   3.609 -0.2960 -0.3242  0.2461
  178MOL   C25046624   5.375   2.207   3.647  0.1883 -0.0492  0.3177
  178MOL   O25146625   5.513   2.166   3.671  0.1348  0.3946 -0.5659
  178MOL   C25246626   5.596   2.266   3.724 -0.0915 -0.0645 -0.5916
  178MOL   C25346627   5.736   2.207   3.734  0.3503 -0.4143  0.1002
  178MOL   H25446628   5.314   2.045   3.512  0.2414  0.0932  0.2224
  178MOL   H25546629   5.303   2.011   3.687  2.0159  1.8405  1.8886
  178MOL   H25646630   5.377   2.274   3.561  1.1794  0.0636  0.4303
  178MOL   H25746631   5.555   2.298   3.820 -0.8666 -2.1385 -0.2009
  178MOL   H25846632   5.587   2.346   3.651  1.3944 -0.3167 -1.0764
  178MOL   H25946633   5.768   2.180   3.634 -1.3809  0.8174 -0.8032
  178MOL   H26046634   5.815   2.275   3.767  1.4543 -0.8547 -1.5829
  178MOL   H26146635   5.750   2.123   3.803  0.8393  0.3090  0.8872
  178MOL   H26246636   5.338   2.264   3.732  1.1751  0.2540  0.5495
  179MOL     C146637   7.651   6.982   5.036 -0.7312 -0.7977  0.0677
  179MOL     C246638   7.561   7.085   5.110 -0.1983 -0.6704  0.7532
  179MOL     O346639   7.631   7.204   5.147  0.3356  0.4307 -0.1696
  179MOL     C446640   7.668   7.292   5.031  0.0196  0.4236 -0.1253
  179MOL     C546641   7.549   7.357   4.961 -0.3311  0.8472 -0.1288
  179MOL     H646642   7.593   6.895   5.006 -0.0351 -1.3056  0.2027
  179MOL     H746643   7.686   7.031   4.945  0.5900 -0.6959  0.6158
  179MOL     H846644   7.487   7.110   5.035 -0.4667  0.9067  1.5103
  179MOL     H946645   7.724   7.242   4.951 -0.4486 -0.2042 -0.0577
  179MOL    H1046646   7.738   7.363   5.075  1.3677 -1.1573  0.3135
  179MOL    H1146647   7.496   7.283   4.902  2.4162 -0.6684 -0.7505
  179MOL    H1246648   7.490   7.388   5.048  1.5688  0.2117  1.4272
  179MOL    H1346649   7.575   7.439   4.894  1.4073 -0.0241 -0.5427
  179MOL    H1446650   7.738   6.949   5.093 -0.8445  0.2169  0.8516
  179MOL    C1546651   7.503   7.011   5.233 -0.1221 -0.4703  0.2736
  179MOL    C1646652   7.412   7.091   5.321  1.0155  0.1276  0.7623
  179MOL    O1746653   7.365   7.010   5.432  0.2702 -0.1961  0.1320
  179MOL    C1846654   7.339   7.083   5.550  0.6156  0.1069 -0.0052
  179MOL    C1946655   7.315   6.981   5.659  0.0804  0.1632  0.1887
  179MOL    H2046656   7.592   6.983   5.291  0.8149 -0.6150 -1.2196
  179MOL    H2146657   7.445   6.922   5.208  1.9448 -1.6723 -0.3437
  179MOL    H2246658   7.473   7.174   5.356  0.7489 -0.1498  1.9134
  179MOL    H2346659   7.257   7.155   5.549  1.6050  1.2712 -1.2286
  179MOL    H2446660   7.428   7.144   5.568  1.2852 -0.2408 -2.0015
  179MOL    H2546661   7.305   7.039   5.751  1.9170  0.8424 -0.0126
  179MOL    H2646662   7.383   6.898   5.674 -0.6508 -0.7680 -1.4601
  179MOL    H2746663   7.218   6.932   5.655 -0.0112  0.3424  0.1944
  179MOL    C2846664   7.288   7.152   5.249 -0.2293  0.0049  0.3966
  179MOL    C2946665   7.190   7.061   5.179 -0.3476  0.4196  0.3283
  179MOL    O3046666   7.250   7.001   5.061  0.0188 -0.4180  0.3427
  179MOL    C3146667   7.212   6.865   5.027 -0.4501  0.3029 -0.2444
  179MOL    C3246668   7.261   6.815   4.890 -0.1914 -0.2632 -0.1048
  179MOL    H3346669   7.314   7.219   5.167 -2.7893 -0.0450 -0.4748
  179MOL    H3446670   7.235   7.207   5.326  1.4475  0.1810  1.4568
  179MOL    H3546671   7.178   6.981   5.252 -0.0028  0.2820  0.2374
  179MOL    H3646672   7.103   6.864   5.026 -0.4523 -0.3067 -0.0146
  179MOL    H3746673   7.250   6.786   5.092 -1.4603  0.2475  0.2943
  179MOL    H3846674   7.247   6.707   4.885 -2.2359  0.0140 -0.8510
  179MOL    H3946675   7.198   6.844   4.806  0.2653  0.6029 -0.1602
  179MOL    H4046676   7.366   6.839   4.873 -0.0270 -2.0647 -1.8199
  179MOL    C4146677   7.059   7.126   5.132 -0.3148 -0.5555  0.1154
  179MOL    C4246678   6.963   7.187   5.240 -0.5449  0.1870 -0.5093
  179MOL    O4346679   6.914   7.077   5.309 -0.0295  0.2518  0.1755
  179MOL    C4446680   6.968   7.061   5.433 -0.3315 -0.4946  0.2876
  179MOL    C4546681   6.885   6.954   5.496  0.3577 -0.1157  0.0370
  179MOL    H4646682   6.999   7.052   5.080  0.3928  0.7729 -2.6534
  179MOL    H4746683   7.084   7.195   5.052 -0.4644 -0.8369 -0.1724
  179MOL    H4846684   7.029   7.254   5.296  0.1365  0.2889 -1.4173
  179MOL    H4946685   6.962   7.150   5.496 -1.2112 -0.4940  0.2173
  179MOL    H5046686   7.071   7.026   5.430 -0.5768 -1.1261 -1.2334
  179MOL    H5146687   6.884   6.865   5.433 -0.8798 -0.4380  0.5041
  179MOL    H5246688   6.931   6.937   5.594  0.8583 -0.4785 -0.2544
  179MOL    H5346689   6.782   6.986   5.513  0.2642  0.5694 -1.7881
  179MOL    C5446690   6.844   7.268   5.177  0.7579  0.2669  0.2757
  179MOL    C5546691   6.883   7.416   5.165  0.2230 -0.5179  0.4551
  179MOL    O5646692   7.015   7.421   5.111 -0.5810  0.2305  0.0529
  179MOL    C5746693   7.022   7.463   4.973  0.2487  0.1069 -0.0077
  179MOL    C5846694   7.170   7.486   4.938 -0.1754 -0.6230 -0.1124
  179MOL    H5946695   6.753   7.262   5.237  0.6976 -0.0469  0.1561
  179MOL    H6046696   6.806   7.228   5.083 -0.7517  0.5033  0.7703
  179MOL    H6146697   6.807   7.462   5.102  1.4318 -0.3062 -0.8867
  179MOL    H6246698   6.954   7.547   4.957 -1.5453 -1.4463 -0.7546
  179MOL    H6346699   6.974   7.388   4.911  2.1530  0.6534 -2.2392
  179MOL    H6446700   7.194   7.472   4.833  1.8393 -0.0860  0.2639
  179MOL    H6546701   7.214   7.582   4.965 -1.1036  0.0647 -1.0301
  179MOL    H6646702   7.229   7.419   5.000  3.7500  2.3554 -0.4150
  179MOL    C6746703   6.875   7.489   5.299  0.7598  0.4876 -0.2643
  179MOL    C6846704   6.839   7.641   5.301 -0.5886  0.0388 -0.0642
  179MOL    O6946705   6.957   7.707   5.253  0.2379 -0.3400 -0.3584
  179MOL    C7046706   6.930   7.816   5.167  0.3201  1.0397  0.5564
  179MOL    C7146707   7.061   0.032   5.130 -0.5832  0.1983 -0.4704
  179MOL    H7246708   6.972   7.467   5.345 -0.3675 -0.1553  1.8787
  179MOL    H7346709   6.794   7.436   5.349  1.0101  0.8664  0.5540
  179MOL    H7446710   6.756   7.664   5.234 -2.7664  0.4541  2.7335
  179MOL    H7546711   6.874   0.039   5.234 -1.1214 -1.0149  1.4467
  179MOL    H7646712   6.867   7.787   5.083  0.9069 -0.4748  0.6259
  179MOL    H7746713   7.133   0.050   5.210 -0.3577 -3.9368  0.3708
  179MOL    H7846714   7.111   7.812   5.057 -2.1538 -1.9074  0.2176
  179MOL    H7946715   7.044   0.130   5.087 -0.8794  0.6917  0.7553
  179MOL    C8046716   6.808   7.703   5.442  0.4901 -0.6325 -0.0822
  179MOL    C8146717   6.660   7.688   5.488 -0.3838 -0.1524 -0.1488
  179MOL    O8246718   6.577   7.774   5.412  0.4279  0.6285 -0.3441
  179MOL    C8346719   6.443   7.729   5.379  0.4458  0.7442  0.0953
  179MOL    C8446720   6.354   7.839   5.434 -0.8434 -0.0206  0.0622
  179MOL    H8546721   6.822   7.811   5.435 -0.3774 -0.5284 -0.3444
  179MOL    H8646722   6.883   7.667   5.512  0.9631  0.8772  0.2028
  179MOL    H8746723   6.633   7.588   5.453  1.2813  0.5337 -3.5930
  179MOL    H8846724   6.406   7.635   5.420 -0.6398  1.1152 -0.0387
  179MOL    H8946725   6.435   7.721   5.271  0.6914 -1.7751  0.2456
  179MOL    H9046726   6.382   0.028   5.534 -0.2821 -0.5581  0.0790
  179MOL    H9146727   6.365   0.082   5.369 -1.5189 -0.9950 -1.3617
  179MOL    H9246728   6.250   7.806   5.434 -0.3610 -1.5561 -0.7177
  179MOL    C9346729   6.635   7.718   5.639  0.2156  0.1686 -0.3189
  179MOL    C9446730   6.716   7.628   5.733 -0.1352 -0.0368 -0.4736
  179MOL    O9546731   6.680   7.493   5.693 -0.0108 -0.2067  0.6388
  179MOL    C9646732   6.788   7.400   5.710 -0.5326  0.6383  0.2580
  179MOL    C9746733   6.750   7.260   5.669 -0.1437 -0.5939  1.1754
  179MOL    H9846734   6.531   7.705   5.669 -0.8848  1.1881 -3.4552
  179MOL    H9946735   6.646   7.825   5.657 -3.5621  0.8291 -1.6019
  179MOL   H10046736   6.819   7.662   5.723  0.8104 -2.2287  1.3114
  179MOL   H10146737   6.818   7.399   5.815  1.5105 -0.3159 -0.3181
  179MOL   H10246738   6.871   7.439   5.652 -0.7141  3.1637  1.5981
  179MOL   H10346739   6.662   7.221   5.719 -1.2174 -0.2913 -0.4236
  179MOL   H10446740   6.733   7.254   5.561  1.9643  2.5643  0.6017
  179MOL   H10546741   6.835   7.199   5.701  1.5453  0.7106 -0.6482
  179MOL   C10646742   6.677   7.651   5.884 -0.5825 -0.1887 -0.7523
  179MOL   C10746743   6.710   7.795   5.934 -0.3584 -0.1780  0.2430
  179MOL   O10846744   6.766   7.797   6.069 -0.1764 -0.0883  0.1774
  179MOL   C10946745   6.898   7.839   6.079 -0.3624  1.4815 -0.6090
  179MOL   C11046746   6.948   7.812   6.227 -0.4132 -0.0713 -0.0490
  179MOL   H11146747   6.733   7.580   5.945  1.8314  1.3609 -1.1097
  179MOL   H11246748   6.570   7.633   5.894 -0.7626  1.0773 -0.3846
  179MOL   H11346749   6.782   7.829   5.859 -1.3630 -1.3779 -1.2937
  179MOL   H11446750   6.911   0.102   6.064 -1.7975  1.6884 -0.3724
  179MOL   H11546751   6.961   7.780   6.011 -1.2559 -0.2871  0.0724
  179MOL   H11646752   6.959   7.705   6.244  0.8473 -0.1014 -0.9455
  179MOL   H11746753   7.038   0.023   6.256  0.7415 -0.5160 -2.6510
  179MOL   H11846754   6.870   7.839   6.298 -1.0384  0.2906 -0.8698
  179MOL   C11946755   6.590   0.046   5.937  0.5643  0.4603 -0.2077
  179MOL   C12046756   6.629   0.194   5.936 -0.3257  0.2220  0.1430
  179MOL   O12146757   6.510   0.271   5.943 -0.4169  0.1034  0.1527
  179MOL   C12246758   6.432   0.260   6.069 -0.3978 -0.1115  0.1038
  179MOL   C12346759   6.363   0.396   6.104 -0.1170  0.2683 -0.3636
  179MOL   H12446760   6.527   0.017   6.022  1.3293  1.2516  0.6527
  179MOL   H12546761   6.527   0.026   5.850  0.0033 -0.7557  0.4588
  179MOL   H12646762   6.693   0.218   6.020 -0.4330 -2.5157  1.0582
  179MOL   H12746763   6.506   0.237   6.146  0.1631  0.5587 -0.2304
  179MOL   H12846764   6.354   0.184   6.061  0.3644 -0.7701 -1.0645
  179MOL   H12946765   6.431   0.481   6.113 -0.2822  0.3315  0.3432
  179MOL   H13046766   6.291   0.419   6.026 -0.3209 -1.2407 -0.6296
  179MOL   H13146767   6.313   0.398   6.201  1.1255 -1.5322  0.3508
  179MOL   C13246768   6.686   0.240   5.800 -0.5327 -0.2866  0.6690
  179MOL   C13346769   6.743   0.390   5.794 -0.4644 -0.1680  0.3065
  179MOL   O13446770   6.796   0.404   5.667 -0.3432  0.6591  0.4580
  179MOL   C13546771   6.709   0.463   5.565 -0.7245  0.0422 -0.4970
  179MOL   C13646772   6.787   0.457   5.440  0.0288  1.0419  0.4813
  179MOL   H13746773   6.606   0.233   5.727 -0.2559  4.4974 -0.2452
  179MOL   H13846774   6.771   0.178   5.770  1.6783  2.5081  0.8668
  179MOL   H13946775   6.660   0.457   5.816 -0.0160  0.4539  0.1355
  179MOL   H14046776   6.672   0.561   5.596  0.2981 -0.2472  1.7175
  179MOL   H14146777   6.620   0.402   5.553 -1.1676  0.7180 -0.6607
  179MOL   H14246778   6.732   0.496   5.355  3.4269  1.2170 -1.7322
  179MOL   H14346779   6.874   0.522   5.453  1.3515 -0.5635 -0.0909
  179MOL   H14446780   6.830   0.357   5.432 -1.3926  0.3708  1.0607
  179MOL   C14546781   6.863   0.411   5.879  0.1522  0.5373 -0.5660
  179MOL   C14646782   6.920   0.554   5.877  0.1974 -0.2976 -0.3183
  179MOL   O14746783   7.061   0.549   5.878 -0.4529 -0.1591  0.0066
  179MOL   C14846784   7.121   0.509   5.763 -0.0299 -0.0360  0.2407
  179MOL   C14946785   7.273   0.502   5.775  0.0042 -0.1716  0.0038
  179MOL   H15046786   6.941   0.336   5.866  0.8972  0.9015  1.6102
  179MOL   H15146787   6.825   0.381   5.977  0.9115  0.5077 -0.2789
  179MOL   H15246788   6.880   0.602   5.788  0.1143 -0.1062 -0.1790
  179MOL   H15346789   7.089   0.577   5.684  1.0582 -0.9545 -1.0376
  179MOL   H15446790   7.089   0.413   5.723 -1.2433  1.0395 -1.4537
  179MOL   H15546791   7.309   0.435   5.853 -0.7652 -1.9843 -1.1434
  179MOL   H15646792   7.320   0.469   5.682 -1.2125  0.9219 -1.0201
  179MOL   H15746793   7.318   0.601   5.782 -1.0340  0.2782  0.5126
  179MOL   C15846794   6.886   0.632   6.006 -0.4488 -0.6011 -0.1582
  179MOL   C15946795   6.901   0.787   5.987 -0.8512  0.1241 -0.4629
  179MOL   O16046796   6.911   0.850   6.117 -0.1724  0.1563 -0.4471
  179MOL   C16146797   7.047   0.887   6.153 -0.3196  0.0565 -0.3808
  179MOL   C16246798   7.050   0.929   6.304  0.5588 -0.2335 -0.1029
  179MOL   H16346799   6.949   0.598   6.087  1.2369  1.7100 -0.4375
  179MOL   H16446800   6.788   0.596   6.037 -1.3225  0.1633 -1.9596
  179MOL   H16546801   6.993   0.806   5.934 -0.7027 -0.4633 -0.4208
  179MOL   H16646802   7.062   0.979   6.097 -2.0355  0.4678 -0.1885
  179MOL   H16746803   7.115   0.806   6.124 -0.9533 -0.7642  0.3728
  179MOL   H16846804   7.152   0.962   6.325 -0.1119  1.7892  0.0853
  179MOL   H16946805   6.988   1.015   6.328  0.8424 -0.2484  0.7200
  179MOL   H17046806   7.009   0.850   6.366  0.1051  1.2569  1.5393
  179MOL   C17146807   6.786   0.846   5.910  0.1364 -0.5664  0.2444
  179MOL   C17246808   6.797   0.994   5.871  0.7195  0.1245 -0.0538
  179MOL   O17346809   6.664   1.024   5.831  0.1186 -0.4009  0.0030
  179MOL   C17446810   6.638   1.165   5.827  0.5598  0.0522 -0.6958
  179MOL   C17546811   6.488   1.163   5.808 -1.0335  0.3388  0.0393
  179MOL   H17646812   6.689   0.826   5.955  1.1457 -0.8719  2.3439
  179MOL   H17746813   6.793   0.801   5.810  2.9882 -0.1976  0.2310
  179MOL   H17846814   6.817   1.053   5.961 -0.1727  0.3524 -0.0043
  179MOL   H17946815   6.671   1.216   5.736  0.2465 -0.8422 -1.3190
  179MOL   H18046816   6.672   1.218   5.915 -3.8714  1.9350  0.0518
  179MOL   H18146817   6.437   1.160   5.905 -2.0190 -3.0834 -0.5221
  179MOL   H18246818   6.459   1.259   5.765 -0.0845  0.4198 -0.4392
  179MOL   H18346819   6.463   1.080   5.742  0.6979 -0.1968  0.0172
  179MOL   C18446820   6.905   1.022   5.759  0.2305 -0.2696  0.5115
  179MOL   C18546821   7.037   1.086   5.792  0.4301  0.0559  0.3148
  179MOL   O18646822   7.017   1.221   5.833  0.4693 -0.0015  0.6284
  179MOL   C18746823   7.046   1.262   5.965 -0.1326 -0.7343 -0.3247
  179MOL   C18846824   7.028   1.411   5.984  0.1945  0.3659  0.4507
  179MOL   H18946825   6.854   1.083   5.685 -1.3026  0.0435  1.8023
  179MOL   H19046826   6.925   0.932   5.700 -1.8279 -0.2784 -0.2019
  179MOL   H19146827   7.103   1.038   5.865 -0.1494 -1.3059 -0.0404
  179MOL   H19246828   7.143   1.234   6.005 -0.1309 -0.1922  0.0511
  179MOL   H19346829   6.973   1.205   6.023 -1.8907  2.1718  0.3783
  179MOL   H19446830   6.934   1.436   5.935  0.2419 -1.0900 -0.3971
  179MOL   H19546831   7.016   1.437   6.089  1.8014 -0.3366  0.8274
  179MOL   H19646832   7.114   1.461   5.940 -1.9521  2.6953 -1.1939
  179MOL   C19746833   7.134   1.108   5.671  0.3625 -0.2061 -0.4104
  179MOL   C19846834   7.188   0.980   5.601 -0.0047 -0.1231  0.2944
  179MOL   O19946835   7.322   1.012   5.555 -0.3115 -0.1723 -0.0872
  179MOL   C20046836   7.421   0.966   5.647  0.1020  0.0131 -0.6491
  179MOL   C20146837   7.553   0.978   5.570  1.0136  0.6411 -0.0474
  179MOL   H20246838   7.222   1.159   5.711  0.3996 -0.8528  0.3428
  179MOL   H20346839   7.086   1.182   5.607  0.3737  0.1361 -0.0222
  179MOL   H20446840   7.190   0.903   5.677 -0.0900  0.2435  0.6727
  179MOL   H20546841   7.399   0.867   5.686 -1.2788  0.5961  0.0745
  179MOL   H20646842   7.417   1.041   5.727  1.0659  0.6962 -1.2257
  179MOL   H20746843   7.639   0.974   5.637  0.0069 -1.0492  1.1743
  179MOL   H20846844   7.554   0.901   5.494 -0.2953  1.7662 -1.2261
  179MOL   H20946845   7.552   1.076   5.523 -1.7751  0.1188 -1.1186
  179MOL   C21046846   7.102   0.949   5.482 -0.9979  0.2612 -0.4582
  179MOL   C21146847   7.135   0.806   5.419 -0.5290 -0.2083  1.1441
  179MOL   O21246848   7.249   0.825   5.324 -0.1401  0.1241 -0.1767
  179MOL   C21346849   7.305   0.708   5.268 -0.4451 -0.2778  0.5876
  179MOL   C21446850   7.394   0.752   5.158 -0.0729 -0.1515  0.0419
  179MOL   H21546851   7.114   1.034   5.415 -2.2848  0.7383 -0.1104
  179MOL   H21646852   6.997   0.969   5.504 -1.0782  2.2884 -2.5217
  179MOL   H21746853   7.171   0.734   5.492 -2.7323 -0.1136  2.3804
  179MOL   H21846854   7.227   0.641   5.234  0.1385 -0.5510 -0.2254
  179MOL   H21946855   7.360   0.646   5.340  1.9505 -2.1685 -2.7540
  179MOL   H22046856   7.330   0.813   5.094 -2.7276 -1.4466  1.3659
  179MOL   H22146857   7.475   0.819   5.187  0.2684 -0.2719 -0.6148
  179MOL   H22246858   7.436   0.666   5.106 -1.6820 -1.8946  1.5467
  179MOL   C22346859   7.007   0.739   5.368 -0.1805 -0.4031 -0.6744
  179MOL   C22446860   6.941   0.825   5.260  0.8912 -0.1533 -0.1340
  179MOL   O22546861   6.855   0.924   5.324 -0.2470  0.0250 -0.2363
  179MOL   C22646862   6.813   1.025   5.233  0.4420 -0.4953 -0.3155
  179MOL   C22746863   6.752   1.137   5.313 -0.0414  0.4840  0.5297
  179MOL   H22846864   6.943   0.727   5.455  0.0664  4.0685  0.2555
  179MOL   H22946865   7.023   0.638   5.330  2.3371 -0.7372  1.0981
  179MOL   H23046866   7.023   0.867   5.201 -0.1904  0.3083 -1.3340
  179MOL   H23146867   6.741   0.977   5.167 -1.2661  1.3177  0.1983
  179MOL   H23246868   6.890   1.069   5.170 -0.0196  0.9360  0.1049
  179MOL   H23346869   6.824   1.179   5.384  0.3161 -0.3185  0.6591
  179MOL   H23446870   6.714   1.214   5.247 -1.6296 -2.0090 -1.5298
  179MOL   H23546871   6.662   1.107   5.367 -1.0984 -2.5439 -2.7304
  179MOL   C23646872   6.852   0.734   5.172 -0.4160 -0.3471  0.5589
  179MOL   C23746873   6.869   0.764   5.021 -0.1029 -0.1218 -0.0679
  179MOL   O23846874   6.760   0.709   4.955  0.1297 -0.3767 -0.0239
  179MOL   C23946875   6.716   0.770   4.838 -0.2393  0.1669  0.2951
  179MOL   C24046876   6.637   0.673   4.755 -0.5419 -0.3657 -0.2156
  179MOL   H24146877   6.750   0.749   5.205 -1.4379 -0.0443 -2.5720
  179MOL   H24246878   6.872   0.628   5.190 -0.4550 -0.6231 -0.9603
  179MOL   H24346879   6.878   0.872   5.009 -1.3916  0.2116  1.7094
  179MOL   H24446880   6.796   0.801   4.770  0.9676 -1.6218  0.8692
  179MOL   H24546881   6.650   0.854   4.859  1.5582  1.6914 -0.0805
  179MOL   H24646882   6.555   0.627   4.811 -1.6950  1.6284 -0.2366
  179MOL   H24746883   6.599   0.730   4.670  1.8062 -1.3120 -1.9608
  179MOL   H24846884   6.701   0.590   4.725 -1.1679 -3.0891  5.3391
  179MOL   C24946885   7.002   0.707   4.958  0.0703  0.4932  0.2043
  179MOL   C25046886   7.012   0.560   4.950  0.3292 -0.0371 -0.9663
  179MOL   O25146887   7.140   0.506   4.934  1.0555  0.3994  0.3899
  179MOL   C25246888   7.127   0.366   4.920  0.8433 -0.4673  0.4115
  179MOL   C25346889   7.262   0.307   4.931  0.5243  0.3179 -0.3815
  179MOL   H25446890   7.084   0.740   5.022  0.4981  1.2516 -0.7251
  179MOL   H25546891   7.009   0.754   4.860  0.2595 -2.6551 -1.3451
  179MOL   H25646892   6.966   0.522   5.041 -0.3555  0.8238 -0.9434
  179MOL   H25746893   7.089   0.340   4.821 -4.1364 -0.4439  2.1495
  179MOL   H25846894   7.079   0.319   5.006  1.6527  0.3123  1.2939
  179MOL   H25946895   7.240   0.201   4.913 -0.3823 -0.7250  5.5998
  179MOL   H26046896   7.331   0.335   4.852  0.4729 -0.2405 -0.6327
  179MOL   H26146897   7.307   0.323   5.029 -0.9802 -1.5615  0.6543
  179MOL   H26246898   6.943   0.527   4.872  1.5920 -0.8569 -1.7711
  180MOL     C146899   5.777   1.591   3.492  0.1550  0.1602 -0.7465
  180MOL     C246900   5.931   1.619   3.504  0.1612 -0.6670 -0.9891
  180MOL     O346901   5.957   1.752   3.442 -0.1229 -0.1077 -0.2748
  180MOL     C446902   5.926   1.862   3.521  0.8122 -0.1189  0.2664
  180MOL     C546903   6.043   1.882   3.611  0.4421 -0.1438  0.4425
  180MOL     H646904   5.762   1.483   3.495  2.0546 -0.0937  2.4086
  180MOL     H746905   5.713   1.646   3.561  1.2922  1.1027 -0.4115
  180MOL     H846906   5.965   1.615   3.608 -1.4575 -1.9428 -0.4710
  180MOL     H946907   5.835   1.858   3.582  0.9710  0.4783  0.5404
  180MOL    H1046908   5.911   1.949   3.457 -0.8010  0.2247  1.0779
  180MOL    H1146909   6.054   1.796   3.676  0.5238  0.4546  1.2317
  180MOL    H1246910   6.132   1.900   3.550  2.0603  0.4421  2.9178
  180MOL    H1346911   6.029   1.962   3.684  1.7281  0.1799  0.3469
  180MOL    H1446912   5.750   1.620   3.390 -0.3211  0.2478 -0.5969
  180MOL    C1546913   6.012   1.512   3.424  0.0922  0.0875 -0.7920
  180MOL    C1646914   6.165   1.513   3.430  0.0525  0.3006  0.6469
  180MOL    O1746915   6.218   1.398   3.367 -0.2318  0.1610  0.0936
  180MOL    C1846916   6.257   1.423   3.231 -0.1138 -0.6052  0.6042
  180MOL    C1946917   6.376   1.343   3.194  0.3436  0.3685  0.1923
  180MOL    H2046918   5.969   1.508   3.323 -0.1200  1.8006 -0.7783
  180MOL    H2146919   5.979   1.418   3.470 -0.3766  0.0780 -1.1370
  180MOL    H2246920   6.197   1.609   3.390  0.2751  1.0461  2.5278
  180MOL    H2346921   6.273   1.525   3.197  3.4556 -0.9886  0.9840
  180MOL    H2446922   6.175   1.383   3.170 -1.1120 -0.3396  1.7483
  180MOL    H2546923   6.400   1.259   3.260 -1.5307 -0.6935 -0.4302
  180MOL    H2646924   6.455   1.416   3.212  0.2440  0.4811  0.1722
  180MOL    H2746925   6.393   1.322   3.088  2.2946 -1.6329  0.8550
  180MOL    C2846926   6.211   1.509   3.579 -0.0261 -0.1725  0.5052
  180MOL    C2946927   6.362   1.488   3.612  0.4929 -0.6468  0.3164
  180MOL    O3046928   6.396   1.472   3.757  0.1883 -0.2228  0.5310
  180MOL    C3146929   6.369   1.351   3.819 -0.6715  0.4037  0.1336
  180MOL    C3246930   6.460   1.334   3.944 -0.2550 -0.0136  0.3039
  180MOL    H3346931   6.165   1.429   3.638  0.3281 -0.7720 -0.0222
  180MOL    H3446932   6.170   1.593   3.635 -0.0970  4.1012 -5.4433
  180MOL    H3546933   6.383   1.394   3.560  0.8768  0.1859 -1.0732
  180MOL    H3646934   6.386   1.263   3.756  0.5539 -1.3127  2.7362
  180MOL    H3746935   6.268   1.331   3.852 -1.4018  0.5312 -1.9241
  180MOL    H3846936   6.563   1.334   3.910 -0.6926 -0.0843 -1.0531
  180MOL    H3946937   6.465   1.414   4.018  0.9138  0.2209 -0.0291
  180MOL    H4046938   6.430   1.239   3.989 -0.7505 -0.9345 -1.9211
  180MOL    C4146939   6.456   1.596   3.554  0.1566 -0.0373 -0.5389
  180MOL    C4246940   6.448   1.734   3.618  0.4269 -0.2749 -0.3728
  180MOL    O4346941   6.521   1.830   3.543  1.0305  0.6307 -0.4294
  180MOL    C4446942   6.441   1.918   3.466 -0.0744  0.3960  0.5478
  180MOL    C4546943   6.522   2.034   3.420 -0.3221  0.3613 -0.1543
  180MOL    H4646944   6.445   1.612   3.447 -1.5899  0.1818 -0.3378
  180MOL    H4746945   6.553   1.547   3.567  1.1536  1.4050 -2.3120
  180MOL    H4846946   6.343   1.759   3.635  0.0841 -1.7942 -0.2383
  180MOL    H4946947   6.349   1.956   3.511 -0.5438 -0.1323  0.0374
  180MOL    H5046948   6.404   1.855   3.384 -2.4701 -0.6821  2.3978
  180MOL    H5146949   6.604   2.011   3.352  0.4424  1.6444  0.3065
  180MOL    H5246950   6.460   2.105   3.366  2.6781  2.3664 -1.0717
  180MOL    H5346951   6.576   2.079   3.504 -1.5072  2.2631 -0.3821
  180MOL    C5446952   6.506   1.748   3.764 -0.1256  0.1040  0.0648
  180MOL    C5546953   6.515   1.894   3.818 -0.2942  0.5050 -0.0029
  180MOL    O5646954   6.585   1.904   3.944  0.0688 -0.1759 -0.1697
  180MOL    C5746955   6.722   1.872   3.947  0.5362  0.6889 -1.0332
  180MOL    C5846956   6.794   1.905   4.081  0.2864  0.5891  0.4667
  180MOL    H5946957   6.598   1.690   3.761 -0.8838 -1.1241  0.3033
  180MOL    H6046958   6.446   1.688   3.833 -0.5598 -0.7388 -1.0237
  180MOL    H6146959   6.573   1.945   3.741  0.1819  0.3195  0.2363
  180MOL    H6246960   6.774   1.939   3.878 -1.5637  3.0854 -0.3562
  180MOL    H6346961   6.742   1.776   3.899 -0.7602  0.6934 -1.6150
  180MOL    H6446962   6.774   2.007   4.114 -0.5733  0.2518  0.9860
  180MOL    H6546963   6.760   1.843   4.164  3.8678  0.0210  1.5908
  180MOL    H6646964   6.902   1.901   4.065  0.1589 -2.9433  0.0557
  180MOL    C6746965   6.369   1.959   3.841 -0.6504  0.6202 -0.5179
  180MOL    C6846966   6.365   2.113   3.865 -0.4192  0.1907  0.1675
  180MOL    O6946967   6.231   2.143   3.898  0.1790 -0.1418 -0.5727
  180MOL    C7046968   6.210   2.260   3.973 -0.1776 -0.1608 -0.1346
  180MOL    C7146969   6.065   2.300   3.983  0.1231  0.5704  0.1505
  180MOL    H7246970   6.329   1.911   3.931  0.0899 -1.0986 -1.0713
  180MOL    H7346971   6.306   1.933   3.757  1.8659 -0.3231 -2.1642
  180MOL    H7446972   6.423   2.132   3.955  0.2026 -0.3863 -0.1098
  180MOL    H7546973   6.270   2.339   3.927  0.9062 -2.0076 -1.9655
  180MOL    H7646974   6.246   2.230   4.071 -0.2783 -1.7954 -0.5786
  180MOL    H7746975   6.069   2.396   4.034  1.9013  0.8226 -0.4275
  180MOL    H7846976   6.025   2.316   3.883 -1.4178 -2.9117  0.1102
  180MOL    H7946977   5.996   2.227   4.025 -0.4513 -0.6158 -2.7164
  180MOL    C8046978   6.398   2.191   3.737 -0.0086  0.1110  0.3125
  180MOL    C8146979   6.509   2.294   3.764  0.6846 -0.0600  0.7063
  180MOL    O8246980   6.530   2.355   3.638  0.0690  0.1780  0.0244
  180MOL    C8346981   6.465   2.475   3.618  0.4815  0.1201 -0.0876
  180MOL    C8446982   6.515   2.540   3.489 -0.6362 -0.1565 -0.1714
  180MOL    H8546983   6.307   2.243   3.707 -0.4390 -0.6894  0.2444
  180MOL    H8646984   6.426   2.127   3.654 -1.2637  2.1253 -1.7299
  180MOL    H8746985   6.484   2.368   3.840  0.6503  2.9193 -2.1116
  180MOL    H8846986   6.484   2.540   3.703  0.7665 -1.2546  0.9125
  180MOL    H8946987   6.358   2.457   3.611  0.4411  0.9862 -2.3152
  180MOL    H9046988   6.617   2.576   3.497 -0.6349  0.0749 -1.1343
  180MOL    H9146989   6.516   2.478   3.399  2.7760 -0.1404 -0.1876
  180MOL    H9246990   6.449   2.622   3.462 -1.6665 -1.3691 -1.4362
  180MOL    C9346991   6.651   2.239   3.796  0.2375 -0.3425  0.3776
  180MOL    C9446992   6.773   2.337   3.784 -0.2673  0.7329 -0.0998
  180MOL    O9546993   6.886   2.270   3.835 -0.3416  0.0557 -0.2127
  180MOL    C9646994   6.956   2.189   3.750  0.3512  0.3756 -0.5930
  180MOL    C9746995   7.074   2.132   3.828 -0.2355 -0.0851 -0.3878
  180MOL    H9846996   6.658   2.155   3.727  0.3400 -1.8766  2.2181
  180MOL    H9946997   6.665   2.195   3.895  0.0904 -0.0557  0.5283
  180MOL   H10046998   6.790   2.367   3.681 -1.0493 -0.6228 -0.6385
  180MOL   H10146999   6.998   2.246   3.667  0.5683  2.5403  0.9762
  180MOL   H10247000   6.885   2.108   3.732  1.2201 -0.3244 -0.8570
  180MOL   H10347001   7.146   2.085   3.762  2.0668  1.4427  0.9923
  180MOL   H10447002   7.125   2.206   3.890 -0.7119  1.3125 -1.6555
  180MOL   H10547003   7.044   2.054   3.899 -0.9132  1.2122  0.7951
  180MOL   C10647004   6.750   2.465   3.867 -0.0781  0.4271  0.4113
  180MOL   C10747005   6.869   2.558   3.885  1.0382  0.9028 -0.1711
  180MOL   O10847006   6.822   2.676   3.948 -0.2687  0.0981 -0.7053
  180MOL   C10947007   6.867   2.670   4.081  0.4730 -0.3498  0.7763
  180MOL   C11047008   6.831   2.803   4.144  0.4425  0.1242  0.1601
  180MOL   H11147009   6.722   2.439   3.969 -0.6529  2.5735  0.8443
  180MOL   H11247010   6.667   2.519   3.820  0.6128  0.2447 -1.0549
  180MOL   H11347011   6.952   2.508   3.933  0.7693 -1.7415 -2.3362
  180MOL   H11447012   6.975   2.650   4.084  0.2651 -1.5315  0.7594
  180MOL   H11547013   6.831   2.580   4.130 -2.1144  0.4616  0.3919
  180MOL   H11647014   6.868   2.797   4.246  0.1455  1.4758  0.3612
  180MOL   H11747015   6.889   2.886   4.103 -0.8649  0.0933 -1.8208
  180MOL   H11847016   6.724   2.827   4.147  0.6677  1.1401  0.3147
  180MOL   C11947017   6.932   2.611   3.751 -0.0046  0.4320 -0.5879
  180MOL   C12047018   7.065   2.704   3.749  0.5525  0.7089 -0.2554
  180MOL   O12147019   7.163   2.643   3.830 -0.3756 -0.0477  0.0922
  180MOL   C12247020   7.208   2.512   3.809  0.0727  0.7178  0.6619
  180MOL   C12347021   7.344   2.486   3.876 -0.5791 -0.4423  0.7983
  180MOL   H12447022   6.851   2.663   3.699 -0.6870 -0.1695 -0.1466
  180MOL   H12547023   6.937   2.526   3.683  0.3132 -0.5955  0.7101
  180MOL   H12647024   7.110   2.708   3.649  1.9560  0.3451  0.3546
  180MOL   H12747025   7.205   2.505   3.700 -4.4790 -1.2735  0.8271
  180MOL   H12847026   7.134   2.435   3.831  0.4878 -0.6489 -2.4397
  180MOL   H12947027   7.411   2.550   3.819 -1.6219  1.0557  1.2174
  180MOL   H13047028   7.339   2.513   3.982 -0.2025  0.8695  0.4920
  180MOL   H13147029   7.381   2.384   3.882  3.3505  0.8610  0.1890
  180MOL   C13247030   7.049   2.845   3.795  0.7647 -0.4215 -0.6411
  180MOL   C13347031   7.014   2.964   3.690 -0.2330  0.3096 -0.2410
  180MOL   O13447032   7.137   3.008   3.637 -0.1060  0.5339 -0.2360
  180MOL   C13547033   7.134   3.105   3.530  0.0505 -0.1267 -0.4908
  180MOL   C13647034   7.267   3.102   3.451  1.0008  0.4036 -0.9501
  180MOL   H13747035   7.139   2.868   3.852  1.9875 -3.7641 -1.1387
  180MOL   H13847036   6.963   2.844   3.862  1.0781  0.4427 -0.2141
  180MOL   H13947037   6.963   2.907   3.612  1.2253 -2.6555  0.8921
  180MOL   H14047038   7.113   3.199   3.581 -2.5434 -0.5404 -0.7542
  180MOL   H14147039   7.054   3.095   3.457 -1.1297  3.5267  0.1952
  180MOL   H14247040   7.352   3.131   3.513 -0.0836 -1.9661  1.7512
  180MOL   H14347041   7.290   3.014   3.392  1.5266  0.3314 -0.6418
  180MOL   H14447042   7.253   3.184   3.380 -2.0963  0.6495 -0.1316
  180MOL   C14547043   6.925   3.076   3.748 -0.8051 -0.5111 -0.1708
  180MOL   C14647044   6.791   3.022   3.803 -0.6464 -0.0606 -0.2707
  180MOL   O14747045   6.746   2.945   3.698 -0.2628  0.1490  0.6453
  180MOL   C14847046   6.632   2.855   3.729 -0.0204 -0.1301 -0.1400
  180MOL   C14947047   6.528   2.871   3.623 -0.2998  1.2067  0.3451
  180MOL   H15047048   6.907   3.155   3.676  0.2169 -0.4173 -0.3260
  180MOL   H15147049   6.981   3.122   3.830  2.7128 -0.7612 -2.3547
  180MOL   H15247050   6.812   2.972   3.897  0.8963  1.0879  0.0258
  180MOL   H15347051   6.599   2.857   3.833  2.4017  0.8852  0.6396
  180MOL   H15447052   6.682   2.758   3.724  0.5821  0.1675  0.0136
  180MOL   H15547053   6.491   2.974   3.617 -1.5045  0.7162 -0.9175
  180MOL   H15647054   6.577   2.855   3.526 -1.1276  0.0887  0.0991
  180MOL   H15747055   6.449   2.797   3.634 -0.9447  1.9485  0.7279
  180MOL   C15847056   6.694   3.138   3.837 -0.0130  0.0561 -0.2786
  180MOL   C15947057   6.722   3.209   3.978 -0.4494  0.4521  0.2053
  180MOL   O16047058   6.668   3.125   4.077  0.0325 -0.5363 -0.4468
  180MOL   C16147059   6.720   3.134   4.209  0.1652  0.1988  0.0018
  180MOL   C16247060   6.632   3.059   4.310 -0.0498 -0.3387 -0.0120
  180MOL   H16347061   6.595   3.099   3.859  0.2519  0.5120  1.8917
  180MOL   H16447062   6.683   3.206   3.753 -0.6383  1.2194  0.7142
  180MOL   H16547063   6.829   3.207   4.001  0.2224  1.8179 -2.6023
  180MOL   H16647064   6.726   3.237   4.244 -0.0605  0.7039 -1.4026
  180MOL   H16747065   6.822   3.099   4.200  0.3045  1.1345 -2.4869
  180MOL   H16847066   6.674   3.041   4.409  1.0487  1.2403 -0.1729
  180MOL   H16947067   6.536   3.111   4.321 -0.4866 -1.2293  0.4029
  180MOL   H17047068   6.589   2.964   4.279 -0.7083 -0.3249  0.8303
  180MOL   C17147069   6.665   3.346   3.978  1.0584 -0.2861 -0.4317
  180MOL   C17247070   6.741   3.453   3.909 -0.6151  0.8797 -1.0889
  180MOL   O17347071   6.875   3.451   3.960  0.2502 -0.8644 -0.0673
  180MOL   C17447072   6.909   3.488   4.092 -0.5374 -0.7390  0.1076
  180MOL   C17547073   7.052   3.437   4.113  1.0363 -0.0419 -0.6564
  180MOL   H17647074   6.636   3.376   4.079  1.5422  0.6870 -0.5805
  180MOL   H17747075   6.569   3.331   3.928 -0.7966 -0.1821  2.9621
  180MOL   H17847076   6.748   3.413   3.807 -3.5557 -1.9078 -0.2926
  180MOL   H17947077   6.851   3.458   4.179 -0.2928 -1.1081  0.1474
  180MOL   H18047078   6.912   3.597   4.088 -1.3016 -0.6902  0.8435
  180MOL   H18147079   7.090   3.481   4.205  0.3953  1.2537 -1.0118
  180MOL   H18247080   7.051   3.328   4.115 -3.3416 -0.1000 -1.5775
  180MOL   H18347081   7.126   3.461   4.037 -0.9064  0.5404 -2.4158
  180MOL   C18447082   6.685   3.597   3.907 -0.0900  0.7720  0.5892
  180MOL   C18547083   6.738   3.683   3.788  0.3512  0.3075  0.0192
  180MOL   O18647084   6.716   3.816   3.829  0.1103 -0.1020  0.0450
  180MOL   C18747085   6.826   3.872   3.906  0.5468 -0.5174  0.4443
  180MOL   C18847086   6.792   4.023   3.934  0.4595 -0.2799  0.7473
  180MOL   H18947087   6.697   3.642   4.005 -0.0968  2.4329 -0.1532
  180MOL   H19047088   6.579   3.577   3.897  0.0388  1.1157 -1.9474
  180MOL   H19147089   6.846   3.670   3.791  0.1731 -0.7395  2.6895
  180MOL   H19247090   6.924   3.859   3.859 -0.2428  2.4802 -2.2351
  180MOL   H19347091   6.845   3.820   4.000  2.9462  0.2599  0.4469
  180MOL   H19447092   6.753   4.075   3.847  2.5746  1.8659  1.0111
  180MOL   H19547093   6.721   4.033   4.017  0.2249  2.0887  0.3057
  180MOL   H19647094   6.885   4.072   3.963 -0.1756  0.3934  1.6738
  180MOL   C19747095   6.666   3.667   3.645  0.0543 -0.6602  0.0822
  180MOL   C19847096   6.699   3.546   3.557 -0.1644  0.1215  0.0472
  180MOL   O19947097   6.840   3.553   3.541  0.4604 -0.4322 -0.2087
  180MOL   C20047098   6.898   3.428   3.505  0.8535  0.0663 -0.1113
  180MOL   C20147099   7.058   3.460   3.505 -0.0527  0.2767 -0.0787
  180MOL   H20247100   6.699   3.747   3.580 -1.7360  0.8642  1.0127
  180MOL   H20347101   6.562   3.687   3.667  0.5045  3.5114 -1.2692
  180MOL   H20447102   6.672   3.454   3.606  0.7128 -1.9071 -3.1090
  180MOL   H20547103   6.864   3.403   3.405 -0.2238 -0.0626  0.2757
  180MOL   H20647104   6.869   3.343   3.568 -0.5958  0.0264 -0.8101
  180MOL   H20747105   7.071   3.556   3.453  2.1566 -0.3213 -0.6707
  180MOL   H20847106   7.091   3.455   3.608  0.1821 -0.3711 -0.1852
  180MOL   H20947107   7.120   3.387   3.452  0.2935 -0.7680  1.7380
  180MOL   C21047108   6.633   3.562   3.416  0.1981 -0.0696  0.4978
  180MOL   C21147109   6.552   3.434   3.372  0.9676 -0.5314  0.4009
  180MOL   O21247110   6.648   3.324   3.372  1.0632  0.2265  0.1214
  180MOL   C21347111   6.596   3.194   3.364 -0.0810  0.3097  0.5111
  180MOL   C21447112   6.710   3.097   3.376 -0.2222 -0.0371 -0.4705
  180MOL   H21547113   6.704   3.596   3.341  0.2825  1.4289  1.2335
  180MOL   H21647114   6.552   3.634   3.427  0.2131  0.0875 -0.3791
  180MOL   H21747115   6.473   3.420   3.446  0.6773  1.0932  0.4375
  180MOL   H21847116   6.551   3.171   3.268  1.7583 -2.6570  0.2695
  180MOL   H21947117   6.525   3.172   3.444 -1.8201  2.8060 -0.2863
  180MOL   H22047118   6.787   3.118   3.302 -1.9812  2.4521 -1.6879
  180MOL   H22147119   6.760   3.095   3.473 -2.1149  1.2701  0.5549
  180MOL   H22247120   6.674   2.995   3.360 -2.3871  0.2029  2.3546
  180MOL   C22347121   6.494   3.443   3.230 -0.4886  0.4561  0.1262
  180MOL   C22447122   6.393   3.545   3.202 -0.1461 -0.3807  0.0523
  180MOL   O22547123   6.272   3.505   3.257  0.3185  0.2093 -0.8761
  180MOL   C22647124   6.217   3.592   3.355  0.4165 -0.1056 -0.0440
  180MOL   C22747125   6.067   3.548   3.383 -0.0874  0.8368 -0.8185
  180MOL   H22847126   6.462   3.343   3.200  0.1642  0.8162 -1.8705
  180MOL   H22947127   6.573   3.452   3.155 -0.5170 -0.7028 -0.0515
  180MOL   H23047128   6.424   3.638   3.248 -1.6825 -1.0012  2.4227
  180MOL   H23147129   6.217   3.697   3.327 -2.7018 -0.2017 -0.5526
  180MOL   H23247130   6.266   3.577   3.451  0.3971  0.9665  0.1416
  180MOL   H23347131   6.008   3.561   3.292  0.2676  1.0966 -1.0165
  180MOL   H23447132   6.074   3.442   3.407 -1.9084  0.7734 -0.5061
  180MOL   H23547133   6.022   3.608   3.461 -1.3101  1.2130 -1.7932
  180MOL   C23647134   6.364   3.555   3.048  0.5223 -0.1539  0.0713
  180MOL   C23747135   6.255   3.656   3.016  0.6635  0.1349 -0.4120
  180MOL   O23847136   6.226   3.647   2.873  0.2741 -0.3117 -0.5292
  180MOL   C23947137   6.107   3.580   2.839 -0.9674  0.2509  0.1990
  180MOL   C24047138   6.120   3.551   2.696  0.0791  0.0923 -0.3527
  180MOL   H24147139   6.335   3.461   3.001  0.4295 -0.3955  0.6014
  180MOL   H24247140   6.450   3.586   2.988  0.2353 -1.4801 -1.0522
  180MOL   H24347141   6.174   3.631   3.084 -0.5807  1.1260 -1.4967
  180MOL   H24447142   6.021   3.644   2.855 -1.9425 -1.2991  1.2844
  180MOL   H24547143   6.083   3.490   2.896  1.6025 -0.3876  0.3537
  180MOL   H24647144   6.110   3.643   2.638  0.6053 -1.2574 -2.6538
  180MOL   H24747145   6.218   3.509   2.672  0.0291  0.1809 -0.7189
  180MOL   H24847146   6.040   3.479   2.678  2.2268 -2.1720 -1.0881
  180MOL   C24947147   6.291   3.801   3.046 -0.2421  1.1310  0.4127
  180MOL   C25047148   6.165   3.892   3.029 -0.0223  0.3075  0.2076
  180MOL   O25147149   6.201   4.026   3.041  0.3531  0.0853  0.2503
  180MOL   C25247150   6.093   4.105   3.021 -0.0041  0.0270 -0.0749
  180MOL   C25347151   6.142   4.242   3.052  0.4090  0.2118 -0.3169
  180MOL   H25447152   6.362   3.833   2.970  0.5815 -0.4168  0.5194
  180MOL   H25547153   6.338   3.808   3.144  0.5955 -1.7875  0.2545
  180MOL   H25647154   6.117   3.866   2.935  0.8843 -0.4606 -0.0535
  180MOL   H25747155   6.018   4.082   3.097  0.0016 -0.5026 -0.2294
  180MOL   H25847156   6.046   4.096   2.924  2.8446  1.4380 -1.6482
  180MOL   H25947157   6.158   4.257   3.158  0.9694 -3.2130  0.1445
  180MOL   H26047158   6.216   4.278   2.980  0.3763  1.2755  0.1663
  180MOL   H26147159   6.059   4.306   3.021 -0.6757 -1.1072 -0.1693
  180MOL   H26247160   6.096   3.867   3.110  0.5721 -1.3572  0.2087
  181MOL     C147161   2.913   5.059   2.184 -0.5832  0.3994 -1.0647
  181MOL     C247162   3.026   4.951   2.180 -0.4238 -0.5359 -0.7835
  181MOL     O347163   3.155   5.009   2.194  0.1309  0.3554 -1.1057
  181MOL     C447164   3.180   5.028   2.338  0.2429 -0.0811 -0.0910
  181MOL     C547165   3.333   5.056   2.355  0.1749 -0.1367  0.2746
  181MOL     H647166   2.924   5.121   2.273 -2.1461  2.6557 -2.3560
  181MOL     H747167   2.923   5.133   2.104 -1.5604  0.8292 -0.8046
  181MOL     H847168   2.997   4.889   2.265  0.4311 -2.1969 -1.6670
  181MOL     H947169   3.165   4.937   2.396  0.7783 -1.4531 -2.0534
  181MOL    H1047170   3.119   5.107   2.381  0.5601  0.1781 -0.1129
  181MOL    H1147171   3.350   5.074   2.461 -1.8849  1.4895  0.3436
  181MOL    H1247172   3.402   4.977   2.325 -1.4205 -0.7222 -1.9671
  181MOL    H1347173   3.354   5.154   2.313 -1.7366  0.8503  1.5692
  181MOL    H1447174   2.813   5.017   2.194 -0.0464 -0.9125 -1.1176
  181MOL    C1547175   3.013   4.867   2.043  0.1240 -0.2009 -0.0904
  181MOL    C1647176   2.880   4.802   2.005 -0.5091  0.0644  0.3386
  181MOL    O1747177   2.826   4.735   2.122  0.1388 -0.6518  0.2094
  181MOL    C1847178   2.681   4.737   2.136  0.2120  0.1618  0.4426
  181MOL    C1947179   2.631   4.605   2.192  0.0670  0.1754  0.4727
  181MOL    H2047180   3.090   4.790   2.049 -3.0197 -3.4193  0.4929
  181MOL    H2147181   3.051   4.935   1.967  0.3669  0.9598  1.0539
  181MOL    H2247182   2.809   4.879   1.975  0.7340  0.0986 -2.6693
  181MOL    H2347183   2.641   4.749   2.035 -1.3850 -1.2889  0.8809
  181MOL    H2447184   2.660   4.823   2.200  1.0370  1.3976 -0.9026
  181MOL    H2547185   2.670   4.517   2.140 -0.6937  0.1968 -0.1505
  181MOL    H2647186   2.522   4.597   2.188  0.0904 -0.9465  1.8240
  181MOL    H2747187   2.652   4.594   2.298  1.5714  0.1043  0.1803
  181MOL    C2847188   2.894   4.686   1.907  0.2659 -0.1721  0.1296
  181MOL    C2947189   2.939   4.732   1.758  0.0781 -0.9803  0.0954
  181MOL    O3047190   2.816   4.728   1.678 -0.1271 -0.4541  0.1581
  181MOL    C3147191   2.715   4.817   1.710  0.0476 -0.3958  0.1149
  181MOL    C3247192   2.758   4.960   1.661  0.0711  0.3956 -0.0084
  181MOL    H3347193   2.805   4.624   1.901 -0.0511  0.4811 -2.1618
  181MOL    H3447194   2.962   4.610   1.946  0.0489 -0.8870 -0.8821
  181MOL    H3547195   2.986   4.830   1.748 -1.1232 -0.5798 -1.9135
  181MOL    H3647196   2.689   4.820   1.816 -2.6045  1.2787 -0.5193
  181MOL    H3747197   2.619   4.791   1.665  0.5678 -0.2468 -1.0987
  181MOL    H3847198   2.799   4.957   1.560  1.1186 -2.9277  0.4559
  181MOL    H3947199   2.670   5.023   1.663 -0.2057  0.0197 -0.1991
  181MOL    H4047200   2.842   5.001   1.717  0.9491  0.3625 -1.2944
  181MOL    C4147201   3.035   4.631   1.705  0.4615  0.5460 -0.5307
  181MOL    C4247202   3.078   4.634   1.555 -0.5552  0.5360  0.4712
  181MOL    O4347203   3.197   4.562   1.542 -0.1834 -0.4954  0.0821
  181MOL    C4447204   3.192   4.419   1.520  0.3132 -0.2639 -0.6308
  181MOL    C4547205   3.331   4.382   1.483  0.4684  0.2589  0.3812
  181MOL    H4647206   2.968   4.546   1.712  0.0823  0.9939  1.8274
  181MOL    H4747207   3.124   4.626   1.769 -0.0756  1.3756  0.2958
  181MOL    H4847208   2.998   4.583   1.502  0.2798  0.5811 -0.8741
  181MOL    H4947209   3.119   4.385   1.447 -0.7099  1.1216 -0.2758
  181MOL    H5047210   3.158   4.370   1.611 -0.9135  2.0897  0.2209
  181MOL    H5147211   3.354   4.432   1.390  1.1422 -0.4971  0.1342
  181MOL    H5247212   3.395   4.422   1.561 -1.3442  1.6972  1.1780
  181MOL    H5347213   3.345   4.274   1.475  0.9801  0.5489 -3.1649
  181MOL    C5447214   3.113   4.775   1.498  0.3043  0.1330 -0.2245
  181MOL    C5547215   3.161   4.776   1.347 -0.4633 -0.1318  0.0371
  181MOL    O5647216   3.219   4.898   1.299  0.5505  0.9022 -0.6698
  181MOL    C5747217   3.333   4.871   1.214  0.5326  0.5525 -0.0250
  181MOL    C5847218   3.381   5.001   1.152  0.0316  0.4746  0.3350
  181MOL    H5947219   3.188   4.813   1.567 -0.1082 -0.7721  0.7409
  181MOL    H6047220   3.022   4.833   1.507 -0.1890 -1.0056  2.7036
  181MOL    H6147221   3.236   4.698   1.334 -0.3519 -0.0108 -0.0494
  181MOL    H6247222   3.316   4.801   1.133  1.3523 -2.2670  2.1765
  181MOL    H6347223   3.415   4.834   1.276 -1.9940 -2.0751  1.8581
  181MOL    H6447224   3.290   5.048   1.116 -1.4059 -1.0447  1.9519
  181MOL    H6547225   3.429   5.070   1.222  4.4322 -0.5485 -1.4990
  181MOL    H6647226   3.444   4.989   1.064 -1.2267  1.6895 -0.7631
  181MOL    C6747227   3.047   4.757   1.243 -0.0332 -0.5269  0.1090
  181MOL    C6847228   3.031   4.609   1.200 -0.5810 -0.5060 -0.2343
  181MOL    O6947229   3.122   4.589   1.100 -0.0275 -0.1844  0.3117
  181MOL    C7047230   3.177   4.464   1.102  0.3004  0.0198 -0.5473
  181MOL    C7147231   3.287   4.451   0.990 -0.6553 -0.1523 -0.0977
  181MOL    H7247232   3.067   4.817   1.154 -0.1185  0.3563  0.6812
  181MOL    H7347233   2.950   4.785   1.285  0.0616  0.6472 -0.4263
  181MOL    H7447234   3.054   4.546   1.287  2.8195 -2.0641 -2.1660
  181MOL    H7547235   3.104   4.384   1.089  1.1079 -1.2060  1.9777
  181MOL    H7647236   3.227   4.445   1.197  1.1903 -0.5153 -1.1174
  181MOL    H7747237   3.350   4.539   0.996 -0.9892  0.2327 -1.8321
  181MOL    H7847238   3.339   4.356   1.001 -2.1817 -0.8142  1.6929
  181MOL    H7947239   3.243   4.460   0.891 -0.6989  0.0606 -0.0589
  181MOL    C8047240   2.894   4.580   1.142  0.6076  0.0658 -0.2685
  181MOL    C8147241   2.768   4.596   1.229  0.0067 -0.4540  0.2115
  181MOL    O8247242   2.693   4.479   1.228  0.8769 -0.1265  0.1835
  181MOL    C8347243   2.674   4.426   1.363 -0.5907 -0.1416  0.2265
  181MOL    C8447244   2.572   4.308   1.354 -0.8061  0.5482  0.2498
  181MOL    H8547245   2.899   4.472   1.124 -0.6833 -0.1559  0.6590
  181MOL    H8647246   2.869   4.617   1.042  0.3118  3.4407  0.9882
  181MOL    H8747247   2.796   4.620   1.332 -0.4744 -0.1293  0.2677
  181MOL    H8847248   2.624   4.506   1.418 -0.8980  1.3070 -2.1329
  181MOL    H8947249   2.774   4.396   1.395  0.6194  1.2002 -2.2090
  181MOL    H9047250   2.568   4.264   1.454  1.0053  2.0577  1.0156
  181MOL    H9147251   2.477   4.334   1.307 -1.4133 -1.6744  0.1759
  181MOL    H9247252   2.604   4.219   1.299  0.0279  1.0168 -0.0303
  181MOL    C9347253   2.678   4.696   1.160  0.0918 -0.1622  0.2350
  181MOL    C9447254   2.549   4.728   1.230  0.1793 -0.1652  0.8213
  181MOL    O9547255   2.470   4.818   1.154 -0.1920  0.1169  0.0535
  181MOL    C9647256   2.413   4.777   1.035 -0.0091  0.7499 -0.6181
  181MOL    C9747257   2.297   4.855   0.977 -0.8340 -0.6773  0.7839
  181MOL    H9847258   2.663   4.663   1.057 -0.0258 -2.7505  1.0520
  181MOL    H9947259   2.747   4.779   1.144  0.4258 -1.0246 -3.1969
  181MOL   H10047260   2.498   4.632   1.241 -2.2257  0.9553 -0.4167
  181MOL   H10147261   2.376   4.674   1.031 -1.6243  1.3639 -2.1582
  181MOL   H10247262   2.500   4.789   0.970  1.7246 -2.2812  1.0098
  181MOL   H10347263   2.261   4.818   0.881 -1.9891 -0.6649  1.2006
  181MOL   H10447264   2.214   4.840   1.046 -3.3201  1.0614 -1.7047
  181MOL   H10547265   2.321   4.961   0.969 -1.3332 -0.5543  0.9225
  181MOL   C10647266   2.559   4.788   1.367 -0.0499  0.0771  0.2615
  181MOL   C10747267   2.424   4.802   1.446  0.4528  0.2824  0.1373
  181MOL   O10847268   2.423   4.890   1.554  0.2008  0.7358 -0.5506
  181MOL   C10947269   2.387   5.028   1.532  0.6828  0.2362 -0.4473
  181MOL   C11047270   2.496   5.108   1.462 -0.1453 -0.6387 -0.3750
  181MOL   H11147271   2.603   4.887   1.360  1.2268 -0.3875  1.4898
  181MOL   H11247272   2.630   4.753   1.441 -1.5521 -0.7434  1.3568
  181MOL   H11347273   2.348   4.837   1.376 -0.7075  1.0523  1.7397
  181MOL   H11447274   2.361   5.075   1.627  1.7726  1.9100 -0.9721
  181MOL   H11547275   2.295   5.023   1.474  0.4295  0.3191 -0.0554
  181MOL   H11647276   2.596   5.066   1.470 -0.0816 -0.4285 -0.0819
  181MOL   H11747277   2.475   5.121   1.355  1.3799 -0.3359 -0.6496
  181MOL   H11847278   2.490   5.208   1.505 -1.3300  0.1016 -2.1746
  181MOL   C11947279   2.391   4.658   1.502 -0.6932 -0.2750 -0.6179
  181MOL   C12047280   2.265   4.644   1.600 -0.6857 -0.3490  0.4675
  181MOL   O12147281   2.258   4.506   1.623  0.1140 -0.0531  1.0670
  181MOL   C12247282   2.316   4.458   1.744 -0.7065  0.2543 -0.5087
  181MOL   C12347283   2.468   4.463   1.757 -0.3989  0.6664  0.6189
  181MOL   H12447284   2.480   4.632   1.561 -1.7037  0.6002  1.3575
  181MOL   H12547285   2.381   4.581   1.426 -2.6966 -1.3932  0.7203
  181MOL   H12647286   2.278   4.711   1.686 -0.6021 -0.1561  0.3053
  181MOL   H12747287   2.302   4.350   1.741  2.1114 -0.1908  0.6859
  181MOL   H12847288   2.273   4.503   1.834  0.4500  3.2899 -1.3877
  181MOL   H12947289   2.494   4.390   1.834  1.7525  1.5847  0.7844
  181MOL   H13047290   2.519   4.428   1.668  0.6787  2.1499  0.6415
  181MOL   H13147291   2.495   4.564   1.787  2.3702  0.6025 -1.4755
  181MOL   C13247292   2.124   4.666   1.534  0.2762 -0.1184  0.1565
  181MOL   C13347293   1.996   4.696   1.625  0.3404  0.0763 -0.3033
  181MOL   O13447294   1.881   4.668   1.543 -0.3764  0.0649 -0.1995
  181MOL   C13547295   1.838   4.530   1.552 -0.5025 -0.9623 -0.2124
  181MOL   C13647296   1.712   4.517   1.470 -0.2410 -0.0166 -0.4701
  181MOL   H13747297   2.114   4.592   1.455  0.8090  0.1139 -0.1247
  181MOL   H13847298   2.143   4.754   1.473  0.9971 -0.0518  0.4807
  181MOL   H13947299   2.000   4.627   1.709 -0.3134 -0.0480 -0.3717
  181MOL   H14047300   1.799   4.519   1.653  0.4362  0.2123  0.2999
  181MOL   H14147301   1.918   4.457   1.539  0.7398  0.1253  1.1436
  181MOL   H14247302   1.638   4.589   1.506  0.0776 -0.4475  1.0835
  181MOL   H14347303   1.731   4.542   1.366 -0.0187  0.2121 -0.3760
  181MOL   H14447304   1.663   4.420   1.472  2.6784 -1.5735 -0.9605
  181MOL   C14547305   1.994   4.843   1.660 -0.3566  0.2101  0.2361
  181MOL   C14647306   1.879   4.893   1.756  0.4014  0.6131  0.3499
  181MOL   O14747307   1.863   5.034   1.733 -0.0764 -0.4991  0.4002
  181MOL   C14847308   1.760   5.053   1.639  0.5378 -0.1357  0.1884
  181MOL   C14947309   1.753   5.207   1.613  0.0456 -0.1653 -0.6467
  181MOL   H15047310   1.993   4.897   1.565  1.7192 -0.6226 -0.2847
  181MOL   H15147311   2.087   4.869   1.710 -0.1369 -1.1343  0.5273
  181MOL   H15247312   1.800   4.825   1.727  1.9635 -0.9999 -0.2231
  181MOL   H15347313   1.657   5.025   1.660 -0.0542  0.5445 -1.6944
  181MOL   H15447314   1.792   5.006   1.546  0.2245  1.9579 -1.0110
  181MOL   H15547315   1.851   5.249   1.588 -0.3568  1.9028  1.1014
  181MOL   H15647316   1.678   5.229   1.536 -2.5815  0.9644  2.1403
  181MOL   H15747317   1.731   5.249   1.711  1.4836  1.5729 -1.0312
  181MOL   C15847318   1.927   4.882   1.903 -0.1696  0.6672  0.3058
  181MOL   C15947319   1.838   4.958   1.998  0.4727  0.7723  0.9077
  181MOL   O16047320   1.875   4.920   2.125 -0.6092 -0.0397 -0.0122
  181MOL   C16147321   1.953   5.016   2.193 -0.4072  0.3057  0.9746
  181MOL   C16247322   1.963   4.979   2.340 -0.4524  0.9288  0.5072
  181MOL   H16347323   2.029   4.909   1.927 -0.0972 -0.3875  1.2346
  181MOL   H16447324   1.915   4.776   1.924 -1.8312  0.6865 -0.4409
  181MOL   H16547325   1.858   5.064   1.985 -0.1250  0.8616  0.6759
  181MOL   H16647326   1.924   5.121   2.187 -1.3394  0.0462  0.8491
  181MOL   H16747327   2.048   5.021   2.140 -0.5316  0.6336  0.7787
  181MOL   H16847328   2.017   5.053   2.399  0.1314  1.7855 -1.0725
  181MOL   H16947329   1.862   4.984   2.382 -0.8811  2.0241 -0.6169
  181MOL   H17047330   1.994   4.875   2.345 -0.1261  0.8863 -2.1241
  181MOL   C17147331   1.681   4.937   1.993  0.2477 -0.6454 -0.4689
  181MOL   C17247332   1.597   5.009   2.101 -0.1864  0.4773  0.3896
  181MOL   O17347333   1.463   4.966   2.093 -0.0227  0.5811 -0.7324
  181MOL   C17447334   1.418   4.878   2.200 -0.5195 -0.3384 -0.2452
  181MOL   C17547335   1.472   4.735   2.168 -0.0029 -0.3210 -0.0803
  181MOL   H17647336   1.663   4.829   1.999 -0.7377 -0.6427 -2.8132
  181MOL   H17747337   1.652   4.976   1.895 -0.1475 -0.8266 -0.4238
  181MOL   H17847338   1.645   4.985   2.196  2.4697 -2.0580 -1.5231
  181MOL   H17947339   1.310   4.882   2.198 -0.5450 -0.2937  0.7574
  181MOL   H18047340   1.454   4.921   2.294  1.4242 -1.7530 -0.3032
  181MOL   H18147341   1.435   4.714   2.068  1.1099  0.5316 -0.6826
  181MOL   H18247342   1.581   4.743   2.174 -0.0614  0.1454  0.4079
  181MOL   H18347343   1.438   4.652   2.229  0.2490 -0.0905  0.3796
  181MOL   C18447344   1.588   5.163   2.084  0.3125  0.4162  0.2984
  181MOL   C18547345   1.526   5.230   2.205  0.6207  0.2713 -0.5519
  181MOL   O18647346   1.520   5.377   2.178  0.2391  0.3910 -0.1073
  181MOL   C18747347   1.426   5.428   2.089 -0.1767 -0.3839  0.0198
  181MOL   C18847348   1.433   5.586   2.101  0.5380 -0.6341  0.1064
  181MOL   H18947349   1.542   5.183   1.988  1.8332  2.6242  0.0004
  181MOL   H19047350   1.692   5.192   2.068  0.2473  0.8129  0.5932
  181MOL   H19147351   1.423   5.203   2.226  0.3087  0.0818 -2.2638
  181MOL   H19247352   1.328   5.387   2.115 -0.1519  0.6297  1.8179
  181MOL   H19347353   1.450   5.396   1.988  0.5163  0.2107 -0.0104
  181MOL   H19447354   1.376   5.637   2.023  0.5447 -1.7135 -0.6114
  181MOL   H19547355   1.407   5.637   2.193 -1.5410 -0.6379 -0.4497
  181MOL   H19647356   1.537   5.617   2.083  0.0057  1.0945 -0.1257
  181MOL   C19747357   1.611   5.206   2.342 -0.1181  0.5305 -0.0628
  181MOL   C19847358   1.585   5.304   2.451 -0.1847 -0.3639 -0.6838
  181MOL   O19947359   1.683   5.273   2.545 -0.2997  0.3067 -0.2029
  181MOL   C20047360   1.789   5.366   2.571  0.0634 -0.1890 -0.0295
  181MOL   C20147361   1.888   5.301   2.669  0.0697  0.2917 -0.2096
  181MOL   H20247362   1.718   5.216   2.325  0.1838  0.1488  1.5762
  181MOL   H20347363   1.587   5.105   2.376  0.2257 -1.5691 -5.4978
  181MOL   H20447364   1.605   5.405   2.414  0.2861 -1.4230 -3.4647
  181MOL   H20547365   1.739   5.454   2.610 -0.9193 -1.1364  0.8767
  181MOL   H20647366   1.824   5.389   2.470  1.9043  1.9314  1.0594
  181MOL   H20747367   1.846   5.282   2.768 -1.4491  2.4404 -0.4200
  181MOL   H20847368   1.917   5.202   2.632 -3.2395 -0.8132  0.0021
  181MOL   H20947369   1.977   5.358   2.696 -0.3790 -0.5254  3.3437
  181MOL   C21047370   1.456   5.270   2.519  0.2961  0.4133 -0.1683
  181MOL   C21147371   1.404   5.373   2.621  0.1602  0.1156 -0.0964
  181MOL   O21247372   1.356   5.297   2.726 -0.3015  0.1697  0.0964
  181MOL   C21347373   1.451   5.259   2.838  0.6546  0.8966  0.2612
  181MOL   C21447374   1.376   5.192   2.959 -0.6437 -0.1102  0.1483
  181MOL   H21547375   1.456   5.169   2.559  1.1191  0.9690  1.2601
  181MOL   H21647376   1.376   5.259   2.445  1.5299  4.2003 -2.2307
  181MOL   H21747377   1.485   5.439   2.652  1.2346 -0.9678 -0.5477
  181MOL   H21847378   1.512   5.348   2.854  2.3392 -0.2853  0.5208
  181MOL   H21947379   1.507   5.171   2.808 -0.2631 -0.1210  1.4903
  181MOL   H22047380   1.287   5.249   2.988 -0.7385 -0.1887  0.0111
  181MOL   H22147381   1.354   5.088   2.936  1.3947 -0.4847 -0.1247
  181MOL   H22247382   1.432   5.190   3.053  1.2485 -0.3035 -0.9808
  181MOL   C22347383   1.275   5.456   2.578 -0.4898  0.0708 -0.4389
  181MOL   C22447384   1.304   5.543   2.456 -0.1130 -0.1679  0.2957
  181MOL   O22547385   1.370   5.669   2.490  0.5521 -0.1888 -0.5063
  181MOL   C22647386   1.512   5.673   2.477  0.4213 -0.6387 -0.5238
  181MOL   C22747387   1.568   5.816   2.484  0.1682 -0.4065 -0.1305
  181MOL   H22847388   1.235   5.520   2.656 -1.3515  0.6027 -1.3008
  181MOL   H22947389   1.193   5.386   2.563 -0.0958 -0.8924  1.7748
  181MOL   H23047390   1.365   5.487   2.384  2.9059  2.6304  0.5656
  181MOL   H23147391   1.549   5.610   2.396  3.8543 -0.1379  0.5978
  181MOL   H23247392   1.554   5.627   2.567  0.0932 -2.5281 -1.3118
  181MOL   H23347393   1.672   5.824   2.516  0.4676 -0.5370 -1.0790
  181MOL   H23447394   1.563   5.869   2.390  2.4533 -2.4035 -1.4517
  181MOL   H23547395   1.508   5.868   2.558  1.9361  0.2859  0.8546
  181MOL   C23647396   1.172   5.590   2.391 -0.1084 -0.4914  0.8598
  181MOL   C23747397   1.062   5.494   2.348  0.4052  0.3236  0.8275
  181MOL   O23847398   1.129   5.375   2.290  0.4680 -0.1593 -0.7085
  181MOL   C23947399   1.050   5.258   2.265 -0.2360 -0.2598 -0.4312
  181MOL   C24047400   1.133   5.144   2.183  0.1282 -0.0972 -0.2961
  181MOL   H24147401   1.198   5.656   2.309 -2.7151  1.1237  1.2568
  181MOL   H24247402   1.134   5.657   2.469  0.4347  0.4774  0.3015
  181MOL   H24347403   1.008   5.468   2.438 -1.3268 -1.5074 -0.6818
  181MOL   H24447404   0.969   5.284   2.196  1.7837  0.1430 -2.7430
  181MOL   H24547405   1.013   5.220   2.360 -3.6472  1.9377 -0.8111
  181MOL   H24647406   1.057   5.079   2.140 -1.5407  1.6056 -0.0229
  181MOL   H24747407   1.182   5.192   2.098 -0.7406  1.7069  0.2025
  181MOL   H24847408   1.203   5.087   2.243 -1.2311 -1.0885  0.3607
  181MOL   C24947409   0.981   5.561   2.229  0.1935 -0.4111  0.4264
  181MOL   C25047410   0.884   5.672   2.280 -0.1811  0.0889  0.0475
  181MOL   O25147411   0.778   5.698   2.188 -0.2723 -0.0678 -0.0730
  181MOL   C25247412   0.829   5.767   2.073  0.1143 -0.0090  0.5850
  181MOL   C25347413   0.711   5.798   1.982  0.4116 -0.5204  0.1955
  181MOL   H25447414   0.928   5.485   2.172 -3.1953  0.0156  2.8413
  181MOL   H25547415   1.058   5.596   2.160 -0.6079 -1.3820 -0.9993
  181MOL   H25647416   0.813   5.645   2.358 -0.5731  0.0258 -0.3322
  181MOL   H25747417   0.902   5.709   2.017  0.7131  1.1124  0.1841
  181MOL   H25847418   0.883   5.857   2.101 -0.1560  0.7154 -1.1488
  181MOL   H25947419   0.632   5.859   2.025 -0.6624 -1.5995 -0.2187
  181MOL   H26047420   0.741   5.843   1.887  2.7506 -2.2906  0.0605
  181MOL   H26147421   0.667   5.705   1.944  1.6590 -0.9458 -0.2418
  181MOL   H26247422   0.926   5.767   2.311 -4.8700  2.7449 -1.2758
  182MOL     C147423   7.742   1.355   3.591  0.3531 -1.2610  0.4675
  182MOL     C247424   7.788   1.499   3.630 -0.1127 -0.3641  0.3866
  182MOL     O347425   0.052   1.489   3.720 -0.4298  0.2431 -0.1223
  182MOL     C447426   0.135   1.603   3.726 -0.2706  0.5718 -0.4306
  182MOL     C547427   0.257   1.583   3.821 -0.3142  0.4011 -0.8406
  182MOL     H647428   7.721   1.290   3.676 -1.3224  0.6347  1.5572
  182MOL     H747429   7.653   1.353   3.530  0.0266  0.6745  0.8433
  182MOL     H847430   7.825   1.549   3.541 -0.7638  1.7826  1.2872
  182MOL     H947431   0.079   1.690   3.758  0.0794 -0.2377  2.4584
  182MOL    H1047432   0.164   1.628   3.623 -3.1783  0.1605 -1.3823
  182MOL    H1147433   0.321   1.500   3.791 -0.7675  0.5051 -2.1035
  182MOL    H1247434   0.315   1.675   3.820  0.2096  0.1015  0.7590
  182MOL    H1347435   0.226   1.565   3.924  0.0419 -2.1086 -1.1430
  182MOL    H1447436   7.827   1.307   3.542  0.9613 -0.4092  0.6800
  182MOL    C1547437   7.672   1.583   3.688 -0.0225  0.4457  0.1893
  182MOL    C1647438   7.634   1.551   3.831  0.2587 -0.1059 -0.0174
  182MOL    O1747439   7.544   1.436   3.832  0.0884 -0.0429  0.5002
  182MOL    C1847440   7.581   1.327   3.923 -0.4386 -0.7680 -0.2856
  182MOL    C1947441   7.501   1.207   3.885  0.6769 -0.6302 -0.2759
  182MOL    H2047442   7.586   1.572   3.621  0.2720 -0.6479 -0.0118
  182MOL    H2147443   7.710   1.683   3.668  1.7368 -0.4680 -1.2173
  182MOL    H2247444   7.722   1.539   3.894  1.3467 -0.0992 -1.5142
  182MOL    H2347445   7.571   1.345   4.030 -1.4711 -0.5360 -0.4139
  182MOL    H2447446   7.684   1.301   3.902 -0.3839 -0.0292 -0.9885
  182MOL    H2547447   7.396   1.197   3.915  0.5162 -0.7886 -0.8968
  182MOL    H2647448   7.549   1.119   3.926  0.0468 -0.8026  0.1031
  182MOL    H2747449   7.507   1.176   3.781 -0.5175  0.5411 -0.7114
  182MOL    C2847450   7.549   1.669   3.878 -0.2494 -0.0814  0.1618
  182MOL    C2947451   7.608   1.802   3.932 -0.1399  0.6026 -0.3794
  182MOL    O3047452   7.672   1.874   3.825  0.1214 -0.0323  0.7465
  182MOL    C3147453   7.674   2.014   3.834 -0.4892  0.2917  0.5948
  182MOL    C3247454   7.777   2.052   3.724  0.1653  0.3483  0.4909
  182MOL    H3347455   7.487   1.620   3.953  0.3673 -1.7607 -0.3973
  182MOL    H3447456   7.488   1.705   3.795  1.1245 -0.2822 -0.9521
  182MOL    H3547457   7.529   1.868   3.968 -1.4039 -1.2619  0.3679
  182MOL    H3647458   7.719   2.045   3.928  0.0309  0.1889  0.3835
  182MOL    H3747459   7.575   2.053   3.811 -0.3343  1.2881  1.6336
  182MOL    H3847460   7.734   2.025   3.628 -0.4848 -0.0709  0.8875
  182MOL    H3947461   7.798   2.159   3.728  1.3148  0.1177  0.6792
  182MOL    H4047462   0.036   2.021   3.742  0.6489  1.8016  0.2767
  182MOL    C4147463   7.707   1.786   4.060  0.5535 -0.1809  0.1200
  182MOL    C4247464   7.653   1.713   4.182  0.4778 -0.3010 -0.3474
  182MOL    O4347465   7.525   1.773   4.214  0.3413  0.4458 -0.6204
  182MOL    C4447466   7.427   1.705   4.286 -0.6766  0.6983 -0.0387
  182MOL    C4547467   7.289   1.763   4.262  0.5235 -0.3117  0.0452
  182MOL    H4647468   7.749   1.882   4.089 -0.9734  0.5359 -0.0149
  182MOL    H4747469   7.789   1.725   4.020  0.8365  0.5701 -0.4716
  182MOL    H4847470   7.634   1.606   4.169 -2.8135  0.3429 -1.3901
  182MOL    H4947471   7.457   1.720   4.390  3.0028  0.7098 -1.0229
  182MOL    H5047472   7.421   1.599   4.260 -0.9039  0.9451 -0.9957
  182MOL    H5147473   7.282   1.863   4.306  1.7687  0.3742 -1.2617
  182MOL    H5247474   7.263   1.775   4.157  0.5786 -2.3999 -0.2347
  182MOL    H5347475   7.218   1.688   4.298 -0.2624  0.1135 -0.5965
  182MOL    C5447476   7.737   1.723   4.317  0.2805 -0.4681  0.3704
  182MOL    C5547477   0.020   1.635   4.334  0.5443 -0.5131  0.1986
  182MOL    O5647478   0.111   1.670   4.228  0.2943  0.0782 -0.4740
  182MOL    C5747479   0.183   1.785   4.248 -0.1997  0.4600  0.9443
  182MOL    C5847480   0.284   1.784   4.137 -0.4266  0.3370  0.9599
  182MOL    H5947481   7.670   1.694   4.397 -0.8993  1.4941  0.0947
  182MOL    H6047482   7.768   1.826   4.335  0.5169 -0.4083 -0.3473
  182MOL    H6147483   0.062   1.649   4.434 -1.8261  0.0041  1.1546
  182MOL    H6247484   0.228   1.777   4.347 -0.0474  1.3465  0.9464
  182MOL    H6347485   0.126   1.878   4.255 -0.4720  0.3629  0.0080
  182MOL    H6447486   0.337   1.690   4.126 -0.9523  0.3907 -2.9006
  182MOL    H6547487   0.240   1.813   4.042  2.0423  0.9364 -0.0326
  182MOL    H6647488   0.355   1.864   4.155 -1.2624  1.4035 -0.3802
  182MOL    C6747489   7.822   1.483   4.319  0.0187 -0.3179 -0.0994
  182MOL    C6847490   0.090   1.381   4.318 -0.4480 -0.0674  0.3127
  182MOL    O6947491   0.027   1.252   4.294  0.5827 -0.0229 -0.0261
  182MOL    C7047492   0.041   1.207   4.159 -0.6011 -0.0605 -0.0333
  182MOL    C7147493   7.804   1.074   4.146 -0.0802 -0.4913 -0.5583
  182MOL    H7247494   7.770   1.470   4.224  0.1928  0.0780 -0.2483
  182MOL    H7347495   7.748   1.459   4.395 -0.9345  0.4698 -0.7673
  182MOL    H7447496   0.164   1.400   4.240 -1.5588 -0.0191 -0.7327
  182MOL    H7547497   0.144   1.177   4.141 -0.6119 -1.2320  1.7173
  182MOL    H7647498   0.018   1.278   4.080  0.7885  1.3206  0.7630
  182MOL    H7747499   7.775   1.051   4.044  0.3552  0.1719 -0.8354
  182MOL    H7847500   0.005   0.983   4.186  0.3235 -0.0434  0.0272
  182MOL    H7947501   7.707   1.091   4.193  0.8167  2.4902  0.3525
  182MOL    C8047502   0.159   1.360   4.464 -0.3843 -0.8474 -0.2959
  182MOL    C8147503   0.289   1.278   4.463  0.0583 -0.4895 -0.7917
  182MOL    O8247504   0.322   1.273   4.598 -0.1988  0.0082 -0.0321
  182MOL    C8347505   0.289   1.159   4.670 -0.3664  0.5185  0.2425
  182MOL    C8447506   0.271   1.205   4.815  0.4779  0.0444  0.1919
  182MOL    H8547507   0.080   1.343   4.538 -0.6625 -2.2163 -0.8913
  182MOL    H8647508   0.201   1.459   4.483 -0.7413 -0.4370 -1.6071
  182MOL    H8747509   0.272   1.174   4.437 -0.5688 -0.5620 -0.1167
  182MOL    H8847510   0.365   1.084   4.650 -1.5482 -1.1384  1.7276
  182MOL    H8947511   0.196   1.112   4.638  0.1557  0.7756 -1.7147
  182MOL    H9047512   0.193   1.279   4.835  0.1148  0.0394 -1.1288
  182MOL    H9147513   0.227   1.124   4.872  0.8896 -1.1227 -1.1144
  182MOL    H9247514   0.367   1.238   4.854  1.0159 -1.6959  0.3744
  182MOL    C9347515   0.399   1.345   4.379  0.1494 -0.3855 -0.5771
  182MOL    C9447516   0.535   1.270   4.379 -0.6121  0.2096 -0.2435
  182MOL    O9547517   0.634   1.356   4.319  0.2241  0.1920 -0.1476
  182MOL    C9647518   0.766   1.329   4.346  0.0377 -0.2106  0.2101
  182MOL    C9747519   0.849   1.436   4.277 -0.4948 -0.6299  0.3686
  182MOL    H9847520   0.419   1.447   4.411  0.6967 -0.8129  0.4557
  182MOL    H9947521   0.360   1.346   4.277  0.1359 -2.3890 -0.6263
  182MOL   H10047522   0.560   1.258   4.485 -0.0586 -1.2711 -0.5359
  182MOL   H10147523   0.795   1.230   4.310 -0.2560 -0.1333 -0.2328
  182MOL   H10247524   0.781   1.347   4.453  2.4522  2.9979 -0.5601
  182MOL   H10347525   0.802   1.532   4.297  1.9320  0.1812  2.4561
  182MOL   H10447526   0.948   1.448   4.321 -0.7633  1.2180  0.5107
  182MOL   H10547527   0.870   1.429   4.170  2.0256 -0.6038  0.8296
  182MOL   C10647528   0.535   1.133   4.301  0.4508 -0.1413 -0.0928
  182MOL   C10747529   0.547   1.008   4.390  0.1626 -0.7205  0.4609
  182MOL   O10847530   0.660   1.025   4.473  1.2149  0.3020  0.1878
  182MOL   C10947531   0.653   0.955   4.597 -0.5756 -0.3910  0.1416
  182MOL   C11047532   0.795   0.967   4.655 -0.8523  0.3653 -0.3286
  182MOL   H11147533   0.626   1.143   4.242  0.7018 -0.4755  0.2335
  182MOL   H11247534   0.454   1.131   4.228  0.1326 -2.7117  0.2910
  182MOL   H11347535   0.456   0.995   4.449  0.2976 -2.8499  0.2714
  182MOL   H11447536   0.612   0.855   4.588 -0.3679 -0.3004 -2.1474
  182MOL   H11547537   0.578   1.012   4.651 -1.6839 -1.8130  0.1371
  182MOL   H11647538   0.867   0.935   4.579 -0.8688  0.6962 -0.4843
  182MOL   H11747539   0.825   1.071   4.672 -1.5586  0.1106  2.6732
  182MOL   H11847540   0.807   0.914   4.749 -1.5795  1.3453  0.3283
  182MOL   C11947541   0.585   0.885   4.309 -0.8195  0.4231 -0.1235
  182MOL   C12047542   0.470   0.826   4.215  0.0627  0.7335  0.6063
  182MOL   O12147543   0.364   0.809   4.305  0.5984 -0.3271 -0.4267
  182MOL   C12247544   0.235   0.814   4.254  0.7487  0.9051  0.5126
  182MOL   C12347545   0.149   0.711   4.324  0.0802 -0.0376 -1.0215
  182MOL   H12447546   0.608   0.809   4.384 -2.0187  0.9388  0.7960
  182MOL   H12547547   0.678   0.901   4.255 -0.6503 -0.0766  0.0200
  182MOL   H12647548   0.438   0.900   4.141  0.4808 -1.2004 -1.6010
  182MOL   H12747549   0.234   0.801   4.146  2.6357 -0.8293  0.6673
  182MOL   H12847550   0.182   0.909   4.266 -1.3504  0.0117 -1.3673
  182MOL   H12947551   0.076   0.679   4.249 -0.8265 -0.6268  0.0977
  182MOL   H13047552   0.215   0.634   4.361  0.7932  1.2407  0.3862
  182MOL   H13147553   0.095   0.758   4.406  0.8815  1.9972 -1.6287
  182MOL   C13247554   0.509   0.684   4.140  0.0331 -0.8001 -0.0387
  182MOL   C13347555   0.626   0.684   4.039 -0.2015 -0.0459 -0.4693
  182MOL   O13447556   0.601   0.783   3.939  0.8940  0.6139  0.1974
  182MOL   C13547557   0.685   0.898   3.941  0.0435  0.6743  0.9633
  182MOL   C13647558   0.620   0.999   3.844  0.3842 -0.1322  0.4974
  182MOL   H13747559   0.416   0.646   4.099 -0.2200 -0.7882  0.5176
  182MOL   H13847560   0.537   0.626   4.228  0.0915  0.4144  0.7597
  182MOL   H13947561   0.718   0.714   4.089 -0.9120  1.4651 -0.0383
  182MOL   H14047562   0.784   0.863   3.911 -1.3247 -1.8361 -0.7401
  182MOL   H14147563   0.682   0.952   4.036 -2.1471 -0.8669  1.8198
  182MOL   H14247564   0.658   1.097   3.873  0.7900 -0.0349 -0.3399
  182MOL   H14347565   0.639   0.970   3.740 -0.8992  0.9734 -0.0528
  182MOL   H14447566   0.512   0.989   3.856  0.2628  0.0372 -0.3865
  182MOL   C14547567   0.664   0.552   3.976  0.4425  0.2430  0.3236
  182MOL   C14647568   0.702   0.435   4.072  0.5243  0.0897  0.3213
  182MOL   O14747569   0.843   0.460   4.105 -0.5928 -0.2648  0.3637
  182MOL   C14847570   0.855   0.474   4.245  0.3445 -0.5963  0.1410
  182MOL   C14947571   0.988   0.538   4.272 -0.2284 -0.3652 -0.3552
  182MOL   H15047572   0.755   0.568   3.918  0.8919 -0.1903  0.8940
  182MOL   H15147573   0.584   0.516   3.912  1.4550 -2.5195  0.5680
  182MOL   H15247574   0.633   0.434   4.157  0.5350 -0.8989  0.3331
  182MOL   H15347575   0.842   0.382   4.302 -1.6661  0.7645  1.9608
  182MOL   H15447576   0.779   0.545   4.277  0.9315 -0.3541  1.0068
  182MOL   H15547577   1.072   0.484   4.229 -0.0175 -0.9811  0.7978
  182MOL   H15647578   0.987   0.636   4.225  1.3883 -0.3423 -0.3639
  182MOL   H15747579   1.004   0.549   4.379 -0.4962  0.5058 -0.4068
  182MOL   C15847580   0.698   0.280   4.019  0.2357 -0.2289  0.7570
  182MOL   C15947581   0.565   0.226   3.975  0.5735  0.5079 -0.3623
  182MOL   O16047582   0.466   0.264   4.066 -0.0110 -0.4964  0.0652
  182MOL   C16147583   0.331   0.282   4.014  0.0473 -0.2914 -0.3777
  182MOL   C16247584   0.242   0.326   4.132 -0.4794 -0.3401  0.3204
  182MOL   H16347585   0.749   0.208   4.083  3.4116  0.8942 -0.4181
  182MOL   H16447586   0.768   0.283   3.936 -0.0602  0.9377  0.5362
  182MOL   H16547587   0.538   0.283   3.886 -0.2887 -1.6715 -1.5331
  182MOL   H16647588   0.301   0.191   3.962 -1.3783  0.9142 -1.7232
  182MOL   H16747589   0.335   0.352   3.931  3.0874 -0.4184 -0.4012
  182MOL   H16847590   0.223   0.240   4.197  1.8829 -0.7840  0.4562
  182MOL   H16947591   0.293   0.406   4.186  3.6161  0.0261 -3.7922
  182MOL   H17047592   0.145   0.353   4.089  0.9414  3.6801 -0.5683
  182MOL   C17147593   0.558   0.076   3.952 -0.3580 -0.0449 -0.4218
  182MOL   C17247594   0.559   7.817   4.071 -0.0991 -0.1202 -0.1472
  182MOL   O17347595   0.694   7.822   4.131  0.5466  0.1964 -0.3907
  182MOL   C17447596   0.687   7.807   4.272 -0.2537 -0.8095 -0.3128
  182MOL   C17547597   0.741   0.082   4.353 -0.1311 -0.9845  0.8230
  182MOL   H17647598   0.646   0.041   3.896  0.4838 -0.9651  1.4463
  182MOL   H17747599   0.476   0.053   3.883  0.1353 -0.8268 -0.7531
  182MOL   H17847600   0.490   7.841   4.151 -0.4067 -0.3274 -0.3476
  182MOL   H17947601   0.759   7.727   4.292 -0.0786 -0.7457 -0.6895
  182MOL   H18047602   0.591   7.771   4.307 -1.7304  0.1106 -3.3048
  182MOL   H18147603   0.839   0.125   4.332 -0.9602  0.6492  0.2033
  182MOL   H18247604   0.668   0.160   4.331  1.8653  0.6889 -0.1687
  182MOL   H18347605   0.730   0.064   4.459 -3.6862  2.1199  1.0745
  182MOL   C18447606   0.533   7.670   4.030  0.3232  0.1919  1.1174
  182MOL   C18547607   0.423   7.636   3.934 -0.4506  0.0377  0.3914
  182MOL   O18647608   0.306   7.710   3.971  0.2114  0.2814  0.4680
  182MOL   C18747609   0.196   7.717   3.879 -0.0681  0.6147  0.0758
  182MOL   C18847610   0.075   7.756   3.964 -0.2507 -0.0563  0.2689
  182MOL   H18947611   0.516   7.615   4.123 -0.5742 -1.6118 -0.0815
  182MOL   H19047612   0.629   7.644   3.986 -0.5657  1.0655 -1.4561
  182MOL   H19147613   0.464   7.666   3.837 -0.4112  2.2882  1.0717
  182MOL   H19247614   0.167   7.617   3.844  1.0551 -0.9515  3.3831
  182MOL   H19347615   0.216   7.790   3.801  0.9176 -2.2627 -2.4558
  182MOL   H19447616   7.831   7.737   3.901 -1.2791 -1.3001  1.9964
  182MOL   H19547617   0.064   7.686   4.047 -0.0203 -0.9889 -0.4819
  182MOL   H19647618   0.088   0.016   3.994 -1.0650  0.4156 -0.9686
  182MOL   C19747619   0.406   7.479   3.921 -0.2956 -0.0729  0.5161
  182MOL   C19847620   0.537   7.389   3.918 -0.2059  0.5642  0.5024
  182MOL   O19947621   0.595   7.426   3.787 -0.0804 -1.2335  0.2932
  182MOL   C20047622   0.724   7.375   3.764  0.3541  0.1718 -0.4953
  182MOL   C20147623   0.800   7.471   3.672  0.8186  1.0924 -0.1449
  182MOL   H20247624   0.325   7.459   3.851 -0.5448 -1.2959  1.1294
  182MOL   H20347625   0.365   7.451   4.018  0.1798  4.4959  2.1491
  182MOL   H20447626   0.604   7.414   4.000  2.4242 -0.3589 -1.2938
  182MOL   H20547627   0.717   7.276   3.718  2.1716 -0.2619  0.1452
  182MOL   H20647628   0.775   7.371   3.860 -0.8628  0.7989  0.1836
  182MOL   H20747629   0.898   7.431   3.647  0.0629 -0.8545 -0.0714
  182MOL   H20847630   0.749   7.484   3.576  0.8658  1.2830 -0.1446
  182MOL   H20947631   0.828   7.569   3.709  0.1609  1.1324  0.2708
  182MOL   C21047632   0.508   7.239   3.912 -0.0696 -0.2535 -0.2010
  182MOL   C21147633   0.409   7.172   4.010 -0.1511  0.5529  0.5340
  182MOL   O21247634   0.455   7.218   4.133 -0.1361  0.0943  0.0674
  182MOL   C21347635   0.365   7.211   4.242 -0.3807 -0.1809  0.3188
  182MOL   C21447636   0.444   7.231   4.374 -0.1543 -0.2805 -0.2572
  182MOL   H21547637   0.605   7.189   3.909  0.8511  1.5604 -1.2738
  182MOL   H21647638   0.459   7.222   3.816 -3.1380  2.5082  0.7442
  182MOL   H21747639   0.314   7.222   3.995  0.0937  0.4021 -1.6313
  182MOL   H21847640   0.328   7.110   4.257 -0.3946 -0.4204 -1.2109
  182MOL   H21947641   0.278   7.277   4.242  0.6632  1.2307  0.0694
  182MOL   H22047642   0.390   7.205   4.465  1.2297  0.1824  0.7182
  182MOL   H22147643   0.522   7.155   4.368  1.8325  1.7901 -1.2694
  182MOL   H22247644   0.495   7.327   4.379  0.7365 -0.7926  0.5394
  182MOL   C22347645   0.401   7.017   3.994 -0.1907  0.2960 -0.1159
  182MOL   C22447646   0.327   6.962   3.868  0.3107 -0.4174 -0.1480
  182MOL   O22547647   0.203   7.023   3.853  0.5128 -0.7352  0.6868
  182MOL   C22647648   0.108   6.995   3.951 -0.2895 -0.5715  0.6889
  182MOL   C22747649   7.823   7.071   3.920 -0.7972  0.5399  0.1891
  182MOL   H22847650   0.353   6.973   4.081 -0.1103 -1.2090 -0.8177
  182MOL   H22947651   0.502   6.980   4.009 -0.2395  0.8198  1.6002
  182MOL   H23047652   0.368   6.993   3.772  0.0471  1.9807  0.4877
  182MOL   H23147653   0.142   7.031   4.049  1.2596 -0.3034  0.0670
  182MOL   H23247654   0.088   6.888   3.958  0.9861 -1.0193 -2.0619
  182MOL   H23347655   7.757   7.066   4.006  0.0105 -1.1094  0.7426
  182MOL   H23447656   0.010   7.176   3.914  1.6415 -0.1704 -0.4820
  182MOL   H23547657   7.776   7.051   3.824  0.9728  1.7575 -0.9710
  182MOL   C23647658   0.321   6.811   3.858  0.2304  0.5798  0.0344
  182MOL   C23747659   0.257   6.772   3.721  0.4047 -0.1714 -0.4678
  182MOL   O23847660   0.194   6.647   3.731  0.6481  0.3218 -0.3054
  182MOL   C23947661   0.064   6.635   3.673 -0.8757  0.0296  0.4229
  182MOL   C24047662   7.807   6.727   3.740  0.3987  0.1491 -0.0914
  182MOL   H24147663   0.258   6.789   3.944 -1.3021  3.4948 -0.2710
  182MOL   H24247664   0.415   6.761   3.881 -0.9633 -2.1464 -0.7711
  182MOL   H24347665   0.189   6.853   3.695 -1.0035 -0.9997  0.5820
  182MOL   H24447666   0.039   6.530   3.687 -0.2490 -0.1159  0.4578
  182MOL   H24547667   0.060   6.645   3.564 -1.4040  0.5002  0.4840
  182MOL   H24647668   7.712   6.701   3.692  0.5239 -1.7957  0.6544
  182MOL   H24747669   7.803   6.718   3.849  0.4612 -2.7185 -0.2885
  182MOL   H24847670   7.812   6.830   3.705  3.9250  1.0639  2.8851
  182MOL   C24947671   0.367   6.765   3.609  0.6456  0.5706 -0.3080
  182MOL   C25047672   0.321   6.764   3.461  0.7559 -0.3336 -0.8149
  182MOL   O25147673   0.230   6.870   3.436 -0.2921  0.2853  0.1113
  182MOL   C25247674   0.192   6.890   3.300  0.5522 -0.4981  0.0477
  182MOL   C25347675   0.072   6.990   3.308  0.3198 -0.0755 -0.7731
  182MOL   H25447676   0.416   6.669   3.623 -0.6008 -0.1089 -0.5723
  182MOL   H25547677   0.447   6.838   3.620  1.9836 -1.3242  3.7418
  182MOL   H25647678   0.407   6.784   3.397 -0.5171 -2.7605 -3.3810
  182MOL   H25747679   0.158   6.797   3.256 -2.4983  0.6803 -0.1656
  182MOL   H25847680   0.281   6.930   3.252  0.1915  1.9184  1.2984
  182MOL   H25947681   0.102   7.090   3.339  0.7344  0.0421 -1.5349
  182MOL   H26047682   0.020   7.004   3.214 -0.3355  1.3467 -0.2196
  182MOL   H26147683   0.006   6.935   3.375 -0.2793  2.4077  0.7437
  182MOL   H26247684   0.285   6.667   3.427  0.8696 -1.5582  2.3610
  183MOL     C147685   0.837   1.060   0.558 -0.3779  0.2810  0.8397
  183MOL     C247686   0.714   0.965   0.560  0.0081 -0.2619 -0.0734
  183MOL     O347687   0.769   0.833   0.527 -0.3946 -0.3098  0.4473
  183MOL     C447688   0.832   0.767   0.635  0.2431  0.0788 -0.1210
  183MOL     C547689   0.778   0.627   0.642  0.4244 -0.4355  0.2968
  183MOL     H647690   0.811   1.166   0.560 -0.1886  0.3307  0.6965
  183MOL     H747691   0.912   1.044   0.636 -0.3500  0.3638  0.8308
  183MOL     H847692   0.658   0.963   0.653  0.2838  0.1430  0.1023
  183MOL     H947693   0.809   0.817   0.729  1.1610 -0.7404  0.5577
  183MOL    H1047694   0.939   0.775   0.614  0.1148  0.0745 -0.7733
  183MOL    H1147695   0.817   0.562   0.564  0.6908 -0.9176  0.8372
  183MOL    H1247696   0.803   0.588   0.740 -1.9310 -1.9101  0.3402
  183MOL    H1347697   0.669   0.630   0.638  0.3763 -2.2222  0.0916
  183MOL    H1447698   0.891   1.056   0.463 -2.2209  1.0915 -0.2609
  183MOL    C1547699   0.623   1.002   0.443 -0.0514  0.0817 -0.3325
  183MOL    C1647700   0.474   0.948   0.449  0.0998  0.4464 -0.7526
  183MOL    O1747701   0.413   0.987   0.574 -0.1864 -0.3990 -0.0168
  183MOL    C1847702   0.377   1.122   0.599  0.3069 -0.0827 -0.9570
  183MOL    C1947703   0.283   1.126   0.726  0.1488  0.0089  0.1760
  183MOL    H2047704   0.666   0.970   0.348  0.5856 -1.3452  0.4250
  183MOL    H2147705   0.619   1.111   0.437 -0.3431  0.0282 -1.3432
  183MOL    H2247706   0.419   1.008   0.376 -0.4453 -0.4083 -1.0483
  183MOL    H2347707   0.336   1.178   0.514  0.3064  0.2923 -0.7099
  183MOL    H2447708   0.462   1.188   0.619 -0.4730  0.4965  0.5161
  183MOL    H2547709   0.219   1.214   0.737  0.1183  0.0764 -0.4931
  183MOL    H2647710   0.350   1.120   0.811  0.3720 -2.3176 -0.1289
  183MOL    H2747711   0.211   1.044   0.725 -1.9336  1.7666 -2.1403
  183MOL    C2847712   0.455   0.794   0.452 -0.1073  0.2140  1.0183
  183MOL    C2947713   0.315   0.739   0.470 -0.3713  0.4606  0.0562
  183MOL    O3047714   0.329   0.596   0.492 -0.0509  0.0247  0.0592
  183MOL    C3147715   0.264   0.551   0.616 -0.1123  0.7863  0.6310
  183MOL    C3247716   0.274   0.399   0.634  0.1172  0.1318 -0.3623
  183MOL    H3347717   0.522   0.762   0.533  2.1772 -2.7582 -1.9075
  183MOL    H3447718   0.502   0.751   0.363 -1.2194  1.7472 -0.3312
  183MOL    H3547719   0.282   0.780   0.566 -0.1000  0.0702  0.3169
  183MOL    H3647720   0.159   0.574   0.602 -0.1441 -0.8734 -2.1884
  183MOL    H3747721   0.308   0.600   0.703  0.9700 -0.8825  1.0437
  183MOL    H3847722   0.234   0.352   0.724  0.4338 -0.2923 -0.4420
  183MOL    H3947723   0.230   0.343   0.551 -1.2812  1.8428 -0.8029
  183MOL    H4047724   0.377   0.364   0.628  0.8555  1.9598  1.3716
  183MOL    C4147725   0.227   0.786   0.361  0.3746 -0.1145  0.2384
  183MOL    C4247726   0.078   0.792   0.402 -0.5426  0.4056 -0.3379
  183MOL    O4347727   0.017   0.857   0.297  0.5596  0.8015  0.4285
  183MOL    C4447728   7.781   0.760   0.217  0.1156 -0.2595 -0.2301
  183MOL    C4547729   7.723   0.836   0.102  0.7045 -0.3235  0.1913
  183MOL    H4647730   0.254   0.721   0.278  1.1649  0.0096  0.3991
  183MOL    H4747731   0.254   0.889   0.337  3.9014 -1.0418  0.0315
  183MOL    H4847732   0.044   0.689   0.410 -0.5288  0.2631 -1.9983
  183MOL    H4947733   7.698   0.715   0.271 -0.1499  0.6022  0.0862
  183MOL    H5047734   7.831   0.669   0.183  1.6734  0.9841 -1.3186
  183MOL    H5147735   7.670   0.926   0.135  1.5215 -0.1087  0.9244
  183MOL    H5247736   7.807   0.855   0.036  1.8069  1.3935  2.0119
  183MOL    H5347737   7.641   0.781   0.056  0.4140 -0.7065  1.1520
  183MOL    C5447738   0.028   0.865   0.539  0.0569 -0.4166 -0.2783
  183MOL    C5547739   7.724   0.891   0.573  0.1624 -0.0616  0.2480
  183MOL    O5647740   7.716   1.005   0.660  0.1320 -0.5030 -0.5633
  183MOL    C5747741   7.692   1.129   0.590 -0.0768 -0.6316 -0.1347
  183MOL    C5847742   7.746   1.248   0.681 -0.1092 -0.3219  0.1271
  183MOL    H5947743   0.078   0.961   0.540 -0.6446 -0.0180 -1.7920
  183MOL    H6047744   0.061   0.808   0.626 -0.2259  1.1156  0.8439
  183MOL    H6147745   7.679   0.917   0.477  0.8698  1.6137  0.3478
  183MOL    H6247746   7.585   1.131   0.575 -0.1857 -0.4688  0.6217
  183MOL    H6347747   7.738   1.124   0.492 -1.6743 -3.7974 -0.7802
  183MOL    H6447748   7.726   1.224   0.785 -1.1562  2.1587  0.5223
  183MOL    H6547749   0.011   1.256   0.678 -0.2985  2.9484  0.4276
  183MOL    H6647750   7.706   1.347   0.658 -0.1517  0.0120  1.6175
  183MOL    C6747751   7.644   0.774   0.626 -0.4048 -0.1766 -0.8622
  183MOL    C6847752   7.498   0.809   0.630  0.5271  0.7235 -0.1914
  183MOL    O6947753   7.451   0.739   0.746 -0.2594  0.2244 -0.4605
  183MOL    C7047754   7.433   0.826   0.855  0.2569  0.9105  0.5592
  183MOL    C7147755   7.333   0.749   0.946  0.1584 -0.2187 -0.3573
  183MOL    H7247756   7.690   0.751   0.722 -2.8085  0.8210  0.5590
  183MOL    H7347757   7.661   0.687   0.562  2.2779 -0.4685  0.1690
  183MOL    H7447758   7.483   0.916   0.643 -2.4847  0.2209  0.8957
  183MOL    H7547759   7.392   0.924   0.832 -1.1460  0.1728 -0.1723
  183MOL    H7647760   7.530   0.835   0.903 -0.2278  1.3391  1.4626
  183MOL    H7747761   7.377   0.651   0.967  2.4449  1.2434  1.9952
  183MOL    H7847762   7.336   0.807   1.038 -1.1866 -0.2429 -0.2915
  183MOL    H7947763   7.236   0.727   0.901 -0.8792 -0.0798  1.7511
  183MOL    C8047764   7.418   0.767   0.513  0.2135 -0.8000 -1.0234
  183MOL    C8147765   7.270   0.828   0.525  0.4299  0.1046 -0.2504
  183MOL    O8247766   7.189   0.754   0.437 -0.3091 -0.6528  0.2419
  183MOL    C8347767   7.113   0.648   0.491 -0.3072 -0.2990 -0.1625
  183MOL    C8447768   6.964   0.683   0.528 -0.4165  0.3032 -0.3305
  183MOL    H8547769   7.418   0.658   0.524  1.8257 -0.6345  0.8706
  183MOL    H8647770   7.462   0.802   0.420 -2.6604  2.5076 -1.2094
  183MOL    H8747771   7.231   0.827   0.626 -0.8608 -1.9954 -0.7313
  183MOL    H8847772   7.159   0.597   0.575  1.5322 -0.6874 -1.3781
  183MOL    H8947773   7.107   0.571   0.414  0.8498 -0.1736 -0.3807
  183MOL    H9047774   6.893   0.694   0.446 -0.7801 -2.1634 -0.3941
  183MOL    H9147775   6.921   0.599   0.582  0.1513  1.6966  2.3877
  183MOL    H9247776   6.946   0.773   0.587  0.0252 -0.2979  0.7306
  183MOL    C9347777   7.274   0.979   0.480  0.0974  0.1446  0.4276
  183MOL    C9447778   7.164   1.067   0.552 -0.4272  0.7885  0.1486
  183MOL    O9547779   7.033   1.018   0.521 -0.2262  0.4855  0.3144
  183MOL    C9647780   6.991   1.013   0.389 -0.1558  0.0332  0.8869
  183MOL    C9747781   6.843   1.030   0.385  0.4663 -0.2184 -1.1438
  183MOL    H9847782   7.261   0.976   0.372 -1.1120 -0.6786  0.5837
  183MOL    H9947783   7.373   1.024   0.493 -0.5959  1.7113  0.4850
  183MOL   H10047784   7.179   1.063   0.659  2.1487 -1.0054 -0.2430
  183MOL   H10147785   7.028   0.922   0.343  0.2846  0.5989  0.1194
  183MOL   H10247786   7.031   1.092   0.326  0.5304  0.9297  2.4063
  183MOL   H10347787   6.809   1.104   0.457 -0.4122 -1.4809 -0.2235
  183MOL   H10447788   6.816   1.052   0.281 -0.1863  1.4748 -0.6266
  183MOL   H10547789   6.790   0.935   0.399  0.3099 -0.1803 -1.4581
  183MOL   C10647790   7.174   1.219   0.531 -0.2070 -0.1646 -0.1233
  183MOL   C10747791   7.310   1.278   0.545  0.0707 -0.4702  0.1458
  183MOL   O10847792   7.402   1.238   0.447 -0.5897  0.4162 -0.2446
  183MOL   C10947793   7.371   1.286   0.316  0.6035 -0.5223  0.5616
  183MOL   C11047794   7.475   1.238   0.220 -0.4941 -0.1525  0.0999
  183MOL   H11147795   7.108   1.278   0.595 -0.0127  1.9941 -1.8469
  183MOL   H11247796   7.127   1.243   0.435 -0.8669 -1.9661 -0.2649
  183MOL   H11347797   7.297   1.386   0.535 -0.3246 -0.6839 -1.8500
  183MOL   H11447798   7.374   1.395   0.320  0.9997 -0.5632  1.5177
  183MOL   H11547799   7.273   1.255   0.280 -0.0677  1.3117  0.7433
  183MOL   H11647800   7.458   1.254   0.113 -0.4417  0.3427  0.1685
  183MOL   H11747801   7.570   1.278   0.253  0.2979 -0.2493 -1.9928
  183MOL   H11847802   7.478   1.131   0.242 -1.1132  0.0192  1.0364
  183MOL   C11947803   7.382   1.268   0.688  0.4511 -0.2025  0.0041
  183MOL   C12047804   7.316   1.348   0.800  0.2215  0.1860  0.0903
  183MOL   O12147805   7.349   1.482   0.779  0.4237  0.2939  0.7100
  183MOL   C12247806   7.250   1.577   0.763  0.7028 -0.3255 -0.5849
  183MOL   C12347807   7.311   1.715   0.733 -0.4806 -0.2230  0.7762
  183MOL   H12447808   7.486   1.299   0.678  0.6280 -0.9167 -0.4012
  183MOL   H12547809   7.377   1.161   0.703  0.1652 -0.0374  1.0795
  183MOL   H12647810   7.210   1.323   0.801  0.4003 -0.5505  1.4583
  183MOL   H12747811   7.169   1.566   0.836  1.5023  0.5463  0.4439
  183MOL   H12847812   7.188   1.551   0.676  0.1765 -0.6129 -0.1306
  183MOL   H12947813   7.233   1.781   0.695 -1.7334  0.4899  4.3846
  183MOL   H13047814   7.368   1.756   0.817  0.2134  2.5678 -0.9789
  183MOL   H13147815   7.379   1.691   0.652 -0.0695 -0.6173  1.2355
  183MOL   C13247816   7.362   1.306   0.936  0.2209  0.2301 -0.0883
  183MOL   C13347817   7.325   1.168   0.991  0.0629 -0.0248 -0.4659
  183MOL   O13447818   7.185   1.157   0.971 -0.2242 -0.6008 -0.5377
  183MOL   C13547819   7.127   1.025   0.967  0.2432  0.0675 -0.5069
  183MOL   C13647820   6.975   1.039   0.932  0.5414 -0.3957  0.2336
  183MOL   H13747821   7.315   1.375   1.006 -2.1467 -2.8019  1.4101
  183MOL   H13847822   7.465   1.335   0.954 -0.1084  0.7689  0.9689
  183MOL   H13947823   7.375   1.099   0.924  1.1625 -0.0824  0.4071
  183MOL   H14047824   7.139   0.973   1.062 -0.5043  0.8129  0.0004
  183MOL   H14147825   7.171   0.965   0.887 -1.0854  0.0013 -1.2008
  183MOL   H14247826   6.919   0.945   0.939 -0.2374  0.1767  1.7234
  183MOL   H14347827   6.936   1.111   1.003  1.3731 -0.6356  0.9424
  183MOL   H14447828   6.963   1.078   0.831  0.4539 -0.5474  0.1846
  183MOL   C14547829   7.351   1.149   1.142  0.1566 -0.2865 -0.7053
  183MOL   C14647830   7.495   1.164   1.190 -0.1762  0.2987  0.0281
  183MOL   O14747831   7.572   1.063   1.121  0.1737  0.2323 -0.4964
  183MOL   C14847832   7.713   1.096   1.106 -0.1773 -0.1015  0.6242
  183MOL   C14947833   7.782   0.995   1.008 -0.2095  0.3042  0.0409
  183MOL   H15047834   7.314   1.053   1.178  0.2298 -0.4174 -0.9785
  183MOL   H15147835   7.286   1.220   1.193 -0.1001 -0.3733 -0.9102
  183MOL   H15247836   7.527   1.266   1.166 -0.5351 -0.3719 -3.5401
  183MOL   H15347837   7.759   1.107   1.204 -0.4118  1.4429  0.5743
  183MOL   H15447838   7.721   1.191   1.055 -2.5135 -0.7806 -1.0973
  183MOL   H15547839   7.778   0.895   1.051 -2.1206  0.0372 -0.7589
  183MOL   H15647840   7.740   0.999   0.908 -0.0616 -0.8186 -0.0723
  183MOL   H15747841   0.041   1.031   0.994 -0.7632  0.8720 -2.8460
  183MOL   C15847842   7.504   1.148   1.337 -0.0607  0.3227  0.1265
  183MOL   C15947843   7.492   1.290   1.404  0.2128  0.0211  1.2944
  183MOL   O16047844   7.607   1.354   1.376 -0.3291 -0.2907  0.0939
  183MOL   C16147845   7.594   1.488   1.327  0.4775 -0.0432 -0.2132
  183MOL   C16247846   7.716   1.538   1.253  0.3324  0.6831  0.6249
  183MOL   H16347847   7.595   1.096   1.364 -2.1131 -1.9736  2.9614
  183MOL   H16447848   7.418   1.089   1.368  0.8635 -2.7174 -2.8255
  183MOL   H16547849   7.407   1.344   1.362 -0.5103 -0.6062  1.9418
  183MOL   H16647850   7.585   1.543   1.421 -3.4010 -3.1358  1.3828
  183MOL   H16747851   7.503   1.503   1.269 -0.2992 -0.2345  0.9236
  183MOL   H16847852   7.697   1.638   1.213 -1.3146  0.0634 -0.1779
  183MOL   H16947853   7.796   1.538   1.327 -0.4731 -0.5435  1.5161
  183MOL   H17047854   7.733   1.466   1.173 -0.0677  0.8301  0.4068
  183MOL   C17147855   7.484   1.278   1.558 -0.4110 -0.0787 -0.5396
  183MOL   C17247856   7.362   1.203   1.613  0.0325  0.3240  0.4235
  183MOL   O17347857   7.253   1.272   1.558 -0.2677 -0.6398 -0.1457
  183MOL   C17447858   7.121   1.224   1.591  0.6318 -0.8276  0.2567
  183MOL   C17547859   7.033   1.325   1.526 -0.4670 -0.6461 -0.0837
  183MOL   H17647860   7.497   1.380   1.595 -1.5155 -0.1977  0.1919
  183MOL   H17747861   7.575   1.220   1.574 -0.3657 -0.7820 -3.1379
  183MOL   H17847862   7.381   1.101   1.577 -1.4465 -0.7203  2.5061
  183MOL   H17947863   7.101   1.225   1.698  0.6326  2.3514  0.2981
  183MOL   H18047864   7.095   1.124   1.556  0.0863 -0.0477 -1.6528
  183MOL   H18147865   6.928   1.294   1.530 -1.0018  0.5772 -3.2819
  183MOL   H18247866   7.036   1.426   1.568 -0.4312 -0.1715 -1.2241
  183MOL   H18347867   7.063   1.343   1.423  1.7902  1.2646  0.8840
  183MOL   C18447868   7.352   1.197   1.765 -0.1364  0.2760  0.2570
  183MOL   C18547869   7.449   1.123   1.858  0.4696  0.5119 -0.0271
  183MOL   O18647870   7.584   1.164   1.857  0.1279 -0.4282 -0.4358
  183MOL   C18747871   7.610   1.293   1.914 -0.5219  0.8959  0.0160
  183MOL   C18847872   7.764   1.317   1.916  0.3125 -0.0998  0.2346
  183MOL   H18947873   7.259   1.148   1.792  1.1374 -2.0968  0.4487
  183MOL   H19047874   7.350   1.303   1.790 -1.1616  0.9302 -2.4572
  183MOL   H19147875   7.409   1.133   1.959  1.0202 -2.8503  0.5746
  183MOL   H19247876   7.570   1.305   2.014 -0.4069  0.5697  0.1006
  183MOL   H19347877   7.553   1.367   1.858 -0.6845  1.4419  0.8908
  183MOL   H19447878   7.802   1.418   1.901 -1.2963  0.4140 -0.5239
  183MOL   H19547879   7.812   1.274   2.004  1.2871 -3.0269 -1.6300
  183MOL   H19647880   7.815   1.272   1.831 -0.9720 -2.1506  0.5121
  183MOL   C19747881   7.466   0.977   1.812 -0.3719  0.1661  0.2311
  183MOL   C19847882   7.517   0.873   1.913  0.4745 -0.2098  0.0447
  183MOL   O19947883   7.573   0.758   1.842 -0.0179  0.3788 -0.2679
  183MOL   C20047884   7.709   0.789   1.796 -0.6710  0.2566  0.1967
  183MOL   C20147885   7.772   0.659   1.762  0.1154 -0.4445  0.0559
  183MOL   H20247886   7.538   0.987   1.731  0.7105 -0.8264  1.0575
  183MOL   H20347887   7.372   0.939   1.771  1.7398 -0.1128 -4.6650
  183MOL   H20447888   7.591   0.917   1.980  2.2767 -0.2342 -1.8514
  183MOL   H20547889   7.767   0.845   1.869 -0.2780 -0.9292  0.8247
  183MOL   H20647890   7.697   0.856   1.711 -1.1645 -1.4056 -1.0801
  183MOL   H20747891   7.740   0.622   1.665  1.5835  1.3597 -1.1491
  183MOL   H20847892   0.037   0.664   1.770  0.2817  0.3471 -2.2987
  183MOL   H20947893   7.724   0.586   1.828  0.1083  0.5328  1.1482
  183MOL   C21047894   7.399   0.822   2.005  0.3129 -0.2861 -0.7921
  183MOL   C21147895   7.335   0.915   2.113  0.3814  0.6273  0.7835
  183MOL   O21247896   7.443   0.985   2.180 -0.1046 -0.4734 -0.0701
  183MOL   C21347897   7.409   1.077   2.287  0.2514  0.0426  0.2658
  183MOL   C21447898   7.545   1.142   2.320  0.6278  0.5049 -0.5957
  183MOL   H21547899   7.449   0.740   2.058 -3.1255 -1.1169  1.3370
  183MOL   H21647900   7.330   0.777   1.935  0.1889  0.1796 -0.9674
  183MOL   H21747901   7.275   0.982   2.052  2.0417 -0.6598 -2.4014
  183MOL   H21847902   7.367   1.019   2.369  0.6043 -2.9931 -1.6347
  183MOL   H21947903   7.337   1.155   2.263 -0.8564 -0.4910  1.8391
  183MOL   H22047904   7.600   1.170   2.231 -1.3996  1.8634 -1.4513
  183MOL   H22147905   7.529   1.209   2.405 -0.8487  0.4011 -0.7724
  183MOL   H22247906   7.607   1.064   2.365  1.4030  1.6290  0.3136
  183MOL   C22347907   7.242   0.833   2.208 -0.2674 -0.3252 -0.7853
  183MOL   C22447908   7.114   0.784   2.136 -0.0486  0.1095 -0.7283
  183MOL   O22547909   7.047   0.892   2.083  0.4182  0.2415  0.0859
  183MOL   C22647910   6.973   0.873   1.968 -0.5111 -0.0233 -0.5723
  183MOL   C22747911   7.002   0.975   1.859  0.4179  0.2008 -0.1469
  183MOL   H22847912   7.216   0.902   2.288 -0.4478 -1.1626 -0.1179
  183MOL   H22947913   7.285   0.746   2.257  0.5964  1.1220  1.0886
  183MOL   H23047914   7.151   0.710   2.064  0.4512 -0.6530  0.2970
  183MOL   H23147915   6.869   0.886   1.998  0.2465  1.2286  1.6336
  183MOL   H23247916   6.990   0.770   1.935  1.5781  0.4386 -1.0064
  183MOL   H23347917   6.938   0.955   1.773 -0.7772 -0.0315  0.7979
  183MOL   H23447918   6.989   1.082   1.876 -0.9702  0.6826 -3.6935
  183MOL   H23547919   7.109   0.959   1.845  0.1590 -0.1470 -1.8988
  183MOL   C23647920   7.015   0.699   2.225 -0.3966  0.6471  0.2713
  183MOL   C23747921   7.063   0.548   2.240  0.5465  0.7164 -0.6115
  183MOL   O23847922   7.048   0.484   2.112 -0.2617 -0.2034 -0.2644
  183MOL   C23947923   7.126   0.366   2.096  0.1615  0.4204 -0.0499
  183MOL   C24047924   7.042   0.256   2.038  0.0976 -0.6345  0.3630
  183MOL   H24147925   6.919   0.699   2.174 -0.5642  0.2303  0.5824
  183MOL   H24247926   6.993   0.738   2.325 -0.4761 -0.1925  0.5847
  183MOL   H24347927   7.166   0.552   2.275 -0.4960  0.2698  2.7200
  183MOL   H24447928   7.159   0.334   2.195 -2.9300 -1.6021  0.3959
  183MOL   H24547929   7.223   0.372   2.047  0.0638  0.0273 -0.2946
  183MOL   H24647930   7.096   0.162   2.028 -0.7071 -1.1272  0.5991
  183MOL   H24747931   6.963   0.237   2.111 -1.1634  0.5116 -0.6870
  183MOL   H24847932   7.011   0.283   1.937  1.6974  1.7855  0.4695
  183MOL   C24947933   6.967   0.481   2.339 -0.6666  0.1009  0.2742
  183MOL   C25047934   7.000   0.525   2.483 -0.2392  0.1991 -0.3423
  183MOL   O25147935   7.127   0.473   2.521 -0.3589  0.3219 -0.1766
  183MOL   C25247936   7.157   0.488   2.662  0.2131  0.2301  0.0810
  183MOL   C25347937   7.299   0.423   2.678 -0.3950  0.4712 -0.0113
  183MOL   H25447938   6.973   0.374   2.325 -0.3693 -0.1642  2.3123
  183MOL   H25547939   6.868   0.521   2.315 -0.9466 -0.8899 -0.2213
  183MOL   H25647940   7.004   0.631   2.508 -0.4767  0.4564 -1.3585
  183MOL   H25747941   7.084   0.430   2.719  1.3225 -0.1563  1.1313
  183MOL   H25847942   7.145   0.594   2.684 -0.7310  0.4483 -1.4165
  183MOL   H25947943   7.312   0.338   2.612 -0.2019  0.3148  0.2273
  183MOL   H26047944   7.376   0.501   2.669 -0.3664  0.3204 -1.0682
  183MOL   H26147945   7.312   0.394   2.782  0.2864  0.8870  0.0253
  183MOL   H26247946   6.933   0.478   2.554  1.0767 -0.2674  0.6201
  184MOL     C147947   4.668   1.452   5.126  0.0883  0.1759 -0.2607
  184MOL     C247948   4.575   1.503   5.233 -0.1756 -0.6910  0.3222
  184MOL     O347949   4.449   1.441   5.224 -0.0453  0.2043 -0.3872
  184MOL     C447950   4.434   1.302   5.248  0.4120  1.0135  0.2868
  184MOL     C547951   4.283   1.274   5.246 -0.8621  0.0555 -0.4927
  184MOL     H647952   4.739   1.375   5.158  1.2921  0.7687 -1.4582
  184MOL     H747953   4.611   1.414   5.042  0.6028  1.6861 -1.3075
  184MOL     H847954   4.625   1.464   5.322 -1.0912  2.4410  2.2965
  184MOL     H947955   4.481   1.279   5.344  1.8963  0.2457 -0.6055
  184MOL    H1047956   4.496   1.240   5.183  0.1378 -0.6133  1.5482
  184MOL    H1147957   4.243   1.290   5.146 -1.7429  2.8820  0.2823
  184MOL    H1247958   4.274   1.176   5.294 -0.6306  1.7205  3.1306
  184MOL    H1347959   4.232   1.344   5.311 -1.2496  0.1832 -0.9343
  184MOL    H1447960   4.738   1.534   5.110 -0.0852  0.4802  0.5083
  184MOL    C1547961   4.562   1.653   5.253  0.0399  0.3330  0.4115
  184MOL    C1647962   4.695   1.705   5.321  0.1643 -0.4787  0.1143
  184MOL    O1747963   4.659   1.702   5.459  0.1564  0.1022  0.1800
  184MOL    C1847964   4.770   1.689   5.548 -0.8365 -0.2277  0.2923
  184MOL    C1947965   4.739   1.685   5.695  0.4679  0.1491 -0.0434
  184MOL    H2047966   4.476   1.676   5.316  0.6915  0.9896  1.0805
  184MOL    H2147967   4.550   1.698   5.154  1.0728  1.3115  0.7166
  184MOL    H2247968   4.778   1.638   5.301  0.3255 -0.0095 -0.7870
  184MOL    H2347969   4.839   1.772   5.538 -0.3188 -0.9199 -2.0792
  184MOL    H2447970   4.828   1.602   5.516 -1.5827 -0.5732 -0.1376
  184MOL    H2547971   4.818   1.734   5.751 -1.4335  0.7275  2.1932
  184MOL    H2647972   4.728   1.583   5.733 -0.8683  0.9607  1.8197
  184MOL    H2747973   4.650   1.744   5.719 -0.5112  0.0957 -3.2295
  184MOL    C2847974   4.731   1.847   5.278 -0.2519 -0.4531 -0.0259
  184MOL    C2947975   4.757   1.865   5.132 -0.0240 -0.1497  0.2369
  184MOL    O3047976   4.872   1.784   5.097 -0.4434 -0.0092 -0.4340
  184MOL    C3147977   4.896   1.755   4.967  0.4777 -0.4157  0.1054
  184MOL    C3247978   5.026   1.679   4.969 -0.1701 -1.3167 -0.4441
  184MOL    H3347979   4.819   1.876   5.334  0.5957 -3.2571  0.1950
  184MOL    H3447980   4.644   1.905   5.309  0.1827  0.7857 -1.0888
  184MOL    H3547981   4.672   1.830   5.073  1.1400 -3.2002  0.2796
  184MOL    H3647982   4.908   1.854   4.921 -0.1535 -0.8951 -1.0939
  184MOL    H3747983   4.817   1.702   4.915  1.1363 -3.5886  2.2329
  184MOL    H3847984   5.107   1.733   5.017  0.2272 -1.2804 -1.1561
  184MOL    H3947985   5.020   1.576   5.003  2.1710 -1.0162  1.0023
  184MOL    H4047986   5.076   1.676   4.873  1.7886 -1.5516  0.5743
  184MOL    C4147987   4.777   2.012   5.095 -0.2001 -0.3398  0.4034
  184MOL    C4247988   4.678   2.122   5.138 -0.2529  0.5441  1.0071
  184MOL    O4347989   4.554   2.076   5.089 -0.3723  0.5169 -0.1248
  184MOL    C4447990   4.438   2.121   5.162 -0.5758  0.1670 -1.1030
  184MOL    C4547991   4.314   2.046   5.118 -0.5631 -0.3555  0.1942
  184MOL    H4647992   4.775   2.012   4.986 -0.3153 -3.5414  0.3385
  184MOL    H4747993   4.881   2.034   5.120  0.0900  0.2138 -1.2202
  184MOL    H4847994   4.680   2.131   5.246  0.0357 -1.9628  1.2442
  184MOL    H4947995   4.429   2.229   5.148 -2.3798  0.2980  0.8410
  184MOL    H5047996   4.454   2.100   5.268  1.8712 -1.4330 -1.7654
  184MOL    H5147997   4.240   2.046   5.197  1.3475 -1.7137  2.0320
  184MOL    H5247998   4.269   2.070   5.022 -0.9700 -0.8921  0.2507
  184MOL    H5347999   4.345   1.942   5.112  1.2171  0.2665 -3.4721
  184MOL    C5448000   4.720   2.251   5.068 -0.4106  0.2014 -0.0349
  184MOL    C5548001   4.857   2.321   5.089  0.9293 -0.6901  0.2143
  184MOL    O5648002   4.862   2.409   5.200  0.2214  0.3741  0.1229
  184MOL    C5748003   4.866   2.343   5.324 -0.0558  1.2137 -0.5863
  184MOL    C5848004   4.910   2.434   5.440  0.6418 -0.0805  0.1903
  184MOL    H5948005   4.656   2.339   5.076  0.6890  1.0293 -0.0356
  184MOL    H6048006   4.707   2.231   4.961  1.0258 -2.6128  0.2733
  184MOL    H6148007   4.931   2.241   5.099  1.3438  0.0209  3.2120
  184MOL    H6248008   4.925   2.251   5.316 -0.0042  1.1461  0.4872
  184MOL    H6348009   4.767   2.302   5.345  0.6445 -0.6354 -0.7870
  184MOL    H6448010   4.913   2.383   5.536  0.2107 -1.0714 -0.3094
  184MOL    H6548011   5.009   2.479   5.430  1.6830 -1.8908  1.7997
  184MOL    H6648012   4.831   2.507   5.457  2.2524  0.9585  3.5787
  184MOL    C6748013   4.889   2.404   4.967  0.0388 -0.2858 -0.2910
  184MOL    C6848014   5.018   2.489   4.973 -0.5326  0.3601  0.5755
  184MOL    O6948015   5.026   2.553   4.843 -0.3055 -0.9204  0.4109
  184MOL    C7048016   5.073   2.684   4.846 -0.3953  0.4234 -0.3881
  184MOL    C7148017   4.965   2.779   4.886 -0.0952 -0.9397 -0.5574
  184MOL    H7248018   4.805   2.470   4.947  1.6070  0.9107 -3.2880
  184MOL    H7348019   4.889   2.343   4.877 -0.2741  0.3947 -0.7578
  184MOL    H7448020   5.010   2.561   5.055  0.2464  0.2224  0.7743
  184MOL    H7548021   5.110   2.714   4.747  0.0438 -0.4021 -0.4749
  184MOL    H7648022   5.160   2.688   4.912 -0.1297  2.9950 -0.8103
  184MOL    H7748023   4.879   2.781   4.819 -0.1110 -1.5100 -0.5523
  184MOL    H7848024   4.929   2.770   4.988 -1.8069  0.4576 -1.0279
  184MOL    H7948025   5.019   2.873   4.869 -2.0124  0.1280 -0.8410
  184MOL    C8048026   5.152   2.405   4.985 -0.5511 -0.2001  0.1357
  184MOL    C8148027   5.206   2.386   5.121 -0.4638  0.1725  0.1433
  184MOL    O8248028   5.294   2.498   5.158  0.3626 -0.9764 -0.4210
  184MOL    C8348029   5.242   2.591   5.246  0.1722 -0.5123  0.1537
  184MOL    C8448030   5.355   2.656   5.323  0.2554  0.5956  0.2135
  184MOL    H8548031   5.236   2.462   4.945 -0.7390 -0.9714 -1.3867
  184MOL    H8648032   5.145   2.306   4.941  2.4048  0.9841 -3.2318
  184MOL    H8748033   5.131   2.360   5.195 -1.3613 -0.5028 -0.9896
  184MOL    H8848034   5.174   2.551   5.322  1.9362 -2.2982  0.8496
  184MOL    H8948035   5.201   2.672   5.186  0.9065 -1.6940 -1.9740
  184MOL    H9048036   5.417   2.712   5.253 -0.5428  0.9746 -0.2023
  184MOL    H9148037   5.335   2.723   5.406 -3.9579 -1.1872  0.7523
  184MOL    H9248038   5.418   2.574   5.357 -0.7832 -2.1279 -4.1044
  184MOL    C9348039   5.292   2.262   5.125  1.0704 -0.7830 -0.1217
  184MOL    C9448040   5.217   2.127   5.150 -0.2056 -0.3043  0.2321
  184MOL    O9548041   5.201   2.110   5.287 -0.5051  0.0998  0.5163
  184MOL    C9648042   5.159   1.979   5.331  0.8398  0.6787  0.3266
  184MOL    C9748043   5.131   1.974   5.475  0.5299 -0.2423  1.0146
  184MOL    H9848044   5.363   2.277   5.207  2.2897  1.0818 -1.4841
  184MOL    H9948045   5.354   2.269   5.036  1.4445  1.5804  0.2936
  184MOL   H10048046   5.112   2.134   5.122 -0.0188 -1.1407 -0.6951
  184MOL   H10148047   5.235   1.903   5.313 -0.2808 -0.3407 -0.2374
  184MOL   H10248048   5.066   1.956   5.278  0.6967 -1.1747  1.3320
  184MOL   H10348049   5.094   2.071   5.509  0.6870 -0.0599  0.6679
  184MOL   H10448050   5.061   1.897   5.508 -0.9089  0.2733 -0.7522
  184MOL   H10548051   5.228   1.960   5.523  0.7632  1.0821  0.9360
  184MOL   C10648052   5.295   2.009   5.070 -0.3234 -0.1849  0.5569
  184MOL   C10748053   5.288   2.019   4.912  0.5737  0.6960  0.1390
  184MOL   O10848054   5.156   1.993   4.868 -0.1264  0.1654 -0.1468
  184MOL   C10948055   5.118   2.060   4.751 -0.0750 -0.5162  0.3187
  184MOL   C11048056   4.991   1.998   4.693 -0.3109 -0.2239 -1.0194
  184MOL   H11148057   5.258   1.908   5.091 -0.1094 -0.3473  0.1709
  184MOL   H11248058   5.401   2.009   5.092 -0.6908 -2.6120  2.6393
  184MOL   H11348059   5.317   2.120   4.883  1.0741  0.0863 -1.5166
  184MOL   H11448060   5.191   2.047   4.671 -1.0851  0.2467 -0.7430
  184MOL   H11548061   5.103   2.168   4.760 -0.4100 -0.4009 -1.3784
  184MOL   H11648062   4.903   2.037   4.744  0.9264  1.8313 -0.4285
  184MOL   H11748063   4.970   2.027   4.591  0.8992 -1.2651 -1.5733
  184MOL   H11848064   4.993   1.889   4.690 -1.7357 -0.3191  0.5649
  184MOL   C11948065   5.382   1.926   4.840  0.0797  0.6806  0.6782
  184MOL   C12048066   5.522   1.982   4.799  0.0510 -0.8507  0.0844
  184MOL   O12148067   5.492   2.097   4.712 -0.3926  0.1441  0.0547
  184MOL   C12248068   5.597   2.184   4.703 -0.2346  0.5901 -0.0107
  184MOL   C12348069   5.568   2.295   4.598  0.2994  0.2924 -0.0672
  184MOL   H12448070   5.337   1.904   4.743  0.2816  1.5344  0.3802
  184MOL   H12548071   5.400   1.846   4.912  2.7963 -0.7698 -1.4942
  184MOL   H12648072   5.576   2.019   4.886  1.3107  0.1570 -1.0883
  184MOL   H12748073   5.692   2.136   4.680 -0.2602 -0.1937  1.4133
  184MOL   H12848074   5.615   2.234   4.799  2.1524 -0.1784 -0.0407
  184MOL   H12948075   5.652   2.363   4.605 -1.2445  2.0609  2.1520
  184MOL   H13048076   5.560   2.263   4.494  0.1158 -0.8758  0.2906
  184MOL   H13148077   5.476   2.350   4.620 -0.4818 -1.6955  1.9659
  184MOL   C13248078   5.617   1.875   4.735  0.6301 -0.1627  0.1201
  184MOL   C13348079   5.647   1.753   4.834 -0.1186 -0.0291  0.4744
  184MOL   O13448080   5.532   1.677   4.866  0.3785 -0.3978 -0.2407
  184MOL   C13548081   5.492   1.592   4.764  0.3408  0.0026  0.1101
  184MOL   C13648082   5.345   1.571   4.772 -0.4919  0.2012 -0.1222
  184MOL   H13748083   5.715   1.916   4.711  0.3687  0.0370 -0.5934
  184MOL   H13848084   5.582   1.837   4.639 -0.7942 -1.4725  1.1315
  184MOL   H13948085   5.714   1.681   4.788 -1.5721 -1.7414  1.0112
  184MOL   H14048086   5.555   1.505   4.744  0.6567  0.6001 -1.5778
  184MOL   H14148087   5.514   1.649   4.674  2.2801  1.1048  1.2487
  184MOL   H14248088   5.283   1.660   4.760  0.5573  0.7847 -1.3516
  184MOL   H14348089   5.325   1.496   4.695 -1.3195 -0.7778  1.0154
  184MOL   H14448090   5.324   1.527   4.870  1.5529 -0.5084  0.0150
  184MOL   C14548091   5.699   1.790   4.976  0.0743  0.7897  0.9940
  184MOL   C14648092   5.829   1.878   4.971 -0.5771 -0.7492 -0.0677
  184MOL   O14748093   5.923   1.793   4.914  0.1536  0.1415 -0.2257
  184MOL   C14848094   6.046   1.858   4.873  0.1019 -0.5505 -0.4731
  184MOL   C14948095   6.141   1.754   4.816 -0.3984  0.1885  0.1468
  184MOL   H15048096   5.716   1.701   5.038  0.0174  1.2868  1.7291
  184MOL   H15148097   5.618   1.847   5.020 -2.8029 -0.4423 -2.5019
  184MOL   H15248098   5.810   1.969   4.914 -2.8669  1.2929  3.7420
  184MOL   H15348099   6.104   1.900   4.955  0.7464  1.1079 -1.7583
  184MOL   H15448100   6.025   1.944   4.810  2.5132 -0.6446 -1.4563
  184MOL   H15548101   6.241   1.797   4.801 -0.0345 -0.3403  1.0580
  184MOL   H15648102   6.144   1.683   4.898 -1.7779 -0.7586 -0.6026
  184MOL   H15748103   6.107   1.713   4.721 -2.4810  1.5620  0.2610
  184MOL   C15848104   5.881   1.913   5.114 -0.0931  0.1638 -0.4470
  184MOL   C15948105   5.798   2.013   5.193 -0.7695 -0.5429  0.3248
  184MOL   O16048106   5.669   1.959   5.213 -0.3205  0.0774  0.1818
  184MOL   C16148107   5.663   1.850   5.304  0.0079  0.4677  0.0350
  184MOL   C16248108   5.517   1.800   5.312 -0.3933 -0.3184 -0.7887
  184MOL   H16348109   5.982   1.955   5.115 -0.6040  1.3878  0.8406
  184MOL   H16448110   5.893   1.825   5.178 -0.2437 -1.9829 -3.2509
  184MOL   H16548111   5.848   2.040   5.286  0.2116  0.8660 -0.5876
  184MOL   H16648112   5.695   1.879   5.404  1.8017 -4.2330  0.9787
  184MOL   H16748113   5.729   1.771   5.269 -1.0517  0.0377 -1.0355
  184MOL   H16848114   5.520   1.707   5.370  1.6590  1.1537  1.5502
  184MOL   H16948115   5.446   1.873   5.350 -1.1908 -1.4361 -0.0797
  184MOL   H17048116   5.488   1.768   5.211 -0.0775  2.0823 -1.6624
  184MOL   C17148117   5.788   2.154   5.124  0.0479 -0.4216 -0.3914
  184MOL   C17248118   5.700   2.252   5.199 -0.1406 -0.1196  0.0707
  184MOL   O17348119   5.704   2.367   5.110  0.4495  0.0873 -0.2809
  184MOL   C17448120   5.593   2.460   5.104  0.0349  0.3857  0.4442
  184MOL   C17548121   5.643   2.572   5.013 -0.5618 -0.5370 -0.7580
  184MOL   H17648122   5.751   2.148   5.022  0.6843  1.7174 -0.7690
  184MOL   H17748123   5.893   2.181   5.127 -0.3514  1.1789 -0.3883
  184MOL   H17848124   5.596   2.222   5.193  0.4028 -1.6686 -2.2242
  184MOL   H17948125   5.563   2.506   5.198 -0.2111  0.9204  0.1086
  184MOL   H18048126   5.500   2.410   5.075  0.4110 -0.0643  0.0039
  184MOL   H18148127   5.680   2.532   4.918  0.5873 -1.6068  0.1356
  184MOL   H18248128   5.567   2.647   4.994 -0.5615 -0.8442 -2.0216
  184MOL   H18348129   5.715   2.638   5.061 -0.6487 -0.3524 -0.8819
  184MOL   C18448130   5.758   2.291   5.338  0.9733  0.0458  0.2036
  184MOL   C18548131   5.677   2.247   5.465  0.5690 -0.0010  0.2555
  184MOL   O18648132   5.548   2.303   5.442 -0.2888  0.3294 -0.5726
  184MOL   C18748133   5.438   2.212   5.483  0.8711  0.0808 -0.4218
  184MOL   C18848134   5.316   2.305   5.499 -0.4411  0.0609 -0.6236
  184MOL   H18948135   5.771   2.399   5.345 -2.5351  0.8373 -3.8634
  184MOL   H19048136   5.857   2.245   5.342  1.1812  0.4119 -0.6444
  184MOL   H19148137   5.677   2.139   5.470 -4.1569 -0.1902 -1.8055
  184MOL   H19248138   5.459   2.171   5.582  0.3027  0.6512 -0.0592
  184MOL   H19348139   5.425   2.125   5.418  0.4883  2.3681 -3.5116
  184MOL   H19448140   5.227   2.249   5.528 -1.6918  2.4116  0.2501
  184MOL   H19548141   5.341   2.388   5.564  0.1734 -0.9242  0.4004
  184MOL   H19648142   5.289   2.348   5.402  0.2568 -0.6434 -1.1312
  184MOL   C19748143   5.733   2.299   5.595 -0.1778  0.7136 -0.4970
  184MOL   C19848144   5.864   2.230   5.646 -0.2660  0.4380 -0.4145
  184MOL   O19948145   5.835   2.094   5.652 -0.0924  0.1629 -0.2079
  184MOL   C20048146   5.955   2.015   5.666 -0.0206 -0.2465  0.2776
  184MOL   C20148147   5.924   1.872   5.657  0.0762  0.8643  0.1088
  184MOL   H20248148   5.665   2.295   5.681 -1.8511  1.8683 -1.7270
  184MOL   H20348149   5.759   2.403   5.575 -0.5450  0.8671 -0.1932
  184MOL   H20448150   5.943   2.245   5.572 -0.6030 -2.3450 -1.3558
  184MOL   H20548151   6.001   2.025   5.764  0.1130 -1.2723  0.3225
  184MOL   H20648152   6.031   2.047   5.594  0.4424 -0.1437  0.8106
  184MOL   H20748153   5.886   1.837   5.561  2.1543  2.4286 -1.3360
  184MOL   H20848154   6.005   1.806   5.688 -1.9156 -1.3599  0.6851
  184MOL   H20948155   5.839   1.844   5.720 -1.8461  2.3358 -1.7390
  184MOL   C21048156   5.921   2.289   5.781 -0.1614 -0.3797  0.1330
  184MOL   C21148157   5.959   2.429   5.787  0.1192 -0.0066  0.6004
  184MOL   O21248158   6.072   2.452   5.868  0.1071 -0.2363  0.4221
  184MOL   C21348159   6.203   2.441   5.802 -0.1352 -0.1419 -0.1264
  184MOL   C21448160   6.324   2.426   5.896 -0.0552  0.3935  0.4886
  184MOL   H21548161   5.999   2.233   5.833  1.4614  1.1774 -0.5805
  184MOL   H21648162   5.845   2.268   5.855  0.5252 -1.4843  0.5365
  184MOL   H21748163   5.984   2.465   5.687  1.3345 -2.7059 -0.0980
  184MOL   H21848164   6.224   2.524   5.735 -1.3550  0.0306 -0.3045
  184MOL   H21948165   6.194   2.359   5.731  0.9439 -0.2335 -0.1741
  184MOL   H22048166   6.329   2.332   5.951 -0.7288 -0.3537 -0.6996
  184MOL   H22148167   6.416   2.444   5.840 -0.8173  2.2348 -0.2188
  184MOL   H22248168   6.319   2.508   5.968  2.2287  2.1935 -1.3164
  184MOL   C22348169   5.850   2.512   5.859 -0.3521 -0.4642  0.4304
  184MOL   C22448170   5.857   2.669   5.845  0.2759  0.3346  0.2526
  184MOL   O22548171   5.772   2.708   5.960 -0.4219  0.2008  0.5043
  184MOL   C22648172   5.842   2.748   6.073  0.2621  0.2822  0.4722
  184MOL   C22748173   5.753   2.758   6.200  0.2448 -0.2995  0.2108
  184MOL   H22848174   5.873   2.491   5.963  1.1483  1.8564  0.5842
  184MOL   H22948175   5.753   2.470   5.831  0.6654 -2.5242 -0.1578
  184MOL   H23048176   5.963   2.693   5.855  0.5394 -1.5419  2.4364
  184MOL   H23148177   5.883   2.843   6.039 -0.8175  1.1850  1.6330
  184MOL   H23248178   5.929   2.683   6.082  1.7899  2.3739  1.0800
  184MOL   H23348179   5.802   2.749   6.297  0.1938 -0.9789  0.1748
  184MOL   H23448180   5.697   2.852   6.201  2.3642  1.0034  0.4569
  184MOL   H23548181   5.684   2.674   6.202  0.9300 -0.9022 -0.7796
  184MOL   C23648182   5.808   2.721   5.708  0.1810 -0.2172  0.0190
  184MOL   C23748183   5.788   2.867   5.693 -0.3906 -0.5680  0.6087
  184MOL   O23848184   5.764   2.898   5.551 -0.7116 -0.2344 -0.2333
  184MOL   C23948185   5.625   2.904   5.528 -0.3397 -0.6749  0.3759
  184MOL   C24048186   5.610   2.918   5.379  0.7675 -0.1225 -0.1116
  184MOL   H24148187   5.712   2.674   5.689 -0.0409  1.0034 -1.9532
  184MOL   H24248188   5.885   2.697   5.635 -0.2917 -0.2507 -0.4703
  184MOL   H24348189   5.709   2.898   5.762  1.7469  1.8608  2.0696
  184MOL   H24448190   5.583   2.993   5.575  1.4907 -0.0128  0.8053
  184MOL   H24548191   5.566   2.819   5.561 -1.4349 -0.4271 -0.9101
  184MOL   H24648192   5.673   2.847   5.326 -1.4805 -0.4591 -2.4463
  184MOL   H24748193   5.504   2.922   5.354  1.0481  1.3916 -1.0936
  184MOL   H24848194   5.651   3.017   5.359  1.3610 -0.9872 -3.5244
  184MOL   C24948195   5.918   2.955   5.727  0.3267  0.0701  0.1989
  184MOL   C25048196   5.894   3.108   5.703  0.0767 -0.6483 -0.6978
  184MOL   O25148197   5.993   3.178   5.771  0.2699 -0.1310 -0.1619
  184MOL   C25248198   5.992   3.320   5.749  0.6493 -0.1044  0.8293
  184MOL   C25348199   6.069   3.389   5.866  0.8802  0.0577  0.3223
  184MOL   H25448200   6.009   2.927   5.673 -0.5954 -0.2598 -1.2088
  184MOL   H25548201   5.934   2.945   5.834  0.3955  3.3589  0.5359
  184MOL   H25648202   5.881   3.133   5.597  4.2367  1.9200 -0.6762
  184MOL   H25748203   5.897   3.373   5.748  0.4218 -0.4505 -2.5625
  184MOL   H25848204   6.029   3.346   5.649  0.8528  1.0590  1.1919
  184MOL   H25948205   6.006   3.391   5.955 -1.0897  1.0688 -1.0510
  184MOL   H26048206   6.150   3.324   5.897  0.9766  0.8601  1.7486
  184MOL   H26148207   6.092   3.491   5.837 -0.9480  0.0964 -1.1450
  184MOL   H26248208   5.800   3.138   5.750  0.0973  1.8068 -2.1074
  185MOL     C148209   1.398   6.084   3.690  0.5683  0.2422 -0.2316
  185MOL     C248210   1.318   6.213   3.683  0.4264  0.8112 -0.0184
  185MOL     O348211   1.379   6.316   3.761  0.3005  0.0238 -0.5702
  185MOL     C448212   1.492   6.391   3.719 -0.3136  0.1184  0.1891
  185MOL     C548213   1.530   6.480   3.841  0.3415 -0.3058  0.7265
  185MOL     H648214   1.492   6.095   3.745  1.8063 -2.0102 -1.8427
  185MOL     H748215   1.342   6.009   3.745 -1.6903  0.0741 -2.6959
  185MOL     H848216   1.318   6.242   3.578 -2.4324 -3.0700 -1.2173
  185MOL     H948217   1.482   6.460   3.635 -0.5075 -0.9988 -0.7220
  185MOL    H1048218   1.573   6.323   3.692 -0.0494  0.8227 -0.8203
  185MOL    H1148219   1.453   6.551   3.870  0.5232  0.1561  0.0955
  185MOL    H1248220   1.563   6.414   3.922  1.0939 -0.5147  0.2563
  185MOL    H1348221   1.620   6.538   3.817  1.9220 -1.8770  2.6609
  185MOL    H1448222   1.415   6.043   3.591  1.4222 -2.9209  1.1587
  185MOL    C1548223   1.177   6.198   3.752  0.5497  0.5857 -0.5278
  185MOL    C1648224   1.068   6.123   3.663 -1.1268  0.0878  0.7230
  185MOL    O1748225   1.045   6.204   3.546 -0.0195  0.5152 -0.1445
  185MOL    C1848226   0.999   6.141   3.427 -0.4487 -0.3670 -0.0375
  185MOL    C1948227   1.115   6.132   3.323 -0.0738  0.7550 -0.3369
  185MOL    H2048228   1.138   6.296   3.779 -2.8848 -1.2117  1.3242
  185MOL    H2148229   1.189   6.139   3.843 -3.0828 -0.6793 -0.7842
  185MOL    H2248230   1.115   6.036   3.618 -0.0654  1.1786 -0.3347
  185MOL    H2348231   0.923   6.206   3.383 -0.4215 -0.5712 -0.3925
  185MOL    H2448232   0.952   6.046   3.452 -0.8722  0.2573  1.5847
  185MOL    H2548233   1.141   6.228   3.279  0.3517 -0.2535 -2.3436
  185MOL    H2648234   1.063   6.081   3.242  0.6653 -2.2245  1.0146
  185MOL    H2748235   1.191   6.065   3.361 -0.8193 -0.0339 -0.2195
  185MOL    C2848236   0.937   6.105   3.744  0.1730 -0.1473 -0.2568
  185MOL    C2948237   0.925   5.977   3.824 -0.4084  0.5097 -0.1636
  185MOL    O3048238   0.855   5.878   3.749  0.1591 -0.5966  0.7368
  185MOL    C3148239   0.864   5.749   3.801 -0.0175  0.1686  0.4358
  185MOL    C3248240   0.802   5.644   3.711  0.4918 -0.0918  0.1767
  185MOL    H3348241   0.851   6.107   3.677  0.2952 -1.4295 -0.4688
  185MOL    H3448242   0.943   6.197   3.802  1.4804  1.1869 -2.4183
  185MOL    H3548243   1.025   5.934   3.827 -0.7795 -0.2679  1.1544
  185MOL    H3648244   0.812   5.743   3.897  2.7631 -0.2168  1.9408
  185MOL    H3748245   0.969   5.737   3.827 -0.3965 -0.5493  1.6687
  185MOL    H3848246   0.696   5.664   3.693  0.7070  0.8879 -0.0157
  185MOL    H3948247   0.845   5.645   3.611  1.1806 -0.3425  0.4714
  185MOL    H4048248   0.803   5.546   3.759 -1.0355  0.1395  0.7167
  185MOL    C4148249   0.868   6.013   3.968 -0.6918 -0.8285  0.1890
  185MOL    C4248250   0.721   6.052   3.964 -0.3084 -0.1313  0.5375
  185MOL    O4348251   0.698   6.183   3.902 -0.3690 -0.7288  0.0120
  185MOL    C4448252   0.574   6.182   3.835  0.2499 -0.4505 -0.1317
  185MOL    C4548253   0.527   6.321   3.797  0.1561  0.7710 -0.0070
  185MOL    H4648254   0.925   6.096   4.011 -0.7044  0.0124 -1.4006
  185MOL    H4748255   0.883   5.932   4.040  2.2384  0.8396  1.5220
  185MOL    H4848256   0.673   5.973   3.906 -1.5656  1.0803 -0.0806
  185MOL    H4948257   0.500   6.140   3.903 -0.1892 -0.5295 -0.6618
  185MOL    H5048258   0.583   6.124   3.743  3.0217 -0.4238  0.0779
  185MOL    H5148259   0.605   6.371   3.741  2.0959 -3.0393 -0.8825
  185MOL    H5248260   0.434   6.318   3.740  0.1029  1.6832  0.0208
  185MOL    H5348261   0.495   6.377   3.885 -2.7607  2.2104 -1.9128
  185MOL    C5448262   0.651   6.060   4.110  0.5981 -0.0144  0.6191
  185MOL    C5548263   0.639   5.920   4.184 -0.5614 -0.2935 -0.3214
  185MOL    O5648264   0.559   5.839   4.100 -0.3988  0.0560  0.0931
  185MOL    C5748265   0.596   5.703   4.115 -0.4967 -0.0573  0.0721
  185MOL    C5848266   0.528   5.636   3.999 -0.8484 -0.0409  0.6475
  185MOL    H5948267   0.556   6.113   4.112  0.9979  0.8673 -1.8520
  185MOL    H6048268   0.718   6.116   4.176  0.7209 -0.2134  0.6610
  185MOL    H6148269   0.732   5.867   4.202  0.9776  2.4513 -0.0302
  185MOL    H6248270   0.573   5.674   4.218  0.4224 -1.6962 -0.1669
  185MOL    H6348271   0.703   5.685   4.105 -0.0782  1.0694  2.1710
  185MOL    H6448272   0.423   5.665   4.009 -0.5915  0.9734  0.3872
  185MOL    H6548273   0.555   5.665   3.898 -1.5760  1.2058  0.8074
  185MOL    H6648274   0.538   5.527   4.005 -1.7356 -0.1080  1.0041
  185MOL    C6748275   0.576   5.917   4.326 -0.1070  0.1498 -0.1710
  185MOL    C6848276   0.659   6.008   4.420 -0.4135  0.0310  0.3451
  185MOL    O6948277   0.793   5.962   4.422  0.6251 -0.3768 -0.0093
  185MOL    C7048278   0.888   6.070   4.446 -0.3522 -0.2741  0.6368
  185MOL    C7148279   1.028   6.015   4.415  0.1294  0.2195 -1.2670
  185MOL    H7248280   0.583   5.815   4.362 -2.0232 -0.9646 -2.7933
  185MOL    H7348281   0.473   5.952   4.316 -0.4825 -1.0546 -0.6293
  185MOL    H7448282   0.652   6.111   4.385  0.5211  0.5524  1.6898
  185MOL    H7548283   0.892   6.114   4.546  2.1168  0.5440  0.2200
  185MOL    H7648284   0.866   6.146   4.372 -0.5702 -1.3695 -0.4304
  185MOL    H7748285   1.110   6.075   4.453  1.8998 -2.3431 -0.9322
  185MOL    H7848286   1.045   5.917   4.461  0.9767  1.7065  1.7494
  185MOL    H7948287   1.050   6.002   4.309  1.5329 -1.1435 -0.8247
  185MOL    C8048288   0.624   5.988   4.567 -0.0911  0.1926  0.2477
  185MOL    C8148289   0.481   6.032   4.605  1.1037 -0.2705 -0.0729
  185MOL    O8248290   0.467   6.170   4.571 -0.7191 -0.4339 -0.3793
  185MOL    C8348291   0.332   6.225   4.564  0.0951  0.2900 -0.3537
  185MOL    C8448292   0.335   6.374   4.534 -0.3314 -0.1818  0.3288
  185MOL    H8548293   0.698   6.038   4.629  0.3843  0.9590 -0.9281
  185MOL    H8648294   0.628   5.881   4.588 -2.1035 -0.2957 -1.6659
  185MOL    H8748295   0.423   5.975   4.533 -0.0802  3.2626 -2.0522
  185MOL    H8848296   0.275   6.220   4.657 -0.0217  0.4326 -0.4183
  185MOL    H8948297   0.274   6.175   4.486  0.4102 -2.4993  1.1131
  185MOL    H9048298   0.234   6.414   4.530  0.3333  1.5959  0.4800
  185MOL    H9148299   0.388   6.437   4.606 -0.4848 -1.0851  1.2360
  185MOL    H9248300   0.400   6.393   4.448  0.2345  1.0912  1.0107
  185MOL    C9348301   0.443   6.011   4.756  0.5502 -0.0910 -0.1064
  185MOL    C9448302   0.534   6.082   4.866 -0.3827 -0.0119  0.7819
  185MOL    O9548303   0.524   6.003   4.986  0.0709  0.1355 -0.0513
  185MOL    C9648304   0.646   5.946   5.041 -0.0702 -0.4454 -0.3816
  185MOL    C9748305   0.619   5.832   5.132 -0.0322  0.0704  0.4472
  185MOL    H9848306   0.443   5.903   4.776 -0.5915 -0.3630 -1.5269
  185MOL    H9948307   0.341   6.036   4.785 -0.5824 -1.8962 -2.3447
  185MOL   H10048308   0.633   6.100   4.824 -0.0446 -0.3109  1.4536
  185MOL   H10148309   0.693   6.031   5.090  0.3864 -0.0852 -1.4201
  185MOL   H10248310   0.707   5.922   4.954 -0.9877  0.2578 -1.2336
  185MOL   H10348311   0.701   5.769   5.165 -1.0200 -0.4563  1.9725
  185MOL   H10448312   0.580   5.862   5.229 -1.0603 -1.6873  0.6037
  185MOL   H10548313   0.546   5.766   5.085 -1.0568  1.1202  0.5263
  185MOL   C10648314   0.477   6.221   4.902  0.6434  0.4502 -0.3011
  185MOL   C10748315   0.554   6.289   5.021 -0.4452 -0.5699 -0.3771
  185MOL   O10848316   0.471   6.398   5.065  0.4323 -0.0311  0.7226
  185MOL   C10948317   0.426   6.390   5.207 -0.4928  0.7327  0.3705
  185MOL   C11048318   0.324   6.279   5.228 -0.7848 -0.1675  0.1100
  185MOL   H11148319   0.375   6.201   4.935  0.7510  2.4140  1.2928
  185MOL   H11248320   0.465   6.286   4.815 -1.6093  2.0481  1.1488
  185MOL   H11348321   0.580   6.224   5.105  0.1664  1.5971  1.1574
  185MOL   H11448322   0.374   6.480   5.238  0.3347  0.4482  2.6851
  185MOL   H11548323   0.507   6.382   5.280  0.8891  0.3686 -1.1697
  185MOL   H11648324   0.283   6.293   5.328 -1.7783  1.6235 -0.5280
  185MOL   H11748325   0.237   6.313   5.173  0.9818  2.0834 -1.3931
  185MOL   H11848326   0.362   6.180   5.204  0.7595 -0.3532  3.0117
  185MOL   C11948327   0.678   6.358   4.965 -0.1014  0.3444 -0.3703
  185MOL   C12048328   0.741   6.462   5.058  0.1623 -0.7280  0.2945
  185MOL   O12148329   0.842   6.510   4.973  0.2117 -0.4071  0.3348
  185MOL   C12248330   0.869   6.649   4.988  0.2810  0.6874  0.0839
  185MOL   C12348331   0.942   6.713   4.875  0.5292  0.4167 -0.1279
  185MOL   H12448332   0.658   6.410   4.871  1.3287  1.4859 -0.0626
  185MOL   H12548333   0.758   6.285   4.953 -1.2263 -0.9809  0.0077
  185MOL   H12648334   0.668   6.535   5.095 -0.8071 -1.1291 -0.7803
  185MOL   H12748335   0.930   6.655   5.077 -0.9221  0.0982  0.9653
  185MOL   H12848336   0.781   6.710   5.009 -1.4471 -1.3879 -0.8668
  185MOL   H12948337   1.035   6.661   4.854  0.3152 -0.9593  2.1556
  185MOL   H13048338   0.884   6.698   4.784  1.5499  1.9636 -1.0616
  185MOL   H13148339   0.969   6.817   4.898 -0.8606  0.4907  1.2565
  185MOL   C13248340   0.801   6.394   5.177  0.3797  0.1629 -0.7106
  185MOL   C13348341   0.801   6.476   5.309  0.3798 -0.0773 -0.1768
  185MOL   O13448342   0.834   6.612   5.283 -0.0112  0.3794 -0.0720
  185MOL   C13548343   0.771   6.709   5.363 -0.0708 -0.1410 -0.4831
  185MOL   C13648344   0.802   6.851   5.299  0.8233  0.3045 -0.2395
  185MOL   H13748345   0.906   6.364   5.169  0.1894 -1.4437  2.3035
  185MOL   H13848346   0.739   6.309   5.203  2.9689 -0.8304  2.6050
  185MOL   H13948347   0.702   6.488   5.353 -0.2184  1.2380 -1.8237
  185MOL   H14048348   0.814   6.710   5.463 -0.1020 -1.6762 -0.4512
  185MOL   H14148349   0.662   6.697   5.367 -0.0658  0.4142  2.1087
  185MOL   H14248350   0.903   6.885   5.325  0.5126  1.4629 -0.5470
  185MOL   H14348351   0.782   6.858   5.192  0.2706 -2.3431 -0.3584
  185MOL   H14448352   0.734   6.925   5.339 -1.4946 -2.0853  0.4133
  185MOL   C14548353   0.879   6.410   5.424 -0.3306 -0.0719  0.0151
  185MOL   C14648354   0.821   6.279   5.475  0.2466 -0.1595  0.4525
  185MOL   O14748355   0.694   6.312   5.529  0.3299 -0.2451  0.0806
  185MOL   C14848356   0.604   6.205   5.543  0.1702  0.7599 -0.8232
  185MOL   C14948357   0.465   6.253   5.590  0.3027 -0.6274 -0.7106
  185MOL   H15048358   0.901   6.479   5.506  0.0166  1.7089 -1.5280
  185MOL   H15148359   0.981   6.385   5.396 -0.0120  1.0601  0.1448
  185MOL   H15248360   0.806   6.212   5.390  1.2155  0.1319  0.0510
  185MOL   H15348361   0.637   6.117   5.599  1.3004  1.2231 -0.7488
  185MOL   H15448362   0.574   6.177   5.442  1.3076 -1.8292 -0.4880
  185MOL   H15548363   0.473   6.287   5.693 -1.0347 -1.3546 -0.3457
  185MOL   H15648364   0.435   6.334   5.524 -1.7692 -1.4336 -0.8196
  185MOL   H15748365   0.391   6.175   5.570 -0.0375  0.3225 -3.2552
  185MOL   C15848366   0.903   6.220   5.588  0.9580  0.1415  0.2587
  185MOL   C15948367   1.031   6.153   5.536  0.0080 -0.2675  0.2972
  185MOL   O16048368   0.985   6.026   5.491  0.1348  0.5565 -0.1204
  185MOL   C16148369   1.027   5.994   5.356  0.2842 -0.1400 -0.1323
  185MOL   C16248370   0.960   5.875   5.292 -0.2845  0.0878  0.0180
  185MOL   H16348371   0.848   6.140   5.638 -0.0885  0.6351 -0.0778
  185MOL   H16448372   0.929   6.289   5.669  1.4622 -1.2264  1.2848
  185MOL   H16548373   1.066   6.219   5.458 -1.4826 -0.2378 -0.3698
  185MOL   H16648374   1.136   6.001   5.348  0.4385 -1.0669  0.9754
  185MOL   H16748375   0.991   6.074   5.292  0.1258 -1.3996 -1.6434
  185MOL   H16848376   0.852   5.880   5.288 -0.3740 -1.4625  0.5350
  185MOL   H16948377   0.976   5.846   5.188 -4.0680 -1.2053 -0.2448
  185MOL   H17048378   0.985   5.788   5.352  3.4817 -0.5017 -2.1901
  185MOL   C17148379   1.142   6.127   5.641 -0.0899 -0.2386  0.0127
  185MOL   C17248380   1.224   6.249   5.683 -0.1536 -0.2054  0.1413
  185MOL   O17348381   1.365   6.223   5.698  0.0098 -0.4548  0.2742
  185MOL   C17448382   1.440   6.223   5.577 -0.3397  0.2763  0.2001
  185MOL   C17548383   1.551   6.112   5.582  0.0608 -0.3823  0.2497
  185MOL   H17648384   1.200   6.057   5.581 -0.4231  2.5031 -3.6648
  185MOL   H17748385   1.095   6.077   5.726 -0.7190  0.8338  0.3078
  185MOL   H17848386   1.211   6.327   5.608 -0.8963  0.3388  0.8259
  185MOL   H17948387   1.476   6.325   5.567 -2.7321  1.1255 -0.0721
  185MOL   H18048388   1.383   6.201   5.486  1.2849  1.6025 -1.1684
  185MOL   H18148389   1.590   6.096   5.482  1.9196 -0.7753  1.0232
  185MOL   H18248390   1.641   6.144   5.634  1.0612  0.9517 -2.2451
  185MOL   H18348391   1.506   6.024   5.628 -4.2797  1.9813  0.8187
  185MOL   C18448392   1.180   6.302   5.821 -0.7046 -0.7259  0.5014
  185MOL   C18548393   1.231   6.443   5.849  0.2476 -1.0820 -1.6194
  185MOL   O18648394   1.354   6.435   5.924  0.1767  0.1506 -0.4396
  185MOL   C18748395   1.468   6.491   5.861 -0.4870 -0.3239  0.3243
  185MOL   C18848396   1.591   6.463   5.949 -0.5223  0.4060 -0.1148
  185MOL   H18948397   1.229   6.255   5.906 -0.0151  0.9792  1.0555
  185MOL   H19048398   1.072   6.291   5.832 -0.7908 -2.3447 -1.6490
  185MOL   H19148399   1.247   6.487   5.750  1.6628  0.5233 -0.7058
  185MOL   H19248400   1.439   6.596   5.851  0.2880 -0.1678 -0.3947
  185MOL   H19348401   1.498   6.448   5.765 -0.2142  1.8160 -0.5807
  185MOL   H19448402   1.580   6.486   6.055 -0.5338 -0.0971 -0.0091
  185MOL   H19548403   1.617   6.358   5.936  0.2988  0.5318  0.5057
  185MOL   H19648404   1.681   6.515   5.914 -0.8111 -0.0774 -1.5932
  185MOL   C19748405   1.141   6.534   5.939  0.6348 -0.7632  0.0216
  185MOL   C19848406   1.006   6.587   5.886  0.8043  0.7769  0.2532
  185MOL   O19948407   0.913   6.477   5.881  0.3118  0.3303  0.6474
  185MOL   C20048408   0.790   6.508   5.942  0.9119  0.2213  0.6688
  185MOL   C20148409   0.694   6.386   5.917  1.0437  0.7246 -0.0887
  185MOL   H20248410   1.201   6.624   5.952 -0.3059  0.2010 -2.0932
  185MOL   H20348411   1.133   6.479   6.033  1.1786 -1.3384 -0.2610
  185MOL   H20448412   0.974   6.661   5.960  1.3153  1.4175 -0.1693
  185MOL   H20548413   0.746   6.598   5.899  0.9585 -0.9712 -1.9698
  185MOL   H20648414   0.807   6.525   6.048 -1.2309 -1.0799  1.2518
  185MOL   H20748415   0.732   6.288   5.944 -1.0636 -0.1541 -0.2330
  185MOL   H20848416   0.594   6.397   5.960  0.7299  1.8441 -1.0918
  185MOL   H20948417   0.683   6.377   5.809  1.9573 -0.0106 -0.1226
  185MOL   C21048418   1.007   6.643   5.739  0.6198 -0.1043  0.7008
  185MOL   C21148419   1.065   6.782   5.713 -0.3688  0.1285  0.1837
  185MOL   O21248420   1.208   6.771   5.707 -0.3856 -0.1061 -0.6228
  185MOL   C21348421   1.264   6.776   5.576  0.4672  0.2578  0.0221
  185MOL   C21448422   1.417   6.765   5.598 -0.5113  0.0838  0.2528
  185MOL   H21548423   0.903   6.644   5.708  0.5303  1.4696  0.9856
  185MOL   H21648424   1.051   6.576   5.665 -2.5601  1.3987 -2.6867
  185MOL   H21748425   1.024   6.798   5.613  0.5638 -0.4793 -0.3044
  185MOL   H21848426   1.229   6.869   5.530 -1.6507 -1.7402 -2.5775
  185MOL   H21948427   1.243   6.688   5.515  2.2269 -1.1274  1.3764
  185MOL   H22048428   1.437   6.666   5.639 -3.1105 -0.4916  0.2227
  185MOL   H22148429   1.464   6.775   5.500 -1.5082  0.1991 -0.2191
  185MOL   H22248430   1.452   6.848   5.660 -1.8429  1.6763 -1.1040
  185MOL   C22348431   1.017   6.892   5.809 -0.4379  0.0435 -0.0058
  185MOL   C22448432   1.048   7.042   5.759  0.1297  0.6714 -0.2420
  185MOL   O22548433   0.983   7.133   5.851 -0.1706 -0.1279  0.1888
  185MOL   C22648434   1.070   7.175   5.964  0.0368  0.5480 -0.4228
  185MOL   C22748435   0.983   7.239   6.077 -0.3438  0.2116  0.9675
  185MOL   H22848436   1.049   6.877   5.913  0.2711  1.2524 -0.0309
  185MOL   H22948437   0.909   6.891   5.825 -0.1098 -1.0269  2.3803
  185MOL   H23048438   1.157   7.047   5.756  0.1188  2.4643  1.6034
  185MOL   H23148439   1.141   7.250   5.929  1.5144 -0.1805  0.9477
  185MOL   H23248440   1.125   7.089   6.002 -0.6572  0.1163 -0.3665
  185MOL   H23348441   0.910   7.168   6.116  0.7116 -1.9262 -0.8289
  185MOL   H23448442   1.040   7.270   6.165  1.0647 -1.1834  0.5606
  185MOL   H23548443   0.934   7.329   6.039 -0.8594 -0.9138 -1.0779
  185MOL   C23648444   0.992   7.092   5.619  0.0998  0.4581 -0.3632
  185MOL   C23748445   1.052   7.222   5.568  0.6440  0.0819  0.2001
  185MOL   O23848446   1.016   7.229   5.429 -0.5129 -0.0101  0.0255
  185MOL   C23948447   0.885   7.282   5.404 -0.1272 -0.6380 -0.0001
  185MOL   C24048448   0.865   7.321   5.253 -0.2256 -0.1222 -0.0015
  185MOL   H24148449   0.884   7.086   5.621  0.1795 -1.2043 -0.1737
  185MOL   H24248450   1.030   7.013   5.554 -1.7438 -1.2485  0.5957
  185MOL   H24348451   1.014   7.310   5.620 -1.0376  0.7809 -2.1501
  185MOL   H24448452   0.871   7.371   5.465  0.3694  0.8939 -2.0434
  185MOL   H24548453   0.804   7.214   5.430 -0.8088  0.6269  1.2702
  185MOL   H24648454   0.911   7.418   5.235  0.0175  0.4548  3.4241
  185MOL   H24748455   0.911   7.254   5.180  1.6047 -0.7129  1.6607
  185MOL   H24848456   0.760   7.346   5.238  0.2385  0.5907 -2.2283
  185MOL   C24948457   1.212   7.226   5.564 -0.4412  0.1781  0.1274
  185MOL   C25048458   1.265   7.356   5.493  0.1055 -0.8302 -0.0127
  185MOL   O25148459   1.406   7.359   5.495 -0.0254  0.0931  0.3907
  185MOL   C25248460   1.460   7.487   5.446  0.4762 -0.3857  0.1518
  185MOL   C25348461   1.611   7.471   5.460  0.2935 -0.1573 -0.4257
  185MOL   H25448462   1.251   7.143   5.505 -0.3223  0.6049 -0.4029
  185MOL   H25548463   1.254   7.221   5.664 -0.2880 -1.9177 -0.0360
  185MOL   H25648464   1.223   7.375   5.394  0.5406  2.1316  0.3066
  185MOL   H25748465   1.424   7.564   5.513  0.6842 -0.4825  0.3753
  185MOL   H25848466   1.433   7.506   5.342  1.0591  0.4074  0.1380
  185MOL   H25948467   1.645   7.571   5.432 -0.8610  0.4377  0.2418
  185MOL   H26048468   1.641   7.433   5.558  0.2177  1.5130  0.2703
  185MOL   H26148469   1.656   7.411   5.382  1.2219 -1.0695  0.7981
  185MOL   H26248470   1.232   7.444   5.549 -2.9278 -1.7817 -0.2340
  186MOL     C148471   4.601   6.634   3.763 -0.5570 -0.5446  0.2837
  186MOL     C248472   4.730   6.681   3.698  0.3250 -0.6243  0.2567
  186MOL     O348473   4.813   6.679   3.810  0.6849  0.1969  0.4865
  186MOL     C448474   4.955   6.697   3.778  0.0604  1.3144  0.5873
  186MOL     C548475   5.030   6.736   3.898  0.0019 -0.5240 -0.0936
  186MOL     H648476   4.624   6.546   3.823  1.7421 -0.9021 -1.0879
  186MOL     H748477   4.559   6.709   3.831  0.7729  1.5938 -1.1865
  186MOL     H848478   4.765   6.608   3.625 -0.8561 -0.2179 -0.7350
  186MOL     H948479   4.981   6.767   3.698  1.1697  1.9404  1.4814
  186MOL    H1048480   4.989   6.602   3.736 -0.0422  1.6686 -0.3183
  186MOL    H1148481   4.992   6.828   3.944  1.1304 -0.3339  0.5085
  186MOL    H1248482   5.031   6.649   3.963 -0.3644  0.3387  1.0901
  186MOL    H1348483   5.133   6.762   3.874 -0.1800  0.3875  0.0706
  186MOL    H1448484   4.529   6.605   3.686 -1.0481 -0.5322  0.7277
  186MOL    C1548485   4.706   6.824   3.644  0.0597 -0.0486 -0.0910
  186MOL    C1648486   4.663   6.837   3.498  0.0613 -0.2889  0.3205
  186MOL    O1748487   4.544   6.763   3.494  0.4292  0.4253  0.2397
  186MOL    C1848488   4.429   6.838   3.524 -0.2650 -0.1628 -0.2681
  186MOL    C1948489   4.299   6.782   3.463 -0.4225  0.4470 -0.3321
  186MOL    H2048490   4.790   6.891   3.656  1.4653 -1.9899  1.2553
  186MOL    H2148491   4.633   6.871   3.710 -1.4187 -0.9271 -1.0477
  186MOL    H2248492   4.645   6.942   3.478 -1.7776 -0.6311  0.0713
  186MOL    H2348493   4.426   6.945   3.501 -0.7699 -0.0384  0.3665
  186MOL    H2448494   4.416   6.836   3.633 -0.7253 -0.3439 -0.3259
  186MOL    H2548495   4.231   6.868   3.458  0.8832  1.3905 -2.9679
  186MOL    H2648496   4.253   6.708   3.528  1.0524 -1.0275 -0.9376
  186MOL    H2748497   4.304   6.740   3.363  0.3694  0.1415 -0.1630
  186MOL    C2848498   4.753   6.779   3.389 -0.1310  0.1788  0.2431
  186MOL    C2948499   4.886   6.856   3.375 -0.1491 -0.0531  0.0866
  186MOL    O3048500   4.848   6.996   3.370 -0.7244  0.5617 -0.2123
  186MOL    C3148501   4.945   7.099   3.383 -0.5405 -0.9985  0.3846
  186MOL    C3248502   4.868   7.219   3.434  0.3461 -0.3336  0.2787
  186MOL    H3348503   4.699   6.790   3.295  2.0348 -3.0093 -1.4629
  186MOL    H3448504   4.771   6.672   3.393  2.2075  0.5551  0.5897
  186MOL    H3548505   4.951   6.835   3.460 -0.9134 -1.4447  0.3468
  186MOL    H3648506   4.983   7.115   3.282  2.5405 -0.0814  1.6067
  186MOL    H3748507   5.024   7.071   3.453  0.0622  0.0402  0.1267
  186MOL    H3848508   4.939   7.297   3.461  0.9191 -1.0262  0.7913
  186MOL    H3948509   4.803   7.256   3.355  0.6916 -0.8369 -0.2502
  186MOL    H4048510   4.819   7.190   3.527  1.0378 -0.9066  0.4726
  186MOL    C4148511   4.966   6.826   3.242  0.4807 -0.0285  0.7162
  186MOL    C4248512   5.113   6.786   3.267 -0.3151  0.7311  0.0863
  186MOL    O4348513   5.166   6.865   3.368  0.9095  0.6880  0.9003
  186MOL    C4448514   5.289   6.831   3.426  0.1560  0.2367  0.3509
  186MOL    C4548515   5.321   6.940   3.531 -0.2141  0.6085  0.1201
  186MOL    H4648516   4.948   6.897   3.161 -0.9875 -0.8457  0.3005
  186MOL    H4748517   4.914   6.736   3.208  0.2550 -0.5119  2.2962
  186MOL    H4848518   5.125   6.687   3.312  0.1286  0.5775 -0.3670
  186MOL    H4948519   5.379   6.835   3.365 -1.1383 -1.2288 -1.6910
  186MOL    H5048520   5.296   6.736   3.479  0.9525  0.3320  0.4291
  186MOL    H5148521   5.246   6.935   3.609  1.0591 -0.8546  1.2820
  186MOL    H5248522   5.417   6.923   3.582 -0.8743 -0.6326  0.9709
  186MOL    H5348523   5.321   7.038   3.483  1.6205  0.8578  0.5862
  186MOL    C5448524   5.205   6.791   3.144  0.5372 -0.4064  0.2962
  186MOL    C5548525   5.202   6.673   3.046  0.2789 -0.1875 -0.7313
  186MOL    O5648526   5.297   6.712   2.951 -0.5884  0.2204 -0.4699
  186MOL    C5748527   5.431   6.665   2.966 -0.9010  0.2684 -0.3333
  186MOL    C5848528   5.508   6.691   2.841 -0.4826  0.1081 -0.3224
  186MOL    H5948529   5.312   6.806   3.160  0.7158 -1.3008 -0.0477
  186MOL    H6048530   5.182   6.884   3.091 -0.6348  1.0796  3.2658
  186MOL    H6148531   5.230   6.587   3.106  0.9425  1.0807  0.8160
  186MOL    H6248532   5.431   6.556   2.967  0.5368  0.2612  0.3335
  186MOL    H6348533   5.481   6.703   3.055  0.1434 -0.0892 -0.7619
  186MOL    H6448534   5.601   6.635   2.836  0.3378  1.3716  0.6780
  186MOL    H6548535   5.442   6.676   2.754 -0.6028 -2.8084  0.2159
  186MOL    H6648536   5.540   6.795   2.844  1.0601 -0.3939  1.4816
  186MOL    C6748537   5.064   6.635   2.972 -0.2791 -0.9685 -0.5688
  186MOL    C6848538   5.070   6.541   2.847  0.0250 -0.1916 -1.1360
  186MOL    O6948539   4.940   6.539   2.785 -0.3622  0.2539 -0.5876
  186MOL    C7048540   4.928   6.633   2.679  0.5893  0.2940  0.1685
  186MOL    C7148541   4.786   6.632   2.633  0.0508  0.5363  0.4625
  186MOL    H7248542   5.015   6.728   2.944  0.1585 -0.3743  0.6316
  186MOL    H7348543   4.988   6.596   3.039 -1.2246 -0.8904 -1.5848
  186MOL    H7448544   5.145   6.594   2.788 -0.5411  0.1843 -1.5250
  186MOL    H7548545   4.991   6.614   2.592 -0.9351  0.4007 -0.9783
  186MOL    H7648546   4.934   6.733   2.722  0.6253  1.7515 -3.0483
  186MOL    H7748547   4.756   6.540   2.581 -0.9551  1.3002 -0.3180
  186MOL    H7848548   4.708   6.667   2.700 -0.6700  2.6234 -1.4106
  186MOL    H7948549   4.780   6.698   2.547 -1.2852  2.0136  1.6663
  186MOL    C8048550   5.111   6.402   2.883 -0.5868 -0.3837  0.3419
  186MOL    C8148551   5.155   6.315   2.770  0.6197  0.3744  0.0762
  186MOL    O8248552   5.155   6.189   2.825 -0.3094  0.6542 -0.0908
  186MOL    C8348553   5.166   6.072   2.743 -0.5805  0.7701 -0.4285
  186MOL    C8448554   5.168   5.952   2.837  0.3912  0.1048 -0.2010
  186MOL    H8548555   5.026   6.368   2.942 -0.3728  0.6219  1.2592
  186MOL    H8648556   5.196   6.396   2.950 -1.8819  1.5774  2.2337
  186MOL    H8748557   5.081   6.316   2.690  0.6095  0.7999  0.0879
  186MOL    H8848558   5.257   6.082   2.684 -0.6851  0.7577 -0.5929
  186MOL    H8948559   5.083   6.071   2.673  0.8599  1.4458 -2.1698
  186MOL    H9048560   5.063   5.931   2.859  0.0371  1.2174 -0.7985
  186MOL    H9148561   5.187   5.863   2.777  1.7715 -0.4281  1.0004
  186MOL    H9248562   5.225   5.958   2.929 -0.7999  0.0319  0.5538
  186MOL    C9348563   5.293   6.347   2.712 -0.4921  1.0495 -0.3278
  186MOL    C9448564   5.308   6.347   2.555 -0.2901  0.3086  0.4457
  186MOL    O9548565   5.444   6.337   2.525  0.6352  0.4027  0.0939
  186MOL    C9648566   5.474   6.201   2.477 -0.7620  0.0401 -0.1030
  186MOL    C9748567   5.623   6.165   2.470 -0.4377  0.1883 -0.1788
  186MOL    H9848568   5.370   6.285   2.757 -1.9349  0.2586  1.1486
  186MOL    H9948569   5.313   6.450   2.742  2.4111  0.4711 -0.2080
  186MOL   H10048570   5.252   6.263   2.514  0.1317  0.1093  0.2789
  186MOL   H10148571   5.414   6.174   2.390 -0.9941 -0.8042  0.3145
  186MOL   H10248572   5.416   6.132   2.538  1.1972 -0.5655  1.1240
  186MOL   H10348573   5.640   6.080   2.404 -0.4100  1.4308 -1.8024
  186MOL   H10448574   5.683   6.244   2.426  0.5232  0.5964  1.8392
  186MOL   H10548575   5.660   6.140   2.569 -0.2066 -1.2315 -0.6086
  186MOL   C10648576   5.252   6.479   2.499 -0.0331  0.0004 -0.3995
  186MOL   C10748577   5.249   6.479   2.341 -0.3117  0.1638 -0.1921
  186MOL   O10848578   5.251   6.617   2.299  0.4800 -0.3302  0.3086
  186MOL   C10948579   5.343   6.655   2.197 -0.2603 -0.4039 -0.4307
  186MOL   C11048580   5.334   6.819   2.176  0.0305  0.4146  0.5123
  186MOL   H11148581   5.317   6.561   2.529  0.7245  0.4131 -3.0370
  186MOL   H11248582   5.154   6.497   2.542 -0.4972 -0.3325 -1.3008
  186MOL   H11348583   5.338   6.435   2.294  0.3844  1.8087 -0.4322
  186MOL   H11448584   5.320   6.596   2.108  1.0136  1.1537 -1.8210
  186MOL   H11548585   5.442   6.626   2.231 -0.3470 -0.4021 -0.1719
  186MOL   H11648586   5.409   6.851   2.104 -2.3637  0.2994 -2.1362
  186MOL   H11748587   5.235   6.851   2.142  1.3470  3.4746 -0.5584
  186MOL   H11848588   5.346   6.869   2.272  0.5668 -0.4861  0.9174
  186MOL   C11948589   5.127   6.406   2.270  0.7029  0.1838 -0.1457
  186MOL   C12048590   4.988   6.463   2.297  0.1994 -0.3562  0.1753
  186MOL   O12148591   4.895   6.352   2.329 -0.1310 -0.2626 -0.7328
  186MOL   C12248592   4.877   6.314   2.460 -0.2922 -0.3333 -0.6250
  186MOL   C12348593   4.897   6.162   2.477 -0.5993 -0.1651  0.2594
  186MOL   H12448594   5.127   6.299   2.293 -3.2376  0.3276  0.9668
  186MOL   H12548595   5.142   6.406   2.162 -1.0544 -0.8216 -0.4203
  186MOL   H12648596   4.987   6.533   2.380 -0.2953  0.0736 -0.1910
  186MOL   H12748597   4.777   6.344   2.491  0.1973 -1.2732  1.9541
  186MOL   H12848598   4.947   6.361   2.529 -0.9347  0.2632 -0.3688
  186MOL   H12948599   4.999   6.127   2.460 -1.0723 -0.3816 -2.3006
  186MOL   H13048600   4.869   6.130   2.578  0.0219  0.4268  0.6205
  186MOL   H13148601   4.831   6.112   2.407 -0.0233 -0.0487 -0.3659
  186MOL   C13248602   4.927   6.540   2.183 -0.4991 -0.1194  0.2359
  186MOL   C13348603   4.803   6.628   2.212  0.5405  0.1839  0.1422
  186MOL   O13448604   4.837   6.724   2.307 -0.2771 -0.4798  0.1632
  186MOL   C13548605   4.866   6.856   2.259 -0.1703  0.3356  0.1129
  186MOL   C13648606   4.970   6.921   2.353  0.3619 -0.3191  0.0192
  186MOL   H13748607   4.894   6.472   2.105 -2.2785  0.2600  0.6362
  186MOL   H13848608   5.003   6.604   2.138 -1.8388  0.1094 -1.7531
  186MOL   H13948609   4.780   6.685   2.122 -1.4752  0.8920  1.0857
  186MOL   H14048610   4.774   6.914   2.251  0.3646  1.4592  1.8573
  186MOL   H14148611   4.912   6.841   2.161  2.0552  2.2858  0.8030
  186MOL   H14248612   4.986   7.021   2.313 -0.5179 -1.1944 -2.6377
  186MOL   H14348613   4.919   6.928   2.449  0.0865  1.2151 -0.2239
  186MOL   H14448614   5.055   6.854   2.344  2.0135  1.8913 -0.9859
  186MOL   C14548615   4.690   6.544   2.265  0.1431  0.5694 -0.1769
  186MOL   C14648616   4.547   6.605   2.264  0.4085  0.7466 -0.2151
  186MOL   O14748617   4.456   6.504   2.320  0.3827 -0.0005 -0.2811
  186MOL   C14848618   4.425   6.521   2.452 -0.6084 -0.6325  0.0363
  186MOL   C14948619   4.297   6.449   2.496  0.0253 -0.0892  0.4044
  186MOL   H15048620   4.705   6.533   2.372 -1.9375  0.5486  0.1210
  186MOL   H15148621   4.679   6.450   2.210 -1.9403  2.0381 -2.3888
  186MOL   H15248622   4.546   6.684   2.339 -0.3749 -1.2928  1.9993
  186MOL   H15348623   4.409   6.623   2.487  2.2458 -0.4405  0.8915
  186MOL   H15448624   4.517   6.494   2.503  2.2875  3.2160 -2.8845
  186MOL   H15548625   4.212   6.513   2.472  2.0833  3.1493  1.4848
  186MOL   H15648626   4.293   6.345   2.464 -1.9225 -0.3470  1.4217
  186MOL   H15748627   4.290   6.430   2.603 -3.2802 -0.8195  0.1294
  186MOL   C15848628   4.499   6.655   2.123 -0.1600 -0.1184 -0.2085
  186MOL   C15948629   4.360   6.719   2.115 -0.0837 -0.4372  0.1882
  186MOL   O16048630   4.349   6.831   2.206 -0.2140 -0.0655  0.0303
  186MOL   C16148631   4.402   6.944   2.143 -1.0963  0.1619  0.0333
  186MOL   C16248632   4.375   7.074   2.220  0.0690 -0.2894  0.5597
  186MOL   H16348633   4.514   6.574   2.050  2.0891 -0.2859  0.3828
  186MOL   H16448634   4.577   6.720   2.084  1.2992 -1.1221  0.9665
  186MOL   H16548635   4.338   6.741   2.011 -0.4975  0.4068  0.4448
  186MOL   H16648636   4.362   6.954   2.042  2.1655 -0.9385 -1.4238
  186MOL   H16748637   4.511   6.936   2.142 -0.9972  1.2222  0.7329
  186MOL   H16848638   4.428   7.069   2.315  1.5690 -0.7961 -0.2836
  186MOL   H16948639   4.412   7.160   2.164 -2.2798  0.8090  0.6428
  186MOL   H17048640   4.269   7.089   2.235  0.0494  1.5587 -1.2363
  186MOL   C17148641   4.241   6.631   2.162 -0.2233  0.2636  0.3131
  186MOL   C17248642   4.100   6.688   2.132  0.6037  0.1915 -0.7760
  186MOL   O17348643   4.016   6.602   2.211 -0.1642  0.0825  0.0074
  186MOL   C17448644   3.881   6.650   2.230 -0.1198  0.2813  0.4590
  186MOL   C17548645   3.825   6.580   2.351 -0.4699  0.2820  0.4277
  186MOL   H17648646   4.264   6.629   2.268 -2.3468 -2.1983  0.7843
  186MOL   H17748647   4.256   6.529   2.126  1.4046  0.6862 -0.2710
  186MOL   H17848648   4.097   6.785   2.181 -0.0259  0.1526 -0.7324
  186MOL   H17948649   3.825   6.623   2.141 -0.2670 -2.3854  1.3221
  186MOL   H18048650   3.880   6.757   2.251 -2.5485  0.3788 -0.0073
  186MOL   H18148651   3.731   6.628   2.377 -1.4196 -0.0941 -2.1805
  186MOL   H18248652   3.818   6.473   2.333  1.3194  0.0275  1.1004
  186MOL   H18348653   3.899   6.590   2.431  0.9452 -5.0808  0.0139
  186MOL   C18448654   4.059   6.686   1.979  0.1970  0.3629  0.0908
  186MOL   C18548655   4.074   6.827   1.912  0.1630 -0.0544 -0.0485
  186MOL   O18648656   3.978   6.906   1.983 -0.1817  0.7329 -0.6070
  186MOL   C18748657   4.011   7.043   1.991 -0.2716  0.9970  0.4546
  186MOL   C18848658   3.902   7.105   2.082  0.4107  0.2504 -0.0340
  186MOL   H18948659   3.955   6.655   1.967  0.9094 -1.9194 -0.4091
  186MOL   H19048660   4.103   6.600   1.929 -0.8519  1.1838 -2.3306
  186MOL   H19148661   4.172   6.872   1.924  0.7744 -0.8070 -2.0778
  186MOL   H19248662   4.024   7.092   1.895  0.5842 -2.5210 -1.2949
  186MOL   H19348663   4.107   7.057   2.042 -1.5309  0.2366  3.1265
  186MOL   H19448664   3.916   7.088   2.188  1.2148 -0.1891 -0.2056
  186MOL   H19548665   3.905   7.213   2.065 -2.1749  0.4055  0.3427
  186MOL   H19648666   3.805   7.078   2.041  2.1569 -1.7133 -3.0728
  186MOL   C19748667   4.045   6.832   1.764 -0.2583  0.1713  0.4974
  186MOL   C19848668   4.166   6.794   1.672 -0.2317 -0.6629  0.3933
  186MOL   O19948669   4.270   6.891   1.693 -0.4006 -0.0627 -0.1405
  186MOL   C20048670   4.400   6.836   1.672 -0.7899  0.4015  0.8484
  186MOL   C20148671   4.496   6.930   1.728  0.2408 -0.4384  0.0202
  186MOL   H20248672   4.021   6.935   1.737  2.7040  0.7376 -0.1810
  186MOL   H20348673   3.959   6.767   1.748  1.2851 -1.5764 -0.8728
  186MOL   H20448674   4.207   6.696   1.697  0.6019 -0.4325 -0.0628
  186MOL   H20548675   4.411   6.826   1.564 -0.0070  0.1692  0.9490
  186MOL   H20648676   4.415   6.739   1.719  2.5219  1.9439  3.1836
  186MOL   H20748677   4.599   6.897   1.714  0.4358 -0.4024  1.2784
  186MOL   H20848678   4.471   7.022   1.675 -1.8796 -1.3240 -0.5908
  186MOL   H20948679   4.475   6.960   1.831 -0.3239  1.7805 -0.7093
  186MOL   C21048680   4.122   6.789   1.516  0.4481  0.1997 -0.0714
  186MOL   C21148681   4.019   6.687   1.464 -0.3907  0.2703  0.0795
  186MOL   O21248682   3.888   6.735   1.490 -0.0731  0.5231  0.1475
  186MOL   C21348683   3.787   6.703   1.399 -0.4621 -0.5626 -0.0547
  186MOL   C21448684   3.705   6.831   1.362 -0.3458  0.1593 -0.4062
  186MOL   H21548685   4.219   6.772   1.470  0.5787  0.1526  0.2165
  186MOL   H21648686   4.088   6.890   1.494 -0.8090 -0.1636  0.1631
  186MOL   H21748687   4.049   6.692   1.360  2.9022 -1.2662  0.8743
  186MOL   H21848688   3.713   6.633   1.438 -2.8703  1.0040 -1.6751
  186MOL   H21948689   3.811   6.664   1.300  2.6681  0.8349  0.1073
  186MOL   H22048690   3.642   6.868   1.443 -0.9047  0.9268 -1.1836
  186MOL   H22148691   3.761   6.913   1.319  1.3153 -0.6975  0.0826
  186MOL   H22248692   3.626   6.809   1.291  2.6694 -4.2584 -2.6131
  186MOL   C22348693   4.041   6.550   1.514 -0.0134 -0.4533  0.5589
  186MOL   C22448694   4.169   6.479   1.470  0.3333  0.1511  0.4900
  186MOL   O22548695   4.162   6.475   1.328 -0.4436  0.3412  0.4141
  186MOL   C22648696   4.294   6.471   1.272  0.2396  0.1431 -0.1506
  186MOL   C22748697   4.287   6.435   1.130  0.3372  0.4629  0.0360
  186MOL   H22848698   3.961   6.488   1.474 -0.5126  0.7064 -0.2645
  186MOL   H22948699   4.028   6.535   1.622 -1.8700  2.4614  0.7946
  186MOL   H23048700   4.254   6.541   1.496 -0.1535  0.3780  1.5770
  186MOL   H23148701   4.362   6.403   1.325 -1.5457 -2.0227 -0.5586
  186MOL   H23248702   4.341   6.569   1.265 -0.6392  0.4670 -1.6826
  186MOL   H23348703   4.232   6.499   1.062 -0.0732  1.9776  1.7512
  186MOL   H23448704   4.387   6.426   1.087 -0.1287  2.0011 -1.4139
  186MOL   H23548705   4.242   6.335   1.126 -0.6905  0.8870  0.7733
  186MOL   C23648706   4.178   6.327   1.506 -0.1611 -0.1246 -0.4934
  186MOL   C23748707   4.209   6.304   1.660 -0.0967  0.0972 -0.5254
  186MOL   O23848708   4.330   6.376   1.669  0.6000  0.0237 -0.1443
  186MOL   C23948709   4.370   6.400   1.799  0.0122 -0.0961 -0.4259
  186MOL   C24048710   4.526   6.419   1.800  0.5462 -0.0560 -0.4195
  186MOL   H24148711   4.249   6.267   1.449  1.9991  0.3693  1.5816
  186MOL   H24248712   4.082   6.280   1.486 -1.1386  0.6175  2.2044
  186MOL   H24348713   4.129   6.358   1.710 -1.6490 -1.5492 -1.1505
  186MOL   H24448714   4.344   6.317   1.865 -1.3707  0.9049  0.2979
  186MOL   H24548715   4.311   6.485   1.832 -1.7411 -1.5878  0.3512
  186MOL   H24648716   4.553   6.524   1.786 -0.8630  0.3429 -0.3079
  186MOL   H24748717   4.552   6.391   1.902 -0.7587  1.1181  0.2531
  186MOL   H24848718   4.570   6.347   1.731 -1.9260  0.0202 -2.1649
  186MOL   C24948719   4.212   6.158   1.698 -0.0119 -0.2999  0.1703
  186MOL   C25048720   4.342   6.081   1.676  0.1568  0.4286 -0.3230
  186MOL   O25148721   4.328   5.955   1.742 -0.4211 -0.4495  0.2960
  186MOL   C25248722   4.447   5.889   1.751 -0.6338 -0.6309  0.0245
  186MOL   C25348723   4.451   5.790   1.869 -0.2977  0.0580 -0.1819
  186MOL   H25448724   4.128   6.114   1.643  0.9120 -3.5359  1.2448
  186MOL   H25548725   4.195   6.160   1.805 -1.2467  1.1992 -0.0189
  186MOL   H25648726   4.361   6.079   1.568  0.2453 -0.2359 -0.2950
  186MOL   H25748727   4.528   5.958   1.772 -0.2780 -0.6316 -1.2728
  186MOL   H25848728   4.471   5.841   1.655 -1.5578  2.8897 -2.0498
  186MOL   H25948729   4.548   5.740   1.870 -1.2205 -1.7967  1.3800
  186MOL   H26048730   4.445   5.833   1.969 -0.4949 -0.9043  0.2236
  186MOL   H26148731   4.374   5.713   1.861 -0.6251  0.3900 -0.2381
  186MOL   H26248732   4.425   6.145   1.707 -0.1738  0.5016  0.4194
  187MOL     C148733   1.862   2.414   6.889 -0.0329  0.4829 -0.1356
  187MOL     C248734   1.791   2.441   7.021 -0.3432 -0.3776 -0.0117
  187MOL     O348735   1.696   2.537   6.984  0.0877  0.2212  0.6871
  187MOL     C448736   1.567   2.508   7.014  0.0542 -0.3996  0.0344
  187MOL     C548737   1.474   2.632   6.982 -0.1385  0.1546  0.0787
  187MOL     H648738   1.791   2.359   6.826  0.4110 -0.6592  0.3537
  187MOL     H748739   1.895   2.501   6.833  1.7378 -0.5051 -0.6612
  187MOL     H848740   1.740   2.348   7.045 -0.1090 -0.7881 -1.0637
  187MOL     H948741   1.564   2.473   7.117  1.5211 -0.1786  0.1593
  187MOL    H1048742   1.538   2.418   6.958 -3.1305 -0.6283  1.9251
  187MOL    H1148743   1.493   2.650   6.876 -1.3275  1.3894  0.0581
  187MOL    H1248744   1.368   2.608   6.990 -0.1727  0.3517  0.2127
  187MOL    H1348745   1.512   2.711   7.047 -1.6183  1.4317 -0.5660
  187MOL    H1448746   1.948   2.347   6.894  1.0309  1.9035  1.1173
  187MOL    C1548747   1.873   2.496   7.136 -0.1262  0.2585 -0.4204
  187MOL    C1648748   1.982   2.404   7.190 -0.6098 -0.1674 -0.3006
  187MOL    O1748749   1.910   2.301   7.262  0.4637 -0.2616 -0.4468
  187MOL    C1848750   1.963   2.166   7.251 -0.4661  0.4343 -0.2571
  187MOL    C1948751   1.910   2.065   7.358  0.3998 -0.0574 -0.0749
  187MOL    H2048752   1.799   2.522   7.211  1.1246 -1.9949  1.6588
  187MOL    H2148753   1.913   2.591   7.101  1.3019  0.1671  0.9242
  187MOL    H2248754   2.044   2.365   7.109  2.0231  0.1812  1.5100
  187MOL    H2348755   2.072   2.163   7.262 -0.1567  0.1045 -3.0450
  187MOL    H2448756   1.945   2.122   7.153  1.6504 -2.9293  0.7546
  187MOL    H2548757   1.802   2.066   7.351  0.3693  0.1564  0.4046
  187MOL    H2648758   1.937   2.084   7.462 -0.2150  0.5733 -0.0272
  187MOL    H2748759   1.944   1.967   7.324  0.3792  1.0349 -3.4278
  187MOL    C2848760   2.057   2.484   7.298  0.5293 -0.1964 -0.3126
  187MOL    C2948761   2.146   2.409   7.397 -0.5103  0.4662 -0.2461
  187MOL    O3048762   2.204   2.498   7.496  0.0225 -0.7125 -0.2682
  187MOL    C3148763   2.110   2.554   7.590 -0.4113  0.3575 -0.2600
  187MOL    C3248764   2.163   2.490   7.719 -0.3182 -0.2126 -0.1311
  187MOL    H3348765   1.977   2.530   7.356  0.7087 -1.3275  0.8403
  187MOL    H3448766   2.105   2.567   7.245 -1.2985  0.1571 -1.4774
  187MOL    H3548767   2.087   2.337   7.455  0.7252  0.6997  1.3387
  187MOL    H3648768   2.002   2.536   7.583 -0.2366 -1.2330  0.8457
  187MOL    H3748769   2.121   2.662   7.585  1.1199  0.2515  0.6800
  187MOL    H3848770   2.099   2.522   7.802 -0.2248 -2.5125  0.8515
  187MOL    H3948771   2.143   2.384   7.728  1.4880 -0.6035 -0.4657
  187MOL    H4048772   2.269   2.507   7.740 -0.8184  0.6931  1.8745
  187MOL    C4148773   2.259   2.332   7.334 -0.6055 -0.5652  0.9700
  187MOL    C4248774   2.340   2.235   7.419 -0.4022 -0.0576  0.2889
  187MOL    O4348775   2.425   2.156   7.345 -0.2138  0.0622  0.2764
  187MOL    C4448776   2.529   2.232   7.282 -0.2875  0.0854 -0.5722
  187MOL    C4548777   2.661   2.160   7.299 -0.0982 -0.7987  0.0790
  187MOL    H4648778   2.325   2.410   7.297 -2.2978 -0.8664 -3.0186
  187MOL    H4748779   2.218   2.288   7.243  1.1059  1.4525 -0.8326
  187MOL    H4848780   2.406   2.289   7.486 -1.2805 -0.7325  1.7353
  187MOL    H4948781   2.536   2.332   7.326  0.4464 -0.7134  1.1486
  187MOL    H5048782   2.496   2.236   7.178 -0.2896  1.9146 -0.5108
  187MOL    H5148783   2.746   2.219   7.264  0.3350 -1.0873  0.6273
  187MOL    H5248784   2.676   2.139   7.405 -0.3564 -1.2127  0.0333
  187MOL    H5348785   2.645   2.065   7.250 -2.1312 -0.0651 -0.7240
  187MOL    C5448786   2.270   2.131   7.522 -0.1725 -0.0486  0.5218
  187MOL    C5548787   2.379   2.061   7.613  0.6547  0.3410  0.3743
  187MOL    O5648788   2.306   1.959   7.681  0.1736 -0.4934  1.0972
  187MOL    C5748789   2.310   1.838   7.601 -0.3448 -0.1973 -0.9835
  187MOL    C5848790   2.251   1.736   7.691  0.3784  0.0866 -0.1925
  187MOL    H5948791   2.202   2.067   7.466  0.5486 -0.2996 -0.0771
  187MOL    H6048792   2.199   2.186   7.585 -0.9873 -0.2663 -0.1966
  187MOL    H6148793   2.446   2.023   7.536  0.6623  2.2381 -0.5854
  187MOL    H6248794   2.414   1.812   7.583 -0.0705 -0.2011  0.5312
  187MOL    H6348795   2.255   1.836   7.507  2.3897 -0.0499 -2.6410
  187MOL    H6448796   2.306   1.712   7.782  1.0008 -1.5975 -0.9847
  187MOL    H6548797   2.150   1.763   7.721  0.1888 -0.5295 -0.2673
  187MOL    H6648798   2.238   1.644   7.633  0.9479 -0.1127 -0.0147
  187MOL    C6748799   2.436   2.153   7.726  0.0868 -0.5316 -0.5792
  187MOL    C6848800   2.545   2.067   7.802  0.0049 -0.2255  0.8827
  187MOL    O6948801   2.571   2.124   0.085  0.4299  0.6337 -0.4072
  187MOL    C7048802   2.518   2.050   0.198  0.5226  0.0158  0.5129
  187MOL    C7148803   2.575   2.097   0.338  0.7658 -0.1257 -0.2480
  187MOL    H7248804   2.353   2.168   7.795  1.0724  2.2937  0.0537
  187MOL    H7348805   2.472   2.251   7.697  0.1980 -0.0412  1.1359
  187MOL    H7448806   2.514   1.963   7.807 -0.3327 -0.0643  2.4909
  187MOL    H7548807   2.563   1.951   0.194 -0.0397 -0.1734 -1.7449
  187MOL    H7648808   2.410   2.054   0.187  0.4687 -1.1923  0.5453
  187MOL    H7748809   2.679   2.064   0.332  0.4225 -1.3265  0.2472
  187MOL    H7848810   2.568   2.201   0.370  0.3626 -0.8954  2.2510
  187MOL    H7948811   2.520   2.034   0.407 -4.5989  2.8649 -1.5221
  187MOL    C8048812   2.681   2.073   7.721 -0.4865  0.1790  0.1238
  187MOL    C8148813   2.793   1.978   7.772  0.1731 -0.4465 -0.3165
  187MOL    O8248814   2.920   2.011   7.714  0.1981  0.5931  0.3837
  187MOL    C8348815   2.996   2.098   7.803  0.6287 -0.5353 -0.5024
  187MOL    C8448816   3.129   2.143   7.742  0.3657 -0.6901  0.7985
  187MOL    H8548817   2.705   2.179   7.725 -0.5699  0.1659  1.1092
  187MOL    H8648818   2.662   2.059   7.614  1.5545  2.0884 -0.5088
  187MOL    H8748819   2.800   1.980   0.037 -1.5149 -1.4527 -0.1852
  187MOL    H8848820   3.009   2.047   0.054 -0.5793  1.6099  0.8608
  187MOL    H8948821   2.954   2.195   7.830 -0.5708 -1.3458  0.5835
  187MOL    H9048822   3.169   2.063   7.679 -0.2892 -0.3648 -0.0448
  187MOL    H9148823   3.153   2.235   7.690 -0.4441 -0.5838  0.6096
  187MOL    H9248824   3.195   2.149   7.828  1.1955  0.5731  0.0802
  187MOL    C9348825   2.760   1.829   7.741 -0.2487 -0.1938 -0.7865
  187MOL    C9448826   2.863   1.737   7.799  1.5765 -0.0318 -0.8132
  187MOL    O9548827   2.842   1.621   7.729 -0.1642 -0.1193  0.0291
  187MOL    C9648828   2.933   1.593   7.623  0.6550 -0.7669  0.5878
  187MOL    C9748829   3.065   1.537   7.679  0.6834 -0.1900  0.5880
  187MOL    H9848830   2.750   1.818   7.633 -0.1493 -1.3478 -0.6846
  187MOL    H9948831   2.663   1.810   7.787 -0.4777 -1.1841 -1.6685
  187MOL   H10048832   2.964   1.771   7.778  2.4364 -1.1082  1.3408
  187MOL   H10148833   2.950   1.686   7.569  1.9834 -0.8100  0.9274
  187MOL   H10248834   2.908   1.521   7.545  0.5765 -0.8785  0.7151
  187MOL   H10348835   3.111   1.599   7.756 -0.6162  1.7286 -0.1477
  187MOL   H10448836   3.024   1.444   7.719  0.8517  0.1042  1.4380
  187MOL   H10548837   3.137   1.513   7.601  0.3734  1.6918 -0.3210
  187MOL   C10648838   2.844   1.721   0.107 -0.9221 -0.4594 -0.1262
  187MOL   C10748839   2.977   1.693   0.183  0.1588  0.1945  0.0089
  187MOL   O10848840   2.925   1.666   0.312  0.2497  0.0877  0.0024
  187MOL   C10948841   2.945   1.533   0.370 -0.2153  0.4718 -0.1758
  187MOL   C11048842   2.954   1.546   0.515 -0.0707  0.0475 -0.5127
  187MOL   H11148843   2.781   1.633   0.117 -0.7603 -0.6201 -0.4865
  187MOL   H11248844   2.798   1.808   0.154  1.8019  0.1025  1.6172
  187MOL   H11348845   3.017   1.602   0.137 -2.4336 -0.5332 -0.9053
  187MOL   H11448846   3.035   1.483   0.335  0.3435 -0.2523  2.2114
  187MOL   H11548847   2.865   1.461   0.353  0.0113 -0.0925  1.0901
  187MOL   H11648848   3.033   1.610   0.553 -0.9385  2.0907 -2.0106
  187MOL   H11748849   2.862   1.585   0.559  0.0708 -0.8262  0.5863
  187MOL   H11848850   2.969   1.448   0.558 -0.9550 -0.0216 -0.3403
  187MOL   C11948851   3.089   1.795   0.181 -0.7308 -0.3469 -0.0119
  187MOL   C12048852   3.213   1.757   0.269 -0.4381  0.1943  0.1572
  187MOL   O12148853   3.291   1.871   0.287 -0.0376 -0.2516 -0.3454
  187MOL   C12248854   3.259   1.955   0.402 -0.3126  0.6889  0.0073
  187MOL   C12348855   3.299   2.100   0.354 -0.4592  0.0067  0.6274
  187MOL   H12448856   3.059   1.890   0.225  1.5324  0.0617  0.7040
  187MOL   H12548857   3.131   1.815   0.082 -0.1104 -0.2040  0.2765
  187MOL   H12648858   3.173   1.722   0.363  1.1905 -1.1463  0.3626
  187MOL   H12748859   3.322   1.931   0.487  1.3428  0.4127 -1.2748
  187MOL   H12848860   3.153   1.955   0.428 -0.7692 -0.0290 -1.7789
  187MOL   H12948861   3.239   2.126   0.267 -0.2369  0.6645  0.6734
  187MOL   H13048862   3.276   2.179   0.425 -0.6266 -0.3524  0.9790
  187MOL   H13148863   3.404   2.113   0.330 -0.0611  2.4971  3.5163
  187MOL   C13248864   3.307   1.650   0.207  0.0667  0.0667  0.1001
  187MOL   C13348865   3.441   1.618   0.268  0.1823  0.6234 -1.0470
  187MOL   O13448866   3.502   1.526   0.169  0.3325 -0.2555  0.6190
  187MOL   C13548867   3.638   1.541   0.164  0.2547 -0.1127  0.1814
  187MOL   C13648868   3.694   1.416   0.097 -0.3384  0.9749 -0.3234
  187MOL   H13748869   3.337   1.690   0.110  1.0875  1.4068  0.9626
  187MOL   H13848870   3.257   1.556   0.183 -1.4111  1.0060 -0.5919
  187MOL   H13948871   3.497   1.712   0.268  1.0746  0.1272  1.9673
  187MOL   H14048872   3.681   1.540   0.264 -1.5549 -0.7533  0.9635
  187MOL   H14148873   3.674   1.629   0.110 -1.3181  0.1769 -0.4069
  187MOL   H14248874   3.802   1.421   0.084 -0.4792 -0.1228 -2.1449
  187MOL   H14348875   3.670   1.322   0.146  1.1412  0.8350  0.1312
  187MOL   H14448876   3.656   1.395   7.840  0.5201 -1.8355 -0.1076
  187MOL   C14548877   3.423   1.547   0.404 -0.7356 -0.1136 -0.0604
  187MOL   C14648878   3.554   1.549   0.502  0.2781  0.0018  0.2899
  187MOL   O14748879   3.514   1.494   0.624 -0.2626 -0.1668  0.4586
  187MOL   C14848880   3.508   1.351   0.623 -0.7982 -0.7623 -0.2771
  187MOL   C14948881   3.639   1.289   0.679  0.7243  0.2500 -0.6694
  187MOL   H15048882   3.381   1.450   0.377  0.1608  0.1269 -2.4511
  187MOL   H15148883   3.347   1.604   0.458 -3.3301 -2.5295 -1.0312
  187MOL   H15248884   3.628   1.486   0.453  0.3327 -0.0614  0.4536
  187MOL   H15348885   3.477   1.315   0.525 -2.1745  0.1521 -0.1918
  187MOL   H15448886   3.425   1.322   0.687 -1.2934  0.6115 -0.2806
  187MOL   H15548887   3.637   1.180   0.681  0.4382  0.2536 -0.6809
  187MOL   H15648888   3.721   1.312   0.611  0.9381 -0.0959 -0.5334
  187MOL   H15748889   3.664   1.339   0.773 -0.1702 -1.4545  0.4987
  187MOL   C15848890   3.621   1.688   0.525  0.4068 -0.5809 -0.6187
  187MOL   C15948891   3.756   1.689   0.602 -0.6476 -0.0055  0.0939
  187MOL   O16048892   3.825   1.577   0.560 -0.3341 -0.3642  0.0973
  187MOL   C16148893   3.928   1.598   0.466 -0.2287 -0.2389 -0.1089
  187MOL   C16248894   3.974   1.456   0.433 -0.3971 -0.2108  0.2979
  187MOL   H16348895   3.544   1.752   0.569  1.6628  0.4532  0.0909
  187MOL   H16448896   3.651   1.735   0.431  0.5143  1.6542  0.4969
  187MOL   H16548897   3.814   1.779   0.581 -0.3651 -0.7314 -2.3666
  187MOL   H16648898   4.000   1.661   0.518 -1.5762 -1.2972  3.1396
  187MOL   H16748899   3.897   1.657   0.379  0.9069  0.6319  0.0679
  187MOL   H16848900   4.002   1.401   0.523 -1.8756 -0.2979  0.7211
  187MOL   H16948901   3.897   1.408   0.373  0.6648  0.0074 -1.2675
  187MOL   H17048902   4.057   1.454   0.362  1.0193  0.3621  1.8950
  187MOL   C17148903   3.737   1.667   0.758 -0.8521  0.3671  0.0491
  187MOL   C17248904   3.689   1.802   0.813 -0.3909  0.4171  1.1367
  187MOL   O17348905   3.788   1.902   0.780  0.2171 -0.3435 -0.1408
  187MOL   C17448906   3.730   2.029   0.733 -0.1227  0.2531 -0.9563
  187MOL   C17548907   3.848   2.120   0.690 -0.3198 -0.1112  0.2310
  187MOL   H17648908   3.835   1.648   0.801 -0.9925 -1.3348 -0.3464
  187MOL   H17748909   3.677   1.577   0.777 -0.7963  0.5805  1.2767
  187MOL   H17848910   3.592   1.827   0.772 -0.5018 -0.1948  1.0233
  187MOL   H17948911   3.668   2.076   0.809  0.7071  1.4620 -1.0172
  187MOL   H18048912   3.665   2.017   0.646 -0.4354  1.1662 -0.8551
  187MOL   H18148913   3.905   2.168   0.770  0.4559 -0.0411 -0.3571
  187MOL   H18248914   3.918   2.067   0.625  0.3083  1.0091 -0.0212
  187MOL   H18348915   3.816   2.216   0.649 -2.3715 -1.2476 -0.9355
  187MOL   C18448916   3.675   1.794   0.973 -0.3186  0.3159  0.1717
  187MOL   C18548917   3.562   1.884   1.032  0.5744 -0.3797 -0.2633
  187MOL   O18648918   3.576   1.866   1.170  0.4927 -0.1520  0.3981
  187MOL   C18748919   3.539   1.972   1.258 -0.6992 -0.4729  1.1726
  187MOL   C18848920   3.580   1.947   1.407  0.3128 -0.3509 -0.1616
  187MOL   H18948921   3.768   1.839   1.010 -2.0567  1.9038  2.7567
  187MOL   H19048922   3.653   1.694   1.009  0.3607  0.0213 -0.2156
  187MOL   H19148923   3.586   1.987   1.004  0.1775  0.0449  0.8972
  187MOL   H19248924   3.430   1.976   1.264 -0.7047 -0.1941  0.9165
  187MOL   H19348925   3.568   2.072   1.225 -0.0868 -0.6186  1.2688
  187MOL   H19448926   3.518   1.865   1.442 -1.2124  2.3432  3.8548
  187MOL   H19548927   3.685   1.926   1.428  0.1082  0.0762  1.3550
  187MOL   H19648928   3.560   2.031   1.473 -2.4235  0.6460 -2.1531
  187MOL   C19748929   3.421   1.855   0.993  0.2338 -0.0597 -0.7057
  187MOL   C19848930   3.385   1.708   0.971 -0.2479  0.0274  0.2709
  187MOL   O19948931   3.248   1.713   0.929  0.2802  0.4388 -0.1002
  187MOL   C20048932   3.219   1.663   0.804  0.0437 -0.0316 -0.1432
  187MOL   C20148933   3.244   1.787   0.714  0.1695  0.0267  0.6033
  187MOL   H20248934   3.401   1.903   0.898  1.2501  1.2339 -0.2690
  187MOL   H20348935   3.346   1.899   1.059  1.1529  0.0167  0.2980
  187MOL   H20448936   3.453   1.669   0.895  1.4589  1.5659  0.9665
  187MOL   H20548937   3.118   1.622   0.805  0.7930 -1.9177  1.2273
  187MOL   H20648938   3.287   1.581   0.781 -0.4713 -0.5392  0.1461
  187MOL   H20748939   3.183   1.867   0.757  0.1876 -1.9851  4.6176
  187MOL   H20848940   3.348   1.818   0.719  0.1345  0.0686  1.1486
  187MOL   H20948941   3.203   1.764   0.616 -2.4535 -0.3992  1.7470
  187MOL   C21048942   3.398   1.621   1.095  0.0544 -0.3330 -0.6849
  187MOL   C21148943   3.396   1.468   1.090  0.1465  0.1640 -0.6805
  187MOL   O21248944   3.402   1.404   1.226  0.8438  0.5769  0.0658
  187MOL   C21348945   3.273   1.412   1.290 -0.5928 -0.1024  0.2317
  187MOL   C21448946   3.267   1.312   1.407 -0.4340 -0.0633  0.0134
  187MOL   H21548947   3.311   1.644   1.157  0.2611  0.9372 -0.8707
  187MOL   H21648948   3.479   1.653   1.160  2.3329 -1.5897 -2.8305
  187MOL   H21748949   3.304   1.445   1.038 -0.6579  1.0794  0.3134
  187MOL   H21848950   3.193   1.385   1.222  0.5913  0.6469 -1.4881
  187MOL   H21948951   3.258   1.515   1.321 -0.2771 -0.2491  0.9027
  187MOL   H22048952   3.266   1.210   1.368  2.2254  0.3392 -1.2371
  187MOL   H22148953   3.350   1.320   1.477 -1.0278 -0.5987  0.7871
  187MOL   H22248954   3.180   1.322   1.472 -1.9500 -2.1322 -1.5949
  187MOL   C22348955   3.517   1.402   1.014  0.3199 -0.8753 -0.4683
  187MOL   C22448956   3.513   1.248   1.047  0.4929  0.0195  0.1667
  187MOL   O22548957   3.628   1.181   0.984  0.2318  0.1986 -0.1728
  187MOL   C22648958   3.755   1.197   1.045  0.7492 -0.7127  0.2664
  187MOL   C22748959   3.854   1.106   0.974  0.0781  0.0110 -0.0038
  187MOL   H22848960   3.605   1.461   1.039 -0.9771  0.7844  0.3500
  187MOL   H22948961   3.500   1.420   0.908  0.2019  1.9075 -0.0307
  187MOL   H23048962   3.506   1.219   1.152 -0.1496 -0.3650  0.0195
  187MOL   H23148963   3.756   1.193   1.154 -0.2219 -0.7870  0.2701
  187MOL   H23248964   3.781   1.303   1.031  1.3092 -0.9433 -0.4736
  187MOL   H23348965   3.918   1.151   0.898 -1.4806 -0.5962 -1.6869
  187MOL   H23448966   3.929   1.054   1.033  1.6282  1.0437 -1.0304
  187MOL   H23548967   3.800   1.030   0.918 -2.0582  3.1402 -2.3897
  187MOL   C23648968   3.387   1.180   0.978 -0.8985  0.5717 -0.4472
  187MOL   C23748969   3.395   1.023   0.984  0.0481  0.8284  0.5002
  187MOL   O23848970   3.294   0.958   0.899  0.3750  0.2676 -0.0640
  187MOL   C23948971   3.332   0.946   0.765 -0.4975 -0.1889 -0.0723
  187MOL   C24048972   3.215   0.946   0.671 -0.2642  0.0614 -0.1946
  187MOL   H24148973   3.381   1.214   0.875 -2.8018  0.7411 -0.3021
  187MOL   H24248974   3.301   1.218   1.034  0.5552  1.0113  1.5542
  187MOL   H24348975   3.490   0.996   0.939 -0.5389  2.0712 -1.5498
  187MOL   H24448976   3.386   0.851   0.759 -2.0537 -1.0195 -1.2748
  187MOL   H24548977   3.407   1.021   0.739  0.6911 -0.7954  1.5011
  187MOL   H24648978   3.152   1.035   0.686 -0.4953 -0.1679  0.2157
  187MOL   H24748979   3.243   0.939   0.566 -0.7781 -1.0528 -0.2654
  187MOL   H24848980   3.145   0.866   0.696  0.1092  0.6766  3.0937
  187MOL   C24948981   3.383   0.963   1.124 -0.0763 -0.1864  0.4342
  187MOL   C25048982   3.476   0.848   1.159 -0.3249 -0.3110  0.0246
  187MOL   O25148983   3.473   0.824   1.304  0.1458  0.5429  0.3866
  187MOL   C25248984   3.548   0.721   1.364  0.1069 -0.0908 -0.0178
  187MOL   C25348985   3.542   0.741   1.519 -0.6958 -0.1522  0.3490
  187MOL   H25448986   3.280   0.941   1.154 -0.7863  0.8609 -1.1746
  187MOL   H25548987   3.416   1.036   1.198  0.9669 -2.5514  2.3709
  187MOL   H25648988   3.442   0.753   1.117  1.1360  0.6425 -3.5556
  187MOL   H25748989   3.649   0.732   1.325 -0.2090  0.6952 -0.6216
  187MOL   H25848990   3.496   0.631   1.331  0.6886 -0.3018 -0.3780
  187MOL   H25948991   3.593   0.833   1.547  1.1752 -1.2379  0.5677
  187MOL   H26048992   3.439   0.740   1.554 -0.9124  0.6634 -0.2450
  187MOL   H26148993   3.587   0.656   1.570  1.9892 -0.4813 -2.4226
  187MOL   H26248994   3.577   0.873   1.126  0.1010 -0.1169  1.4417
  188MOL     C148995   3.344   4.955   4.284  0.7165  0.0237 -0.4185
  188MOL     C248996   3.201   4.978   4.340  0.5173  0.1218 -0.1008
  188MOL     O348997   3.123   4.864   4.328 -0.1622  1.4496 -0.1099
  188MOL     C448998   3.128   4.773   4.431  0.6375  0.8125 -0.2718
  188MOL     C548999   3.086   4.636   4.387  0.2947  0.4244  0.5474
  188MOL     H649000   3.392   4.876   4.342  1.2752  0.1733 -0.6718
  188MOL     H749001   3.348   4.922   4.180 -0.1625 -2.7594  0.3645
  188MOL     H849002   3.206   5.015   4.443 -1.8656  0.0199  0.0783
  188MOL     H949003   3.065   4.818   4.508  1.4446 -0.1911  0.9983
  188MOL    H1049004   3.231   4.768   4.466  0.5769 -0.2487 -0.2163
  188MOL    H1149005   3.097   4.580   4.479  1.1678 -0.0115  0.1805
  188MOL    H1249006   2.980   4.634   4.359 -0.1568 -0.0317  2.2315
  188MOL    H1349007   3.151   4.595   4.310  0.2010 -2.5679  1.9906
  188MOL    H1449008   3.405   5.045   4.285  0.4473  0.2014  0.5559
  188MOL    C1549009   3.121   5.078   4.255  0.2608  0.0212  0.4353
  188MOL    C1649010   3.171   5.215   4.244  0.7863  0.2824  0.1438
  188MOL    O1749011   3.178   5.259   4.377  0.6033  0.2667  0.0193
  188MOL    C1849012   3.304   5.315   4.417 -0.2024  0.2079  0.2353
  188MOL    C1949013   3.302   5.368   4.554 -0.2941  0.2871  0.0944
  188MOL    H2049014   3.026   5.092   4.307 -1.0308 -1.1802 -1.5700
  188MOL    H2149015   3.109   5.035   4.156  2.5985 -0.2213  0.2269
  188MOL    H2249016   3.269   5.201   4.200  0.3879  0.7997 -0.9329
  188MOL    H2349017   3.328   5.395   4.347  0.6460 -2.6957 -2.9061
  188MOL    H2449018   3.378   5.236   4.410 -0.2852  0.1147  0.4304
  188MOL    H2549019   3.260   5.298   4.626  1.2190 -0.2398  0.4888
  188MOL    H2649020   3.251   5.464   4.553 -0.6999  0.1001  1.2141
  188MOL    H2749021   3.401   5.396   4.591 -0.9924  0.4386  1.9245
  188MOL    C2849022   3.078   5.309   4.171 -0.0014 -0.7734 -0.0217
  188MOL    C2949023   3.063   5.287   4.022 -0.7126 -0.6117 -0.6724
  188MOL    O3049024   3.175   5.340   3.958  0.6359  0.0951  0.1445
  188MOL    C3149025   3.254   5.263   3.873 -0.0150 -0.8386  0.5328
  188MOL    C3249026   3.330   5.140   3.928 -0.0992  1.1104 -0.0417
  188MOL    H3349027   3.123   5.407   4.186  2.1458 -1.3343 -2.3036
  188MOL    H3449028   2.976   5.302   4.208  0.4219  1.2228  1.6341
  188MOL    H3549029   3.057   5.181   3.998  0.8006 -0.8100 -0.2462
  188MOL    H3649030   3.328   5.334   3.836 -2.7948  1.2264 -1.3009
  188MOL    H3749031   3.207   5.247   3.776 -0.8877  1.8147  0.4713
  188MOL    H3849032   3.391   5.164   4.015 -0.9658  3.1812  0.0422
  188MOL    H3949033   3.265   5.061   3.966 -0.8286  1.2967 -0.8757
  188MOL    H4049034   3.400   5.092   3.860 -0.5102  0.6854 -0.1645
  188MOL    C4149035   2.940   5.361   3.960  0.1684 -0.5008  0.6670
  188MOL    C4249036   2.802   5.298   3.998  0.1501  0.2136  0.3453
  188MOL    O4349037   2.798   5.155   3.962  0.2063  0.3911 -0.3705
  188MOL    C4449038   2.759   5.079   4.082 -0.2401  0.4949  0.0588
  188MOL    C4549039   2.612   5.082   4.107  0.2728 -0.6526 -0.6630
  188MOL    H4649040   2.956   5.364   3.852  1.0377  1.2229  0.8180
  188MOL    H4749041   2.942   5.466   3.988  0.0130 -0.1160 -0.7373
  188MOL    H4849042   2.777   5.314   4.103  1.0771  0.3336  0.5463
  188MOL    H4949043   2.823   5.117   4.162  1.3284  0.0694 -0.9879
  188MOL    H5049044   2.787   4.975   4.069  0.8000  0.8510 -0.5644
  188MOL    H5149045   2.556   5.034   4.026  0.8654  1.0313 -2.1000
  188MOL    H5249046   2.604   5.013   4.191  0.6907  0.0271 -0.0600
  188MOL    H5349047   2.578   5.179   4.141 -0.2482 -0.7921 -0.7734
  188MOL    C5449048   2.690   5.362   3.911 -0.3548 -0.4112 -0.5233
  188MOL    C5549049   2.647   5.501   3.953 -0.0139 -0.4060 -1.1204
  188MOL    O5649050   2.565   5.485   4.066 -0.3762 -0.2976 -0.4722
  188MOL    C5749051   2.622   5.532   4.191  0.5925  0.0604 -0.1637
  188MOL    C5849052   2.516   5.488   4.294 -0.0474  0.0004 -0.1887
  188MOL    H5949053   2.607   5.292   3.924 -0.5007  0.1569  1.8231
  188MOL    H6049054   2.721   5.353   3.807  1.0880  4.0649 -0.5895
  188MOL    H6149055   2.724   5.578   3.965 -0.0772 -0.7013  1.3365
  188MOL    H6249056   2.633   5.640   4.193 -0.2780  0.1343  0.7009
  188MOL    H6349057   2.715   5.481   4.218 -0.3572 -1.8109 -0.3459
  188MOL    H6449058   2.422   5.533   4.265 -0.4634 -2.3479 -2.6618
  188MOL    H6549059   2.502   5.380   4.303  1.7453 -0.1334  1.3243
  188MOL    H6649060   2.541   5.515   4.397  0.8093  1.5782 -0.7945
  188MOL    C6749061   2.566   5.573   3.840 -0.3586 -0.0762  0.2703
  188MOL    C6849062   2.650   5.627   3.719  0.7035 -0.0636 -0.1531
  188MOL    O6949063   2.745   5.718   3.775  0.1635  0.1551 -0.1255
  188MOL    C7049064   2.882   5.697   3.745  0.1615  0.0939  0.0831
  188MOL    C7149065   2.979   5.789   3.822  0.0806  0.4565 -0.0046
  188MOL    H7249066   2.511   5.656   3.885  2.0799  2.4662 -1.2532
  188MOL    H7349067   2.482   5.511   3.808  1.6310 -1.8946 -1.5412
  188MOL    H7449068   2.702   5.542   3.673  0.3138 -0.3496 -0.0704
  188MOL    H7549069   2.893   5.705   3.637 -2.5463 -0.4570 -0.2710
  188MOL    H7649070   2.906   5.593   3.764  1.4747  0.1370 -1.2065
  188MOL    H7749071   2.959   5.892   3.792  2.5341  0.8102 -0.5176
  188MOL    H7849072   2.942   5.777   3.923  0.4385 -1.1807 -0.0682
  188MOL    H7949073   3.085   5.768   3.807  0.0324  0.3675 -0.2236
  188MOL    C8049074   2.571   5.700   3.613  0.2454 -0.1964 -0.2240
  188MOL    C8149075   2.481   5.602   3.528  0.5161  0.6679  0.9043
  188MOL    O8249076   2.538   5.578   3.402 -0.4752 -0.7332  0.4206
  188MOL    C8349077   2.571   5.440   3.373  0.1625 -0.2174  0.2389
  188MOL    C8449078   2.595   5.432   3.221  0.6794  0.2401  0.7521
  188MOL    H8549079   2.632   5.758   3.544  1.3321 -1.1925 -0.1047
  188MOL    H8649080   2.507   5.775   3.661  0.1201 -0.6172  0.2633
  188MOL    H8749081   2.480   5.509   3.585  0.0088  1.0814  1.5840
  188MOL    H8849082   2.500   5.364   3.404  0.9653 -0.9515  0.2967
  188MOL    H8949083   2.663   5.413   3.426  0.3839  0.0896  0.0174
  188MOL    H9049084   2.591   5.328   3.188 -2.0097  0.9874 -1.4718
  188MOL    H9149085   2.512   5.486   3.176 -0.4453 -1.0000  1.3043
  188MOL    H9249086   2.693   5.475   3.200  0.3270  1.7793  2.1187
  188MOL    C9349087   2.342   5.663   3.502  0.2363 -0.5383 -0.2119
  188MOL    C9449088   2.247   5.573   3.418  0.7475 -0.4642  0.4310
  188MOL    O9549089   2.176   5.646   3.314 -0.2281 -0.2152 -0.4604
  188MOL    C9649090   2.261   5.652   3.199 -0.2337 -0.0634  0.4903
  188MOL    C9749091   2.178   5.693   3.078 -0.0671 -0.0984  0.6467
  188MOL    H9849092   2.358   5.754   3.444  2.2089 -1.6149 -1.4133
  188MOL    H9949093   2.291   5.690   3.595  0.9827 -0.5414  0.2050
  188MOL   H10049094   2.292   5.485   3.371 -0.1367  0.6979 -2.6864
  188MOL   H10149095   2.287   5.548   3.180  0.8328  0.3200 -0.2168
  188MOL   H10249096   2.355   5.708   3.206  0.4933 -1.1758 -0.2533
  188MOL   H10349097   2.081   5.644   3.088 -0.0129 -0.1085  1.1702
  188MOL   H10449098   2.157   5.799   3.063 -1.6491 -0.6061 -0.8656
  188MOL   H10549099   2.230   5.654   2.991 -1.7122 -0.8275 -0.0203
  188MOL   C10649100   2.118   5.525   3.507 -0.1538 -0.8632 -0.3718
  188MOL   C10749101   2.156   5.451   3.640  0.8446 -1.3307  0.5642
  188MOL   O10849102   2.230   5.335   3.602  0.4541 -0.5318 -0.0964
  188MOL   C10949103   2.290   5.276   3.717 -0.1369 -0.2002 -0.6052
  188MOL   C11049104   2.428   5.202   3.677 -0.5845 -0.4226 -0.5394
  188MOL   H11149105   2.049   5.456   3.458 -1.4400  0.4792 -0.5098
  188MOL   H11249106   2.056   5.611   3.532 -0.5770 -1.1803 -0.3156
  188MOL   H11349107   2.208   5.509   3.716 -0.9751  0.5720  0.3955
  188MOL   H11449108   2.223   5.200   3.758  1.0859  0.5683  3.0203
  188MOL   H11549109   2.313   5.353   3.791  0.5700  0.3094 -1.3483
  188MOL   H11649110   2.512   5.261   3.640  1.6710 -2.8715  0.4883
  188MOL   H11749111   2.454   5.151   3.770 -0.3853  0.1411 -0.2863
  188MOL   H11849112   2.403   5.122   3.607  0.7045 -0.6645 -0.7369
  188MOL   C11949113   2.021   5.405   3.708 -0.1726  0.1609  0.2813
  188MOL   C12049114   1.951   5.521   3.792  0.3707 -0.0872 -0.1336
  188MOL   O12149115   2.032   5.517   3.913 -0.1953 -0.0401 -0.1986
  188MOL   C12249116   2.074   5.644   3.973  0.5927  1.0586 -0.2898
  188MOL   C12349117   2.209   5.640   4.043  0.5975  0.0989  0.1679
  188MOL   H12449118   2.042   5.318   3.770 -2.9400 -1.2835 -0.7278
  188MOL   H12549119   1.958   5.367   3.628 -1.5195  1.3171  0.7713
  188MOL   H12649120   1.954   5.619   3.745 -1.7339 -0.5067 -1.2252
  188MOL   H12749121   1.993   5.692   4.028  1.0402 -0.9254  2.1851
  188MOL   H12849122   2.098   5.712   3.891 -0.2217 -0.6447 -2.0002
  188MOL   H12949123   2.229   5.723   4.112 -1.2810 -1.2994  2.4882
  188MOL   H13049124   2.208   5.548   4.101  0.8320  1.4176  2.3297
  188MOL   H13149125   2.292   5.635   3.974 -0.2121 -1.0686 -0.7420
  188MOL   C13249126   1.804   5.483   3.825  0.5838 -0.3658 -0.1087
  188MOL   C13349127   1.706   5.500   3.706  0.5463 -0.1272 -0.2828
  188MOL   O13449128   1.669   5.636   3.720  0.2942 -0.4843 -0.1861
  188MOL   C13549129   1.650   5.700   3.599 -0.6410 -0.3912 -0.4465
  188MOL   C13649130   1.654   5.857   3.602  0.2736 -0.3426 -0.0059
  188MOL   H13749131   1.790   5.537   3.919  0.4779 -1.5745  0.5837
  188MOL   H13849132   1.801   5.378   3.857  0.9441 -0.2071  0.4515
  188MOL   H13949133   1.760   5.479   3.614 -1.4468 -1.5409 -1.1682
  188MOL   H14049134   1.552   5.670   3.563 -0.5583  0.6047 -1.5392
  188MOL   H14149135   1.713   5.662   3.519  0.3506  0.3960 -0.0464
  188MOL   H14249136   1.750   5.904   3.582 -0.1481  0.8568  0.7367
  188MOL   H14349137   1.588   5.905   3.529  0.2179 -0.1597  0.1640
  188MOL   H14449138   1.617   5.897   3.696 -1.7077  1.2370 -1.4056
  188MOL   C14549139   1.579   5.420   3.710  0.1333 -0.6089  0.1750
  188MOL   C14649140   1.599   5.279   3.665  0.9070  0.4004  0.3790
  188MOL   O14749141   1.568   5.276   3.522  0.3481  0.0296  0.6564
  188MOL   C14849142   1.686   5.298   3.432 -0.0465  0.5354  0.2319
  188MOL   C14949143   1.661   5.223   3.299 -0.1487  0.4522 -0.3958
  188MOL   H15049144   1.500   5.460   3.647 -0.2489 -1.8924 -0.1753
  188MOL   H15149145   1.540   5.419   3.812 -1.4972  1.5661 -0.4028
  188MOL   H15249146   1.696   5.237   3.692 -0.2399 -1.5018  1.5992
  188MOL   H15349147   1.777   5.260   3.477 -1.0271 -2.9969 -0.5844
  188MOL   H15449148   1.694   5.405   3.413  0.2971  0.2457 -1.3286
  188MOL   H15549149   1.673   5.118   3.327  0.6776  0.3869 -0.9682
  188MOL   H15649150   1.566   5.249   3.251  0.3073  0.1118 -1.5144
  188MOL   H15749151   1.749   5.237   3.236  0.1670 -0.5160 -0.1759
  188MOL   C15849152   1.493   5.194   3.748  0.2118  0.4914  0.4700
  188MOL   C15949153   1.498   5.043   3.727  0.0848 -0.6335  0.2961
  188MOL   O16049154   1.401   4.984   3.820 -0.2993 -0.0011  0.4624
  188MOL   C16149155   1.263   4.977   3.774 -0.1219  0.3140  0.3126
  188MOL   C16249156   1.176   4.904   3.880  0.6081 -0.2197 -0.2688
  188MOL   H16349157   1.393   5.210   3.707  0.8161 -1.8675 -2.1639
  188MOL   H16449158   1.499   5.219   3.853 -1.0272  0.2333  0.6032
  188MOL   H16549159   1.470   5.014   3.626  1.3413 -2.6766  0.5071
  188MOL   H16649160   1.236   4.928   3.680  0.4006  2.2137 -0.8637
  188MOL   H16749161   1.230   5.079   3.756  0.8688  0.4480 -0.8507
  188MOL   H16849162   1.212   4.802   3.892 -0.0167 -0.2844  1.1960
  188MOL   H16949163   1.183   4.958   3.974  0.6864 -2.6862  1.1749
  188MOL   H17049164   1.073   4.898   3.845  0.4506 -0.4679  0.2324
  188MOL   C17149165   1.635   4.988   3.767  0.3494  0.4836 -0.3387
  188MOL   C17249166   1.737   4.969   3.651 -0.6949 -0.0281  0.2511
  188MOL   O17349167   1.722   4.832   3.594  0.1937  0.3918 -0.2946
  188MOL   C17449168   1.622   4.803   3.498  0.1895 -0.2588 -0.6269
  188MOL   C17549169   1.664   4.673   3.437 -0.0527  0.0702 -0.5241
  188MOL   H17649170   1.632   4.888   3.809  0.9480  1.3474  1.8621
  188MOL   H17749171   1.676   5.052   3.845  0.0920  1.0575 -0.6693
  188MOL   H17849172   1.726   5.037   3.566 -0.4419 -1.8190 -1.2370
  188MOL   H17949173   1.637   4.879   3.422  0.0902  0.5146  0.1203
  188MOL   H18049174   1.521   4.798   3.539  0.9165 -1.5564  1.0936
  188MOL   H18149175   1.577   4.635   3.384  0.2186 -1.8205  0.3461
  188MOL   H18249176   1.744   4.696   3.367  0.9060  0.8271  0.7943
  188MOL   H18349177   1.694   4.602   3.515  1.2414  0.8082 -0.3233
  188MOL   C18449178   1.871   4.981   3.716  0.3581  0.4886  0.7283
  188MOL   C18549179   1.997   4.951   3.639 -0.3583 -0.2956 -0.0413
  188MOL   O18649180   2.115   4.965   3.708  0.5221  0.3796  0.0574
  188MOL   C18749181   2.124   4.897   3.836  0.0683 -0.2906 -0.8404
  188MOL   C18849182   2.264   4.831   3.845 -0.2246 -0.2624 -0.3658
  188MOL   H18949183   1.873   4.919   3.805  1.5546 -0.4515  0.0734
  188MOL   H19049184   1.884   5.080   3.760  1.4684  0.3730  0.6854
  188MOL   H19149185   1.996   4.843   3.623  0.9338 -0.0712 -1.8655
  188MOL   H19249186   2.046   4.821   3.836  0.5614 -0.7992 -0.4246
  188MOL   H19349187   2.097   4.960   3.921  1.0281 -0.6144 -0.2917
  188MOL   H19449188   2.271   4.755   3.766  2.5644 -0.3307 -0.1175
  188MOL   H19549189   2.351   4.893   3.824  0.1630  0.2031  2.3889
  188MOL   H19649190   2.281   4.789   3.944  1.9146  3.0693  0.7763
  188MOL   C19749191   2.015   5.014   3.498  0.6169 -0.1918  0.8291
  188MOL   C19849192   2.148   4.963   3.429  0.3636 -0.0264  0.8782
  188MOL   O19949193   2.156   5.042   3.306  0.2979  0.1901 -0.1207
  188MOL   C20049194   2.216   5.174   3.323  0.2282  0.4697  0.2830
  188MOL   C20149195   2.207   5.239   3.183  0.4764 -0.6938  0.1751
  188MOL   H20249196   2.012   5.123   3.511  0.8016 -0.1887  0.8437
  188MOL   H20349197   1.936   4.990   3.427  1.1059 -1.0214  0.5722
  188MOL   H20449198   2.229   4.966   3.502  0.4004  1.2862  0.7891
  188MOL   H20549199   2.319   5.175   3.358  0.6468  0.7998 -0.9288
  188MOL   H20649200   2.161   5.236   3.394 -2.3666  0.2068 -1.4054
  188MOL   H20749201   2.103   5.241   3.149  1.2065  1.3952 -2.1185
  188MOL   H20849202   2.244   5.342   3.187 -1.5916  0.0392  1.7360
  188MOL   H20949203   2.271   5.190   3.110  0.7356 -0.4542  0.2415
  188MOL   C21049204   2.137   4.818   3.383 -0.7303  0.4398 -0.6407
  188MOL   C21149205   2.269   4.752   3.335  1.0148  0.2852 -0.1252
  188MOL   O21249206   2.256   4.647   3.242  0.3760 -0.5095 -0.5245
  188MOL   C21349207   2.181   4.687   3.129  0.2404 -0.0687 -0.1255
  188MOL   C21449208   2.227   4.591   3.013 -0.4840  0.3861  0.7592
  188MOL   H21549209   2.056   4.818   3.311 -0.0857 -1.6439 -1.4117
  188MOL   H21649210   2.106   4.752   3.464  1.3299  2.9376  2.3033
  188MOL   H21749211   2.329   4.829   3.288 -1.9058  2.3173 -0.6458
  188MOL   H21849212   2.190   4.789   3.089  1.8449 -0.6149 -1.2314
  188MOL   H21949213   2.079   4.668   3.161 -0.7266  1.9028 -1.8595
  188MOL   H22049214   2.331   4.600   2.981 -0.0922 -2.0668  1.2750
  188MOL   H22149215   2.205   4.488   3.041 -0.1195  0.1079  0.0407
  188MOL   H22249216   2.175   4.616   2.921  0.7416  0.3479  0.0482
  188MOL   C22349217   2.345   4.709   3.458 -0.4480 -0.1884  0.5892
  188MOL   C22449218   2.490   4.649   3.449 -0.6413 -0.6743  0.0329
  188MOL   O22549219   2.557   4.652   3.574  0.1633  0.9079  0.2517
  188MOL   C22649220   2.501   4.560   3.669  0.8249 -0.3887  0.5507
  188MOL   C22749221   2.597   4.549   3.781 -0.1628  0.1099  0.0949
  188MOL   H22849222   2.278   4.634   3.498 -0.0585  0.5519  2.6615
  188MOL   H22949223   2.346   4.783   3.538  1.9974 -0.0743  0.5046
  188MOL   H23049224   2.497   4.547   3.413  1.1194 -0.6520  0.2655
  188MOL   H23149225   2.481   4.466   3.618 -0.0013  0.2595 -0.3306
  188MOL   H23249226   2.406   4.603   3.701  0.8775  1.6387 -1.7899
  188MOL   H23349227   2.601   4.643   3.837  2.2554  0.6594 -0.9369
  188MOL   H23449228   2.571   4.467   3.847  0.3579  0.1071  0.3015
  188MOL   H23549229   2.703   4.539   3.758 -0.3841 -0.8615 -0.5331
  188MOL   C23649230   2.572   4.734   3.350  0.7940  0.8025 -0.1514
  188MOL   C23749231   2.578   4.670   3.207  0.1878  0.4959 -0.1021
  188MOL   O23849232   2.680   4.574   3.203  0.7784 -0.1703  0.3909
  188MOL   C23949233   2.659   4.445   3.154 -0.4705  0.3338 -0.0132
  188MOL   C24049234   2.796   4.376   3.156 -0.3215  0.0913 -0.1680
  188MOL   H24149235   2.666   4.763   3.397  0.9983 -0.7016  0.4017
  188MOL   H24249236   2.538   4.837   3.343  0.9321  1.0456  2.2187
  188MOL   H24349237   2.480   4.631   3.180  0.1101  0.5097  0.1568
  188MOL   H24449238   2.610   4.435   3.057 -0.8684 -0.2551  0.2371
  188MOL   H24549239   2.585   4.413   3.228 -1.9546  2.6247 -0.4454
  188MOL   H24649240   2.855   4.460   3.117  0.2220  0.6370  1.7673
  188MOL   H24749241   2.829   4.346   3.255 -2.9574 -0.0266  0.6997
  188MOL   H24849242   2.814   4.295   3.085  1.5285 -1.4176  1.9245
  188MOL   C24949243   2.616   4.767   3.086 -0.3108  0.1231 -0.0276
  188MOL   C25049244   2.521   4.882   3.044 -1.2055  0.6524  0.2397
  188MOL   O25149245   2.580   4.948   2.931 -0.4813  0.0764 -0.5861
  188MOL   C25249246   2.496   5.047   2.878 -0.3611  0.5625  0.1935
  188MOL   C25349247   2.396   4.987   2.769 -0.8137  0.9147 -0.3760
  188MOL   H25449248   2.625   4.702   2.999  3.0910 -0.2867  0.5651
  188MOL   H25549249   2.718   4.802   3.102  0.2417 -1.1900 -0.6501
  188MOL   H25649250   2.422   4.843   3.021 -1.0546  0.7795 -0.6705
  188MOL   H25749251   2.554   5.131   2.839 -0.5476 -0.3944 -2.2506
  188MOL   H25849252   2.436   5.094   2.957  2.2136  1.6960  1.5183
  188MOL   H25949253   2.467   4.957   2.691  0.1190  1.5027  0.2387
  188MOL   H26049254   2.341   4.896   2.793 -0.5650  0.2492 -2.2396
  188MOL   H26149255   2.340   5.065   2.717  1.0828  0.3729 -3.3571
  188MOL   H26249256   2.517   4.949   3.130 -1.7213 -0.0103  0.7373
  189MOL     C149257   3.880   5.028   3.116 -0.2777 -0.6331 -0.6621
  189MOL     C249258   3.750   4.944   3.142  0.2371  0.0664 -0.1145
  189MOL     O349259   3.765   4.869   3.256 -0.1432  0.0195 -0.2449
  189MOL     C449260   3.712   4.924   3.380 -0.1117  0.0439  0.7213
  189MOL     C549261   3.737   4.828   3.496 -0.8014  0.1909  0.1587
  189MOL     H649262   3.892   5.085   3.209  0.4836 -1.4922 -0.2324
  189MOL     H749263   3.969   4.967   3.103  0.4371 -0.3287  2.2811
  189MOL     H849264   3.666   5.012   3.162  2.0047  1.7711  1.7232
  189MOL     H949265   3.603   4.934   3.372 -0.0848 -0.6043 -0.7156
  189MOL    H1049266   3.753   5.023   3.398 -0.8993  0.5078  0.0310
  189MOL    H1149267   3.844   4.806   3.497 -0.7834  0.3189  1.1924
  189MOL    H1249268   3.724   4.865   3.597  0.6801  2.6504 -0.5067
  189MOL    H1349269   3.688   4.731   3.486 -0.1585 -0.0851 -0.3864
  189MOL    H1449270   3.869   5.110   3.045  2.6639  0.3771 -0.0024
  189MOL    C1549271   3.721   4.853   3.022 -0.2995  0.1269 -0.0021
  189MOL    C1649272   3.571   4.822   2.996 -0.6393 -0.5585  0.3742
  189MOL    O1749273   3.523   4.947   2.970 -0.2729  0.1162 -0.5516
  189MOL    C1849274   3.407   4.965   2.883  0.0348 -0.5223 -0.2810
  189MOL    C1949275   3.375   5.115   2.857  0.7798  0.2073  0.4237
  189MOL    H2049276   3.782   4.763   3.024  2.4787  1.8730 -2.2016
  189MOL    H2149277   3.760   4.897   2.930  0.2268  0.1844  0.2472
  189MOL    H2249278   3.560   4.756   2.910  1.5894 -0.1215 -0.2877
  189MOL    H2349279   3.318   4.926   2.933  0.9016  1.6042  2.9966
  189MOL    H2449280   3.422   4.918   2.785 -0.3806 -0.5390 -0.3365
  189MOL    H2549281   3.356   5.169   2.950  1.8506 -1.5895  1.7284
  189MOL    H2649282   3.287   5.113   2.792  2.0584 -2.8134 -1.3569
  189MOL    H2749283   3.444   5.171   2.795  0.8404 -1.9137 -1.4867
  189MOL    C2849284   3.497   4.749   3.107  0.0681  0.8090  0.5569
  189MOL    C2949285   3.523   4.596   3.115 -0.1364  0.5148 -0.0333
  189MOL    O3049286   3.413   4.534   3.194  0.0760 -0.2758 -0.1597
  189MOL    C3149287   3.318   4.451   3.126 -0.8776 -0.1392 -0.2031
  189MOL    C3249288   3.256   4.358   3.225 -0.2819  0.1328 -0.3375
  189MOL    H3349289   3.389   4.756   3.092 -0.1633  0.4658  2.0130
  189MOL    H3449290   3.525   4.801   3.199  0.1459 -3.6275  3.2105
  189MOL    H3549291   3.527   4.565   3.010  0.1447  1.2249 -0.2415
  189MOL    H3649292   3.369   4.394   3.049  1.7783 -1.6810  2.5813
  189MOL    H3749293   3.251   4.523   3.079  1.0461  1.0858 -1.0994
  189MOL    H3849294   3.170   4.302   3.187  0.0057  1.8250 -3.6420
  189MOL    H3949295   3.334   4.285   3.250 -1.7266 -2.1277 -2.2559
  189MOL    H4049296   3.236   4.403   3.322  0.3134  1.1124 -0.6691
  189MOL    C4149297   3.646   4.570   3.205 -0.6258  0.3288 -0.4131
  189MOL    C4249298   3.713   4.433   3.205  0.2953 -0.0069  0.0782
  189MOL    O4349299   3.653   4.359   3.314  0.1736  0.2128 -0.1338
  189MOL    C4449300   3.633   4.227   3.284 -0.3122 -0.2143 -0.6386
  189MOL    C4549301   3.608   4.149   3.423  0.2402  0.0456 -0.4696
  189MOL    H4649302   3.614   4.600   3.305  0.0285 -0.6116  0.0911
  189MOL    H4749303   3.720   4.647   3.183  0.1007 -0.2167  0.0895
  189MOL    H4849304   3.682   4.395   3.108  0.2231 -0.6862  0.3588
  189MOL    H4949305   3.721   4.188   3.233  0.6333  2.8231 -1.4216
  189MOL    H5049306   3.544   4.205   3.225  0.4092 -0.6689 -1.5503
  189MOL    H5149307   3.503   4.153   3.452  0.7632 -0.0554  1.4761
  189MOL    H5249308   3.635   4.044   3.408 -1.7215 -0.6086  0.3589
  189MOL    H5349309   3.658   4.193   3.509  0.7306 -2.8001  0.7622
  189MOL    C5449310   3.864   4.434   3.204  0.3415  0.9261 -0.8276
  189MOL    C5549311   3.933   4.493   3.331 -0.8645 -0.4238 -0.5824
  189MOL    O5649312   4.053   4.548   3.292 -0.2866 -0.4637 -0.5230
  189MOL    C5749313   4.054   4.685   3.260 -0.8519 -0.0127  0.1285
  189MOL    C5849314   4.191   4.730   3.231 -0.7056  0.2815  0.5076
  189MOL    H5949315   3.888   4.499   3.120 -3.0348  2.5346 -0.6240
  189MOL    H6049316   3.895   4.332   3.184 -2.8110  0.1090 -1.9459
  189MOL    H6149317   3.862   4.567   3.371  1.6554  1.3071  0.8328
  189MOL    H6249318   4.016   4.735   3.349  0.5814 -0.5749  1.0636
  189MOL    H6349319   3.977   4.694   3.183  0.7716 -0.9914 -1.6601
  189MOL    H6449320   4.206   4.838   3.227  2.2902 -0.1681 -3.1558
  189MOL    H6549321   4.257   4.689   3.307 -0.4834  0.8266  0.6101
  189MOL    H6649322   4.222   4.674   3.143 -2.1410  0.4515 -0.1245
  189MOL    C6749323   3.959   4.378   3.424 -0.8160 -0.0949 -0.3069
  189MOL    C6849324   4.018   4.410   3.563 -0.2663 -0.1563  0.3632
  189MOL    O6949325   4.046   4.297   3.643 -0.2314 -1.0613 -0.4684
  189MOL    C7049326   4.140   4.199   3.599 -0.0819 -0.2791  0.2643
  189MOL    C7149327   4.239   4.183   3.707 -0.6755  0.1274  0.6579
  189MOL    H7249328   4.029   4.304   3.384 -0.9813  0.1206 -1.0080
  189MOL    H7349329   3.858   4.338   3.433 -0.3153 -1.3499 -0.1878
  189MOL    H7449330   4.106   4.471   3.545  0.1199 -0.1581  2.1784
  189MOL    H7549331   4.193   4.228   3.508 -1.2059 -4.7236 -1.9443
  189MOL    H7649332   4.089   4.104   3.584 -0.6604  0.0018  0.4543
  189MOL    H7749333   4.193   4.172   3.805 -0.9034  0.2322  0.5635
  189MOL    H7849334   4.298   4.092   3.705  2.1197  1.8678  1.4801
  189MOL    H7949335   4.305   4.270   3.702 -0.4220 -0.1005 -0.0193
  189MOL    C8049336   3.921   4.508   3.628 -0.0198 -0.3516  0.0659
  189MOL    C8149337   3.964   4.549   3.772 -0.0267  0.7670  0.0807
  189MOL    O8249338   3.852   4.641   3.804 -0.4695  0.4979  0.2030
  189MOL    C8349339   3.776   4.607   3.914  0.0862 -0.0845 -0.1506
  189MOL    C8449340   3.664   4.709   3.917 -0.5046  0.5646  0.2009
  189MOL    H8549341   3.818   4.473   3.626 -0.7800  1.7566  0.5356
  189MOL    H8649342   3.926   4.601   3.572  0.7975 -1.7028 -2.1544
  189MOL    H8749343   3.953   4.449   3.813 -0.5196  1.2623  1.1691
  189MOL    H8849344   3.838   4.601   4.003 -0.1913  0.5220  0.0891
  189MOL    H8949345   3.744   4.504   3.893 -1.0998  0.0786  0.7727
  189MOL    H9049346   3.578   4.685   3.981  0.3346 -1.2967  0.6561
  189MOL    H9149347   3.706   4.808   3.935 -1.0861  0.6568  1.0905
  189MOL    H9249348   3.620   4.717   3.818 -2.0782  1.0477  0.9082
  189MOL    C9349349   4.107   4.608   3.797 -0.2157 -0.1187  0.5031
  189MOL    C9449350   4.138   4.602   3.946 -0.0016  0.8690  0.6272
  189MOL    O9549351   4.251   4.685   3.962  0.0959  0.2025 -0.0987
  189MOL    C9649352   4.218   4.822   3.996  0.1889  0.5774 -0.0343
  189MOL    C9749353   4.341   4.910   3.973  0.6092 -0.2758  0.9390
  189MOL    H9849354   4.110   4.712   3.764 -0.9441 -1.0079 -2.5607
  189MOL    H9949355   4.177   4.549   3.737 -0.3925 -0.4219  0.5953
  189MOL   H10049356   4.058   4.642   4.008 -0.6138  1.2292 -0.3706
  189MOL   H10149357   4.198   4.822   4.103 -2.1882  2.3936 -0.4509
  189MOL   H10249358   4.123   4.861   3.961 -0.1387  1.3943  1.6903
  189MOL   H10349359   4.425   4.861   4.023  2.7534 -1.2186 -3.3830
  189MOL   H10449360   4.361   4.915   3.866 -1.3189 -0.2097  0.5588
  189MOL   H10549361   4.329   5.013   4.006 -0.8255 -0.3059  0.5527
  189MOL   C10649362   4.187   4.463   3.985 -0.3012  0.0184 -0.4924
  189MOL   C10749363   4.189   4.427   4.133  0.1654 -0.4504  0.0110
  189MOL   O10849364   4.046   4.429   4.175 -0.0264  0.1024  0.0631
  189MOL   C10949365   4.004   4.328   4.274  0.2669  0.2174  0.2086
  189MOL   C11049366   3.849   4.344   4.280 -0.2041 -0.7139  0.4082
  189MOL   H11149367   4.287   4.441   3.946  0.1797  2.2206 -0.5546
  189MOL   H11249368   4.132   4.384   3.934 -0.8337 -0.1774  0.3795
  189MOL   H11349369   4.237   4.332   4.156 -0.7379 -0.7186  0.7888
  189MOL   H11449370   4.041   4.341   4.376  1.2313  1.0878 -0.2449
  189MOL   H11549371   4.043   4.230   4.245  1.3181  0.8833 -0.6342
  189MOL   H11649372   3.799   4.337   4.183 -1.3820 -0.3953  0.9826
  189MOL   H11749373   3.805   4.276   4.353  2.1331 -0.1742  2.3861
  189MOL   H11849374   3.831   4.447   4.311  0.4615 -0.5246  0.1607
  189MOL   C11949375   4.264   4.525   4.222 -0.0578 -0.2744 -0.4231
  189MOL   C12049376   4.417   4.507   4.216  0.8036 -0.0316  0.1512
  189MOL   O12149377   4.468   4.370   4.243 -0.2156 -0.3035 -0.2608
  189MOL   C12249378   4.512   4.290   4.133  0.0110  0.4120  0.6149
  189MOL   C12349379   4.580   4.155   4.153 -0.3490  0.8702  0.0535
  189MOL   H12449380   4.238   4.515   4.327  1.1028  1.7490  0.0955
  189MOL   H12549381   4.240   4.628   4.195 -2.9057 -1.2957 -2.0006
  189MOL   H12649382   4.448   4.532   4.115  2.8679 -2.0875  0.2239
  189MOL   H12749383   4.586   4.356   4.085  1.7049 -2.1818 -0.4580
  189MOL   H12849384   4.435   4.285   4.057  1.6360  3.3443 -1.3576
  189MOL   H12949385   4.519   4.099   4.224  0.8072 -0.4210  0.0527
  189MOL   H13049386   4.596   4.099   4.061  0.0720  0.0092  0.6457
  189MOL   H13149387   4.681   4.172   4.191  0.2566 -0.6513 -0.8440
  189MOL   C13249388   4.484   4.593   4.322 -0.4742  0.2026  0.2046
  189MOL   C13349389   4.637   4.595   4.297  0.5739  0.4420  0.0136
  189MOL   O13449390   4.700   4.648   4.418  0.3147  0.2964 -0.3397
  189MOL   C13549391   4.808   4.568   4.464 -0.5217  0.1813 -0.4156
  189MOL   C13649392   4.741   4.446   4.532  0.4380  0.8742  0.2607
  189MOL   H13749393   4.467   4.554   4.422 -0.8693  0.6617  0.3098
  189MOL   H13849394   4.444   4.694   4.329  0.4610  0.5777  0.1957
  189MOL   H13949395   4.672   4.494   4.276 -2.5744 -0.5596 -0.7163
  189MOL   H14049396   4.879   4.611   4.534 -0.5382 -2.0511  1.0301
  189MOL   H14149397   4.874   4.527   4.388  1.1097 -0.9214  1.5485
  189MOL   H14249398   4.653   4.405   4.482 -1.4746  0.2106  3.9633
  189MOL   H14349399   4.812   4.364   4.532 -1.4404 -0.8289 -2.0154
  189MOL   H14449400   4.713   4.463   4.636  0.2004 -1.0120  0.5328
  189MOL   C14549401   4.680   4.693   4.185  0.0112 -0.2633  0.1600
  189MOL   C14649402   4.769   4.630   4.076  0.0388 -0.6714  0.6887
  189MOL   O14749403   4.880   4.563   4.149 -0.0856  0.0611  0.0791
  189MOL   C14849404   4.954   4.468   4.085 -0.1693  0.0205 -0.2025
  189MOL   C14949405   5.052   4.420   4.195 -0.6014 -0.3117  0.1966
  189MOL   H15049406   4.737   4.771   4.235 -2.5335  2.0460 -0.4461
  189MOL   H15149407   4.595   4.742   4.136 -0.1914  0.4309  1.2036
  189MOL   H15249408   4.708   4.553   4.030  1.4982 -1.2711 -0.2768
  189MOL   H15349409   5.019   4.502   4.005 -2.1685  0.4824 -1.6595
  189MOL   H15449410   4.885   4.394   4.043 -0.0553 -0.5678  0.6256
  189MOL   H15549411   4.995   4.379   4.278  0.1944 -0.2871  0.7629
  189MOL   H15649412   5.106   4.331   4.161 -0.7752  0.0951 -1.1961
  189MOL   H15749413   5.116   4.500   4.231 -1.1533  0.7446 -1.1191
  189MOL   C15849414   4.835   4.733   3.980 -0.0328 -0.6162 -0.2237
  189MOL   C15949415   4.744   4.792   3.863 -0.1584 -0.4076 -0.4475
  189MOL   O16049416   4.702   4.686   3.788 -0.1644 -0.4849  0.8145
  189MOL   C16149417   4.570   4.675   3.741  0.1965  0.2567  0.6892
  189MOL   C16249418   4.571   4.555   3.645 -0.4756  0.2509 -0.3666
  189MOL   H16349419   4.926   4.693   3.936  0.5174 -0.4671  0.7586
  189MOL   H16449420   4.870   4.822   4.033 -0.3042 -1.1947  0.9643
  189MOL   H16549421   4.651   4.842   3.890  0.3949  1.1497 -1.4058
  189MOL   H16649422   4.553   4.765   3.681  3.4584  0.6271  0.2311
  189MOL   H16749423   4.495   4.664   3.819  0.6018  0.5291  1.1242
  189MOL   H16849424   4.605   4.462   3.689 -0.9109  0.0509 -0.4446
  189MOL   H16949425   4.480   4.536   3.588  0.3973 -4.6661 -0.3218
  189MOL   H17049426   4.646   4.578   3.569  1.1367 -0.6005  0.9534
  189MOL   C17149427   4.821   4.885   3.771 -0.1689  0.6423 -0.1454
  189MOL   C17249428   4.821   5.029   3.824 -0.2332 -0.4113 -0.9762
  189MOL   O17349429   4.700   5.109   3.792  0.2674  0.0189  0.0955
  189MOL   C17449430   4.644   5.145   3.919 -0.1867 -0.0939  0.6104
  189MOL   C17549431   4.547   5.253   3.904  0.7582  0.2218  0.5413
  189MOL   H17649432   4.764   4.886   3.679  0.2480  0.1634 -0.4080
  189MOL   H17749433   4.925   4.856   3.754  0.7875  3.5149  0.3851
  189MOL   H17849434   4.830   5.017   3.932 -0.8881 -0.2785 -0.9066
  189MOL   H17949435   4.729   5.184   3.975  1.4015 -2.8598  0.1894
  189MOL   H18049436   4.605   5.062   3.978 -0.7421  1.0455  1.8817
  189MOL   H18149437   4.516   5.316   3.987  1.8015 -2.1276  2.7587
  189MOL   H18249438   4.578   5.320   3.824  1.7974 -0.8331  0.0364
  189MOL   H18349439   4.450   5.216   3.868  1.7605 -1.7207 -0.2407
  189MOL   C18449440   4.942   5.114   3.772 -0.2602  0.4725  0.3778
  189MOL   C18549441   4.940   5.152   3.623  0.4244 -0.1983 -0.3748
  189MOL   O18649442   4.996   5.045   3.556 -0.0090  0.9956  0.3278
  189MOL   C18749443   4.942   5.028   3.428  0.2613 -0.4262  0.2478
  189MOL   C18849444   5.003   4.898   3.376  0.1483  0.4272 -0.0269
  189MOL   H18949445   5.034   5.061   3.796  0.4191  1.1177 -0.7659
  189MOL   H19049446   4.956   5.206   3.829  0.3197  0.0755  0.8861
  189MOL   H19149447   4.841   5.170   3.582  0.6563  1.6846 -0.1587
  189MOL   H19249448   4.959   5.108   3.356  0.9734  0.8688  1.8238
  189MOL   H19349449   4.834   5.016   3.434  0.3931 -1.1742  1.1913
  189MOL   H19449450   4.991   4.875   3.270 -0.6262  1.0208 -0.0742
  189MOL   H19549451   5.110   4.887   3.392  0.0531  0.0057  0.3287
  189MOL   H19649452   4.952   4.824   3.437  1.1025  0.6357  1.0493
  189MOL   C19749453   5.023   5.288   3.595  0.1762  0.3242  0.1765
  189MOL   C19849454   4.942   5.413   3.640 -0.3773 -0.5404 -0.5707
  189MOL   O19949455   4.892   5.480   3.527  0.4547  0.1228 -0.2005
  189MOL   C20049456   4.765   5.431   3.486  0.0303 -0.8860  0.1736
  189MOL   C20149457   4.692   5.532   3.404  0.1195 -0.2451  0.2662
  189MOL   H20249458   5.046   5.276   3.489  0.0668  1.9622 -0.0434
  189MOL   H20349459   5.114   5.271   3.652 -0.1978 -1.1504  0.3597
  189MOL   H20449460   4.866   5.401   3.717 -0.1209  0.5718 -0.1314
  189MOL   H20549461   4.697   5.420   3.570 -0.7630  2.2091 -0.0319
  189MOL   H20649462   4.763   5.333   3.438  0.0094 -0.3047 -1.0208
  189MOL   H20749463   4.674   5.620   3.466  1.2030 -0.9824  1.6815
  189MOL   H20849464   4.751   5.564   3.318 -3.4640  3.4230 -0.9499
  189MOL   H20949465   4.602   5.483   3.369 -0.2007  0.6184 -0.1289
  189MOL   C21049466   5.047   5.512   3.680  0.2008 -0.0735  0.5009
  189MOL   C21149467   5.084   5.499   3.832 -0.3867 -0.1016  0.3784
  189MOL   O21249468   4.965   5.538   3.912 -0.4983 -0.1748 -0.9569
  189MOL   C21349469   4.919   5.443   4.007  0.1863  0.4850 -0.3475
  189MOL   C21449470   4.802   5.508   4.072  0.7181  0.6657 -0.2635
  189MOL   H21549471   5.003   5.610   3.661 -0.0655 -0.2481  0.2066
  189MOL   H21649472   5.132   5.506   3.612 -0.3639 -0.3526 -0.1898
  189MOL   H21749473   5.106   5.397   3.865 -1.0061 -0.8630 -1.4707
  189MOL   H21849474   5.002   5.428   4.076 -0.6439 -0.3175  0.4954
  189MOL   H21949475   4.883   5.344   3.978 -1.4463  0.5565  1.3079
  189MOL   H22049476   4.818   5.615   4.083  0.4040  0.8497 -1.5180
  189MOL   H22149477   4.705   5.510   4.022  0.4754  2.3965  0.2341
  189MOL   H22249478   4.791   5.473   4.175  0.8669 -0.1047 -0.5077
  189MOL   C22349479   5.210   5.593   3.854  0.4519 -0.2785 -0.1973
  189MOL   C22449480   5.262   5.597   4.002 -0.3359  0.2218 -0.5872
  189MOL   O22549481   5.326   5.722   4.035  0.3224  0.7223  0.2880
  189MOL   C22649482   5.242   5.829   4.077 -0.3644  0.7572  0.0459
  189MOL   C22749483   5.314   5.912   4.179  0.0734  0.1470 -0.2724
  189MOL   H22849484   5.179   5.695   3.835  1.5115 -0.4917 -3.2986
  189MOL   H22949485   5.294   5.574   3.788  0.4386 -0.1082 -0.2618
  189MOL   H23049486   5.176   5.583   4.068  0.5849  2.0207  1.0585
  189MOL   H23149487   5.150   5.793   4.123 -0.6185  1.2021 -0.1141
  189MOL   H23249488   5.206   5.893   3.997  0.3844 -1.2901 -1.9766
  189MOL   H23349489   5.411   5.930   4.132 -0.1061  0.3813 -0.5530
  189MOL   H23449490   5.262   6.008   4.187  0.4276  0.6415 -3.4541
  189MOL   H23549491   5.318   5.867   4.278 -1.9668 -0.1534 -0.3090
  189MOL   C23649492   5.348   5.470   4.029  0.5044 -0.1453  0.2677
  189MOL   C23749493   5.472   5.453   3.939  0.4424  1.1338  0.2169
  189MOL   O23849494   5.434   5.396   3.810  0.0762  0.5074 -0.7393
  189MOL   C23949495   5.521   5.424   3.703  0.3341 -0.7518  0.2573
  189MOL   C24049496   5.518   5.308   3.605  0.1304  0.2276 -0.4178
  189MOL   H24149497   5.285   5.383   4.010  0.1773  0.1708 -0.1174
  189MOL   H24249498   5.387   5.459   4.130 -1.7283  1.3147  1.3193
  189MOL   H24349499   5.518   5.551   3.925 -0.2239  1.3400 -0.5826
  189MOL   H24449500   5.628   5.436   3.717  0.3837 -1.6110  0.6651
  189MOL   H24549501   5.493   5.512   3.646 -3.3419 -0.0205  2.9716
  189MOL   H24649502   5.414   5.298   3.576  0.6938 -1.0995 -2.0554
  189MOL   H24749503   5.576   5.347   3.522 -0.2600  1.9247  0.0997
  189MOL   H24849504   5.558   5.219   3.654 -0.7353  0.9306  1.6513
  189MOL   C24949505   5.579   5.355   4.003  0.6632  0.0479  0.2135
  189MOL   C25049506   5.667   5.425   4.115 -0.7330  0.2325 -0.4050
  189MOL   O25149507   5.767   5.330   4.151 -0.3881 -0.6327  0.3339
  189MOL   C25249508   5.831   5.380   4.265 -1.0138 -0.6638  0.1462
  189MOL   C25349509   5.911   5.270   4.345  0.3986 -0.4601  0.3170
  189MOL   H25449510   5.647   5.310   3.931 -0.1286  0.6884 -0.9487
  189MOL   H25549511   5.527   5.269   4.044 -1.1895  0.8273 -0.4446
  189MOL   H25649512   5.722   5.510   4.076  0.8866 -1.6198 -2.2967
  189MOL   H25749513   5.768   5.443   4.328 -0.1174  0.6928 -0.2836
  189MOL   H25849514   5.904   5.460   4.247 -2.0726 -0.2888 -2.6961
  189MOL   H25949515   5.953   5.313   4.436 -0.8604  0.4498  0.4963
  189MOL   H26049516   5.845   5.193   4.384 -0.9637  1.1936  1.3708
  189MOL   H26149517   5.992   5.227   4.287  1.1048  3.1723 -1.5385
  189MOL   H26249518   5.602   5.445   4.200  1.2974  1.1385  0.9519
  190MOL     C149519   6.639   1.408   2.632 -0.2842 -0.1252 -0.1609
  190MOL     C249520   6.543   1.359   2.742 -0.3100  0.6506 -0.5033
  190MOL     O349521   6.619   1.331   2.862  0.1763 -0.3304 -0.2136
  190MOL     C449522   6.645   1.434   2.953 -0.2761 -0.2614 -0.5925
  190MOL     C549523   6.724   1.383   3.075 -0.6682 -0.0769 -0.1273
  190MOL     H649524   6.590   1.400   2.535  0.6612  0.2801 -0.6711
  190MOL     H749525   6.665   1.513   2.645  0.2364  0.2351 -3.7335
  190MOL     H849526   6.456   1.424   2.755 -1.4323 -0.4650 -2.2172
  190MOL     H949527   6.550   1.473   2.987  1.9191  4.0370  0.9417
  190MOL    H1049528   6.695   1.516   2.901 -0.1068 -2.0565 -3.3610
  190MOL    H1149529   6.783   1.292   3.058  0.0373  0.4076 -0.3032
  190MOL    H1249530   6.786   1.467   3.105  1.4540 -1.5333 -0.2916
  190MOL    H1349531   6.663   1.374   3.165 -0.6224  1.0605  0.0244
  190MOL    H1449532   6.733   1.354   2.625 -0.1729 -0.4880  3.2194
  190MOL    C1549533   6.489   1.227   2.696 -0.0184  0.5641  0.1115
  190MOL    C1649534   6.386   1.154   2.786 -1.0579 -0.2186 -0.5944
  190MOL    O1749535   6.355   1.027   2.731 -0.2415 -0.2368  0.0611
  190MOL    C1849536   6.435   0.920   2.793 -0.7576 -0.4681 -1.0553
  190MOL    C1949537   6.390   0.775   2.753 -0.3479  0.0980  0.2253
  190MOL    H2049538   6.575   1.167   2.668 -0.3118  0.0468  0.3168
  190MOL    H2149539   6.445   1.240   2.597 -0.3045  1.6829  0.3835
  190MOL    H2249540   6.433   1.148   2.884  1.5189  0.0963 -1.7864
  190MOL    H2349541   6.442   0.937   2.901  0.4649  2.2859 -1.5117
  190MOL    H2449542   6.540   0.938   2.769 -0.5928  0.2088  0.1374
  190MOL    H2549543   6.409   0.762   2.647  0.7921  1.6599  0.2120
  190MOL    H2649544   6.284   0.758   2.771  0.0218  0.0172  2.4751
  190MOL    H2749545   6.450   0.710   2.817 -0.9228 -0.7395 -0.0822
  190MOL    C2849546   6.252   1.229   2.783 -0.9893 -0.0760 -0.1723
  190MOL    C2949547   6.131   1.170   2.847 -0.4815  0.6076 -0.4402
  190MOL    O3049548   6.030   1.271   2.850  0.1301  0.1359 -0.0052
  190MOL    C3149549   5.928   1.245   2.756 -0.3670  0.0357  0.4066
  190MOL    C3249550   5.838   1.360   2.768  0.0816  0.2635 -0.1500
  190MOL    H3349551   6.226   1.254   2.681 -0.7481 -0.1487 -0.2508
  190MOL    H3449552   6.266   1.328   2.827  1.4777 -0.5419  0.1601
  190MOL    H3549553   6.106   1.088   2.780  0.6975  0.0039 -0.1649
  190MOL    H3649554   5.869   1.157   2.783 -1.5968  0.1080 -1.9489
  190MOL    H3749555   5.977   1.246   2.659  0.0286  1.8495  0.5990
  190MOL    H3849556   5.795   1.362   2.868 -3.3983  0.4377 -1.5855
  190MOL    H3949557   5.887   1.456   2.755 -1.0900  1.0117  0.8676
  190MOL    H4049558   5.754   1.355   2.699  0.9675 -2.5637 -1.0763
  190MOL    C4149559   6.145   1.111   2.991  0.0307  0.1096 -0.2820
  190MOL    C4249560   6.008   1.051   3.056  0.6699  0.2061  0.2184
  190MOL    O4349561   6.036   1.019   3.194 -0.0612  0.0521 -0.5402
  190MOL    C4449562   6.072   1.126   3.283 -0.3072  0.4050  0.1252
  190MOL    C4549563   6.040   1.088   3.429 -0.2318 -0.3106 -0.5688
  190MOL    H4649564   6.193   1.192   3.046 -1.4646  0.6671  0.2333
  190MOL    H4749565   6.220   1.033   2.989 -0.4860 -0.4740  1.5307
  190MOL    H4849566   5.931   1.126   3.070  0.9928  0.8187 -1.2126
  190MOL    H4949567   6.012   1.214   3.258 -0.4684 -0.0526 -1.1448
  190MOL    H5049568   6.173   1.164   3.267 -0.2017  0.0176 -0.1193
  190MOL    H5149569   6.111   1.016   3.468 -0.0755 -0.7129 -1.5625
  190MOL    H5249570   6.037   1.173   3.497  0.5744 -0.1216 -0.7619
  190MOL    H5349571   5.946   1.032   3.431  0.3176 -1.3853 -2.5605
  190MOL    C5449572   5.946   0.927   2.976 -0.1573  0.4192 -0.0889
  190MOL    C5549573   5.795   0.887   3.001  0.3216  0.9468 -0.4204
  190MOL    O5649574   5.724   1.000   2.953  0.5774 -0.0229  0.3486
  190MOL    C5749575   5.628   0.956   2.857 -0.1587 -0.6895 -0.1586
  190MOL    C5849576   5.560   1.077   2.795 -0.3587  0.1449 -0.3863
  190MOL    H5949577   6.005   0.841   3.009 -1.4754 -0.9751 -1.2219
  190MOL    H6049578   5.964   0.933   2.868  2.1793  0.6847  0.3113
  190MOL    H6149579   5.782   0.797   2.941  0.4547  2.2452 -2.4617
  190MOL    H6249580   5.560   0.892   2.914  1.1050  2.0553  4.6796
  190MOL    H6349581   5.664   0.881   2.787 -0.7438 -1.0421 -0.0897
  190MOL    H6449582   5.462   1.049   2.757 -0.5283  0.2707 -0.0401
  190MOL    H6549583   5.556   1.148   2.878  1.8795 -0.6513  0.4447
  190MOL    H6649584   5.615   1.133   2.719  0.8524  0.9356  1.0268
  190MOL    C6749585   5.763   0.876   3.150  0.3160  0.5362 -0.3077
  190MOL    C6849586   5.832   0.758   3.227 -0.3610 -0.2415 -0.0043
  190MOL    O6949587   5.796   0.639   3.172 -0.2465  0.4015  0.3150
  190MOL    C7049588   5.903   0.568   3.109 -0.0962  0.1071  0.6932
  190MOL    C7149589   5.874   0.420   3.108 -0.1566  0.3594  0.1661
  190MOL    H7249590   5.657   0.852   3.146  0.3216  0.6256 -1.0979
  190MOL    H7349591   5.769   0.970   3.204 -0.2577 -0.6348  1.8671
  190MOL    H7449592   5.940   0.774   3.221 -0.3622 -0.5543 -0.9398
  190MOL    H7549593   5.998   0.581   3.161  0.5603 -0.6016 -0.3247
  190MOL    H7649594   5.917   0.613   3.011  0.1451 -0.5988  0.3996
  190MOL    H7749595   5.954   0.350   3.083 -0.3360  0.0217  0.5405
  190MOL    H7849596   5.841   0.388   3.206 -1.4508  0.8185 -0.1178
  190MOL    H7949597   5.792   0.406   3.038  0.7997  0.8838 -1.0800
  190MOL    C8049598   5.791   0.745   3.373  0.0096 -0.0599  0.6624
  190MOL    C8149599   5.876   0.647   3.451  0.2489  0.1514  0.2884
  190MOL    O8249600   5.823   0.654   3.585  0.0946  0.2685 -0.1137
  190MOL    C8349601   5.713   0.576   3.619  0.2238 -0.6113 -0.4310
  190MOL    C8449602   5.704   0.585   3.770 -0.1875  0.2766 -0.8796
  190MOL    H8549603   5.687   0.712   3.383  0.1928 -0.6393  0.6941
  190MOL    H8649604   5.810   0.843   3.416  2.4129 -0.3725  0.3817
  190MOL    H8749605   5.873   0.548   3.406  0.6851  0.5314 -0.5920
  190MOL    H8849606   5.722   0.475   3.579  0.5015 -1.0111  0.6123
  190MOL    H8949607   5.630   0.635   3.582  0.9051  0.7541  0.1815
  190MOL    H9049608   5.622   0.527   3.812  0.7584 -0.7179 -0.3727
  190MOL    H9149609   5.794   0.544   3.815 -0.9545  1.5057  1.8509
  190MOL    H9249610   5.695   0.690   3.796 -3.0532 -0.3167  0.6746
  190MOL    C9349611   6.026   0.696   3.464  0.0567 -0.3002 -0.2105
  190MOL    C9449612   6.098   0.622   3.583  0.2169  0.4559 -0.1017
  190MOL    O9549613   6.232   0.663   3.573  0.8139  0.2735 -0.8999
  190MOL    C9649614   6.285   0.684   3.699  0.1560  0.2982  0.1131
  190MOL    C9749615   6.440   0.698   3.689  0.0539 -0.0058  0.2445
  190MOL    H9849616   6.041   0.803   3.472  2.2714 -0.4255 -2.0952
  190MOL    H9949617   6.082   0.673   3.373  2.3784  1.8195  0.6489
  190MOL   H10049618   6.058   0.662   3.676  2.3095 -0.0176  1.0427
  190MOL   H10149619   6.264   0.599   3.764  0.0922  0.3532  0.1648
  190MOL   H10249620   6.257   0.782   3.737  2.5875  0.1553  2.3765
  190MOL   H10349621   6.470   0.757   3.776  0.4409 -1.2712  0.9896
  190MOL   H10449622   6.506   0.611   3.697  2.5753  1.7502 -0.7736
  190MOL   H10549623   6.466   0.758   3.602  2.0964 -0.6643  0.3813
  190MOL   C10649624   6.092   0.472   3.572 -0.8142  0.8553 -0.3107
  190MOL   C10749625   6.122   0.404   3.438  0.5094 -0.0693  0.1068
  190MOL   O10849626   6.091   0.268   3.456  0.1880  0.2329  0.1741
  190MOL   C10949627   6.065   0.188   3.335 -0.3503  0.1422  0.1457
  190MOL   C11049628   6.049   0.039   3.370 -0.0521 -0.3819 -0.2458
  190MOL   H11149629   5.991   0.444   3.603 -0.6264 -1.3143 -1.5478
  190MOL   H11249630   6.146   0.423   3.654 -2.4163  0.5982  0.6105
  190MOL   H11349631   6.067   0.437   3.350  0.5610 -0.0164  0.0945
  190MOL   H11449632   6.150   0.186   3.266 -0.0178 -3.1938  0.5625
  190MOL   H11549633   5.980   0.233   3.282  0.7803  0.6738 -1.2622
  190MOL   H11649634   6.141   0.007   3.417  0.7538 -0.7896 -2.0488
  190MOL   H11749635   5.962   0.016   3.431 -0.8488  1.0296 -0.7973
  190MOL   H11849636   6.044   7.826   3.277  2.0187  0.8160 -1.1206
  190MOL   C11949637   6.276   0.415   3.409 -0.5058  0.5715 -0.1686
  190MOL   C12049638   6.329   0.493   3.284 -0.3987 -0.5854  0.3674
  190MOL   O12149639   6.282   0.418   3.163  0.0059  1.0417 -0.3897
  190MOL   C12249640   6.271   0.506   3.054 -0.5493 -0.1884 -0.1924
  190MOL   C12349641   6.245   0.423   2.931  0.4047 -0.4411 -0.4338
  190MOL   H12449642   6.317   0.314   3.411 -0.9615  0.3422 -1.5921
  190MOL   H12549643   6.329   0.474   3.484  0.3017 -1.1062  0.6054
  190MOL   H12649644   6.276   0.589   3.283 -2.2896 -1.5904 -1.9672
  190MOL   H12749645   6.355   0.574   3.043 -1.1067  0.5014 -0.2183
  190MOL   H12849646   6.194   0.579   3.079 -1.1459 -0.6714 -0.6231
  190MOL   H12949647   6.165   0.351   2.948  1.2826 -1.2229  0.3941
  190MOL   H13049648   6.216   0.487   2.847  0.3569  0.7090  0.4505
  190MOL   H13149649   6.331   0.360   2.909 -0.9357 -2.5559  0.2635
  190MOL   C13249650   6.494   0.486   3.277  0.0139 -0.7405 -0.1673
  190MOL   C13349651   6.571   0.614   3.308  0.0953  0.5977  0.0770
  190MOL   O13449652   6.517   0.721   3.225  0.4849  0.6024  0.3758
  190MOL   C13549653   6.474   0.841   3.281 -0.3121  0.9857 -0.5785
  190MOL   C13649654   6.393   0.929   3.185  0.4944  0.3534  0.0599
  190MOL   H13749655   6.528   0.452   3.179  1.4074 -0.0182  0.0549
  190MOL   H13849656   6.524   0.404   3.342  1.5348  0.5433  0.7862
  190MOL   H13949657   6.556   0.627   3.415  0.1474  0.5178  0.0938
  190MOL   H14049658   6.553   0.900   3.327  0.6768 -1.3238  0.7714
  190MOL   H14149659   6.411   0.820   3.367 -2.4697 -0.0029 -2.3580
  190MOL   H14249660   6.344   1.006   3.245  1.1142  0.0030  1.0310
  190MOL   H14349661   6.448   0.964   3.098 -1.8744  0.2353 -1.5565
  190MOL   H14449662   6.308   0.877   3.139 -0.1034  2.0701 -0.8016
  190MOL   C14549663   6.722   0.601   3.281 -0.0058  0.4297  0.1359
  190MOL   C14649664   6.821   0.569   3.399 -0.9001  0.0288  0.4538
  190MOL   O14749665   6.754   0.495   3.500 -0.1757 -0.8510  0.2201
  190MOL   C14849666   6.827   0.395   3.558  0.1774 -0.5727 -0.6687
  190MOL   C14949667   6.757   0.316   3.674 -0.0011 -0.1298 -0.4061
  190MOL   H15049668   6.757   0.687   3.225  0.9443 -0.9772 -1.5091
  190MOL   H15149669   6.735   0.522   3.207  3.6295  1.5700 -0.5250
  190MOL   H15249670   6.910   0.526   3.353 -1.3308 -1.0285  0.6054
  190MOL   H15349671   6.910   0.443   3.609 -1.4618  2.9357 -1.1533
  190MOL   H15449672   6.873   0.322   3.492 -0.7848 -0.6987 -1.2035
  190MOL   H15549673   6.668   0.263   3.642 -2.0540  1.0774  3.0573
  190MOL   H15649674   6.830   0.252   3.725  1.9093  1.9899 -0.4151
  190MOL   H15749675   6.717   0.391   3.741 -1.7556  0.5447 -2.1656
  190MOL   C15849676   6.870   0.703   3.465 -0.4412 -0.0775  0.3615
  190MOL   C15949677   6.990   0.770   3.392  0.0418 -0.2346  0.8739
  190MOL   O16049678   7.113   0.744   3.467  0.0818  0.2363 -0.7566
  190MOL   C16149679   7.153   0.604   3.451  0.1765 -0.2929  0.3656
  190MOL   C16249680   7.288   0.573   3.538 -0.3490  0.2878  0.3659
  190MOL   H16349681   6.906   0.690   3.567 -0.3724  1.3260  0.5381
  190MOL   H16449682   6.790   0.774   3.490 -0.5580  0.0557 -0.4001
  190MOL   H16549683   6.998   0.735   3.289 -0.9300 -2.8381  1.6382
  190MOL   H16649684   7.172   0.583   3.345 -1.0077 -0.7157  0.2377
  190MOL   H16749685   7.077   0.536   3.489  0.6313  0.5227  2.8056
  190MOL   H16849686   7.346   0.664   3.554 -0.0103  0.5281 -1.9971
  190MOL   H16949687   7.266   0.544   3.641 -1.0574  2.9265  0.9944
  190MOL   H17049688   7.348   0.499   3.486 -2.3322 -0.7533 -0.5013
  190MOL   C17149689   6.982   0.929   3.389 -0.1815  0.0136 -0.2122
  190MOL   C17249690   6.867   0.986   3.302 -0.0189 -0.3421  0.9689
  190MOL   O17349691   6.884   0.928   3.175 -0.2953  0.5267 -0.1041
  190MOL   C17449692   6.789   0.968   3.082  0.5121 -0.5362 -0.0706
  190MOL   C17549693   6.796   0.866   2.972  0.2122 -0.0622  0.8573
  190MOL   H17649694   7.078   0.969   3.357  0.8840 -1.1497  1.4696
  190MOL   H17749695   6.974   0.966   3.492 -2.6212  1.3275 -0.8271
  190MOL   H17849696   6.773   0.940   3.333  0.3052 -1.8696 -0.2194
  190MOL   H17949697   6.813   1.072   3.057 -0.3189 -0.3194  0.0341
  190MOL   H18049698   6.694   0.956   3.134 -0.9905 -2.2363 -3.1088
  190MOL   H18149699   6.775   0.765   3.007  0.7544 -0.4847 -0.0153
  190MOL   H18249700   6.732   0.885   2.886  0.3260 -0.8773  0.5898
  190MOL   H18349701   6.896   0.860   2.929 -0.5882  1.2016 -1.2985
  190MOL   C18449702   6.845   1.142   3.309  0.4511 -0.4777  0.1269
  190MOL   C18549703   6.824   1.202   3.447 -0.1214 -0.5545 -0.5657
  190MOL   O18649704   6.706   1.146   3.481  0.8884  0.1079 -0.5056
  190MOL   C18749705   6.680   1.143   3.623 -0.0017  0.6915  0.3295
  190MOL   C18849706   6.568   1.048   3.656 -0.4899  0.3428 -0.2916
  190MOL   H18949707   6.751   1.163   3.258  0.9852  0.4143 -0.5119
  190MOL   H19049708   6.926   1.199   3.262 -0.8820  1.8223  0.5236
  190MOL   H19149709   6.898   1.163   3.517  0.1569 -1.9531 -1.6081
  190MOL   H19249710   6.650   1.240   3.663 -0.0371  1.1220 -0.7100
  190MOL   H19349711   6.767   1.112   3.681  1.2645 -2.7116 -3.1973
  190MOL   H19449712   6.482   1.068   3.592 -0.5721  1.0382  0.0314
  190MOL   H19549713   6.613   0.951   3.636 -1.8426 -0.6748  1.3895
  190MOL   H19649714   6.538   1.055   3.761  0.2097  2.8968 -0.2164
  190MOL   C19749715   6.815   1.356   3.455  0.2613  0.0990  0.5824
  190MOL   C19849716   6.940   1.439   3.416  0.1981  0.2114 -0.0094
  190MOL   O19949717   7.044   1.398   3.504  0.3758  0.1782  0.1850
  190MOL   C20049718   7.153   1.339   3.441 -0.0778 -0.3370  0.2472
  190MOL   C20149719   7.282   1.341   3.524  0.0598  0.3350 -0.3590
  190MOL   H20249720   6.788   1.385   3.556  0.0233  4.1559 -0.5484
  190MOL   H20349721   6.725   1.378   3.397 -0.4110 -0.8752  1.2435
  190MOL   H20449722   6.959   1.409   3.313  1.5609 -0.6733  0.4879
  190MOL   H20549723   7.179   1.396   3.351  0.7556 -4.0903 -2.0093
  190MOL   H20649724   7.127   1.237   3.415  0.1568  0.1102 -1.8547
  190MOL   H20749725   7.355   1.270   3.484  1.5567  2.7441 -2.0579
  190MOL   H20849726   7.338   1.434   3.509 -0.9972  1.0011 -0.2611
  190MOL   H20949727   7.278   1.322   3.631 -0.5892 -0.1504 -0.4682
  190MOL   C21049728   6.917   1.586   3.435 -0.2965  0.3699 -0.1387
  190MOL   C21149729   7.041   1.682   3.403 -0.1669 -0.0349 -0.1385
  190MOL   O21249730   7.064   1.763   3.510 -0.4281  0.0957  0.1923
  190MOL   C21349731   7.126   1.703   3.625 -0.3310 -0.1909 -0.4456
  190MOL   C21449732   7.172   1.807   3.724 -0.4069  0.2787 -0.2235
  190MOL   H21549733   6.891   1.598   3.540  1.1916 -0.1892  0.3159
  190MOL   H21649734   6.835   1.617   3.370  0.9814  3.2871 -0.4400
  190MOL   H21749735   7.122   1.615   3.377 -2.0818 -2.3525 -0.3435
  190MOL   H21849736   7.210   1.650   3.583 -1.5328 -2.5916  0.0674
  190MOL   H21949737   7.064   1.622   3.663 -1.5296  1.2705  0.8270
  190MOL   H22049738   7.226   1.886   3.672  0.5018 -0.7671 -0.9074
  190MOL   H22149739   7.097   1.848   3.791  0.7917  1.9938  0.1207
  190MOL   H22249740   7.256   1.774   3.785 -0.4740  2.8274  1.3161
  190MOL   C22349741   7.005   1.780   3.285 -0.5638  0.7148 -0.0962
  190MOL   C22449742   6.997   1.719   3.141  1.0918 -0.3416 -0.3193
  190MOL   O22549743   7.122   1.657   3.100  0.1853  0.0362 -0.2766
  190MOL   C22649744   7.224   1.751   3.061  0.0336  1.0521  0.2309
  190MOL   C22749745   7.349   1.665   3.039  0.1460 -1.1002 -0.1635
  190MOL   H22849746   7.090   1.848   3.278  0.1522 -0.2596 -1.3232
  190MOL   H22949747   6.912   1.826   3.317 -0.1817  2.4778 -1.4365
  190MOL   H23049748   6.924   1.638   3.141 -0.4502  1.0098 -0.0873
  190MOL   H23149749   7.240   1.809   3.152 -0.9016 -0.5349  1.4493
  190MOL   H23249750   7.200   1.802   2.968  0.2357  0.7920  0.0356
  190MOL   H23349751   7.376   1.599   3.121  0.7921 -1.8832 -0.9821
  190MOL   H23449752   7.342   1.595   2.955  1.3015 -2.5211  0.9161
  190MOL   H23549753   7.441   1.717   3.012 -0.5388 -0.1663 -0.7438
  190MOL   C23649754   6.949   1.829   3.044 -0.3446  0.1637 -0.2554
  190MOL   C23749755   6.807   1.893   3.060  0.2225 -0.4954  0.0138
  190MOL   O23849756   6.702   1.795   3.055 -0.4335  0.4432  0.2824
  190MOL   C23949757   6.575   1.841   3.076 -0.5557 -0.1448 -0.0965
  190MOL   C24049758   6.481   1.725   3.113  0.9925  0.0590  0.5968
  190MOL   H24149759   6.952   1.796   2.940  0.2398  2.8509 -1.1484
  190MOL   H24249760   7.018   1.913   3.052  0.4147 -0.5287  0.4376
  190MOL   H24349761   6.797   1.930   3.162 -0.6527 -0.7461  0.0303
  190MOL   H24449762   6.544   1.887   2.982 -1.7318 -0.4611  0.1234
  190MOL   H24549763   6.575   1.918   3.152 -2.2116 -1.5991  1.4219
  190MOL   H24649764   6.523   1.666   3.194 -1.3150 -3.8483 -0.9462
  190MOL   H24749765   6.390   1.770   3.152 -0.3707  0.6857 -3.1203
  190MOL   H24849766   6.445   1.676   3.024 -0.4259 -0.1111  1.2540
  190MOL   C24949767   6.784   2.009   2.959 -0.2536 -0.1666 -0.2128
  190MOL   C25049768   6.792   1.967   2.811  0.5081 -0.5711  0.1847
  190MOL   O25149769   6.764   2.077   2.724  0.2262  0.1881  0.1630
  190MOL   C25249770   6.778   2.032   2.589 -0.7822 -0.4007 -0.1449
  190MOL   C25349771   6.766   2.163   2.508  0.1014  0.3037  1.1993
  190MOL   H25449772   6.850   2.092   2.982 -0.5206 -0.1046  0.3561
  190MOL   H25549773   6.682   2.046   2.974  0.1095  0.0442  1.9490
  190MOL   H25649774   6.890   1.927   2.786  0.9330  0.9652 -0.6218
  190MOL   H25749775   6.686   1.982   2.559  0.1218 -1.2415 -1.5244
  190MOL   H25849776   6.867   1.978   2.558 -1.1117 -0.7041 -0.5542
  190MOL   H25949777   6.826   2.244   2.550  2.2721 -0.3022 -0.6590
  190MOL   H26049778   6.783   2.138   2.404 -0.2521  0.9059  0.9932
  190MOL   H26149779   6.663   2.197   2.498 -1.0600 -3.2017  0.7995
  190MOL   H26249780   6.716   1.894   2.780  0.9713 -1.1616  0.4203
   7.84356   7.84356   7.84356
