;
; Gromacs include topology (itp) file.
; For Molecular Group XYZ
; Force field scheme: opls2005
; Produced from DL_FIELD v4.11
;


[ moleculetype ]
; name    nrexcl
XYZ    3

[ atoms ]
; nr   type   resnr   residu    atom    cgnr    charge    mass
    1        CT    1  MOL      C1     1  -0.1800000   12.0115
    2        CT    1  MOL      C2     2   0.1700000   12.0115
    3        OS    1  MOL      O3     3  -0.4000000   15.9994
    4        CT    1  MOL      C4     4   0.1400000   12.0115
    5        CT    1  MOL      C5     5  -0.1800000   12.0115
    6        HC    1  MOL      H6     6   0.0600000    1.0080
    7        HC    1  MOL      H7     7   0.0600000    1.0080
    8        HC    1  MOL      H8     8   0.0300000    1.0080
    9        HC    1  MOL      H9     9   0.0300000    1.0080
   10        HC    1  MOL     H10    10   0.0300000    1.0080
   11        HC    1  MOL     H11    11   0.0600000    1.0080
   12        HC    1  MOL     H12    12   0.0600000    1.0080
   13        HC    1  MOL     H13    13   0.0600000    1.0080
   14        HC    1  MOL     H14    14   0.0600000    1.0080
   15        CT    1  MOL     C15    15  -0.1200000   12.0115
   16        CT    1  MOL     C16    16   0.1700000   12.0115
   17        OS    1  MOL     O17    17  -0.4000000   15.9994
   18        CT    1  MOL     C18    18   0.1400000   12.0115
   19        CT    1  MOL     C19    19  -0.1800000   12.0115
   20        HC    1  MOL     H20    20   0.0600000    1.0080
   21        HC    1  MOL     H21    21   0.0600000    1.0080
   22        HC    1  MOL     H22    22   0.0300000    1.0080
   23        HC    1  MOL     H23    23   0.0300000    1.0080
   24        HC    1  MOL     H24    24   0.0300000    1.0080
   25        HC    1  MOL     H25    25   0.0600000    1.0080
   26        HC    1  MOL     H26    26   0.0600000    1.0080
   27        HC    1  MOL     H27    27   0.0600000    1.0080
   28        CT    1  MOL     C28    28  -0.1200000   12.0115
   29        CT    1  MOL     C29    29   0.1700000   12.0115
   30        OS    1  MOL     O30    30  -0.4000000   15.9994
   31        CT    1  MOL     C31    31   0.1400000   12.0115
   32        CT    1  MOL     C32    32  -0.1800000   12.0115
   33        HC    1  MOL     H33    33   0.0600000    1.0080
   34        HC    1  MOL     H34    34   0.0600000    1.0080
   35        HC    1  MOL     H35    35   0.0300000    1.0080
   36        HC    1  MOL     H36    36   0.0300000    1.0080
   37        HC    1  MOL     H37    37   0.0300000    1.0080
   38        HC    1  MOL     H38    38   0.0600000    1.0080
   39        HC    1  MOL     H39    39   0.0600000    1.0080
   40        HC    1  MOL     H40    40   0.0600000    1.0080
   41        CT    1  MOL     C41    41  -0.1200000   12.0115
   42        CT    1  MOL     C42    42   0.1700000   12.0115
   43        OS    1  MOL     O43    43  -0.4000000   15.9994
   44        CT    1  MOL     C44    44   0.1400000   12.0115
   45        CT    1  MOL     C45    45  -0.1800000   12.0115
   46        HC    1  MOL     H46    46   0.0600000    1.0080
   47        HC    1  MOL     H47    47   0.0600000    1.0080
   48        HC    1  MOL     H48    48   0.0300000    1.0080
   49        HC    1  MOL     H49    49   0.0300000    1.0080
   50        HC    1  MOL     H50    50   0.0300000    1.0080
   51        HC    1  MOL     H51    51   0.0600000    1.0080
   52        HC    1  MOL     H52    52   0.0600000    1.0080
   53        HC    1  MOL     H53    53   0.0600000    1.0080
   54        CT    1  MOL     C54    54  -0.1200000   12.0115
   55        CT    1  MOL     C55    55   0.1700000   12.0115
   56        OS    1  MOL     O56    56  -0.4000000   15.9994
   57        CT    1  MOL     C57    57   0.1400000   12.0115
   58        CT    1  MOL     C58    58  -0.1800000   12.0115
   59        HC    1  MOL     H59    59   0.0600000    1.0080
   60        HC    1  MOL     H60    60   0.0600000    1.0080
   61        HC    1  MOL     H61    61   0.0300000    1.0080
   62        HC    1  MOL     H62    62   0.0300000    1.0080
   63        HC    1  MOL     H63    63   0.0300000    1.0080
   64        HC    1  MOL     H64    64   0.0600000    1.0080
   65        HC    1  MOL     H65    65   0.0600000    1.0080
   66        HC    1  MOL     H66    66   0.0600000    1.0080
   67        CT    1  MOL     C67    67  -0.1200000   12.0115
   68        CT    1  MOL     C68    68   0.1700000   12.0115
   69        OS    1  MOL     O69    69  -0.4000000   15.9994
   70        CT    1  MOL     C70    70   0.1400000   12.0115
   71        CT    1  MOL     C71    71  -0.1800000   12.0115
   72        HC    1  MOL     H72    72   0.0600000    1.0080
   73        HC    1  MOL     H73    73   0.0600000    1.0080
   74        HC    1  MOL     H74    74   0.0300000    1.0080
   75        HC    1  MOL     H75    75   0.0300000    1.0080
   76        HC    1  MOL     H76    76   0.0300000    1.0080
   77        HC    1  MOL     H77    77   0.0600000    1.0080
   78        HC    1  MOL     H78    78   0.0600000    1.0080
   79        HC    1  MOL     H79    79   0.0600000    1.0080
   80        CT    1  MOL     C80    80  -0.1200000   12.0115
   81        CT    1  MOL     C81    81   0.1700000   12.0115
   82        OS    1  MOL     O82    82  -0.4000000   15.9994
   83        CT    1  MOL     C83    83   0.1400000   12.0115
   84        CT    1  MOL     C84    84  -0.1800000   12.0115
   85        HC    1  MOL     H85    85   0.0600000    1.0080
   86        HC    1  MOL     H86    86   0.0600000    1.0080
   87        HC    1  MOL     H87    87   0.0300000    1.0080
   88        HC    1  MOL     H88    88   0.0300000    1.0080
   89        HC    1  MOL     H89    89   0.0300000    1.0080
   90        HC    1  MOL     H90    90   0.0600000    1.0080
   91        HC    1  MOL     H91    91   0.0600000    1.0080
   92        HC    1  MOL     H92    92   0.0600000    1.0080
   93        CT    1  MOL     C93    93  -0.1200000   12.0115
   94        CT    1  MOL     C94    94   0.1700000   12.0115
   95        OS    1  MOL     O95    95  -0.4000000   15.9994
   96        CT    1  MOL     C96    96   0.1400000   12.0115
   97        CT    1  MOL     C97    97  -0.1800000   12.0115
   98        HC    1  MOL     H98    98   0.0600000    1.0080
   99        HC    1  MOL     H99    99   0.0600000    1.0080
  100        HC    1  MOL    H100   100   0.0300000    1.0080
  101        HC    1  MOL    H101   101   0.0300000    1.0080
  102        HC    1  MOL    H102   102   0.0300000    1.0080
  103        HC    1  MOL    H103   103   0.0600000    1.0080
  104        HC    1  MOL    H104   104   0.0600000    1.0080
  105        HC    1  MOL    H105   105   0.0600000    1.0080
  106        CT    1  MOL    C106   106  -0.1200000   12.0115
  107        CT    1  MOL    C107   107   0.1700000   12.0115
  108        OS    1  MOL    O108   108  -0.4000000   15.9994
  109        CT    1  MOL    C109   109   0.1400000   12.0115
  110        CT    1  MOL    C110   110  -0.1800000   12.0115
  111        HC    1  MOL    H111   111   0.0600000    1.0080
  112        HC    1  MOL    H112   112   0.0600000    1.0080
  113        HC    1  MOL    H113   113   0.0300000    1.0080
  114        HC    1  MOL    H114   114   0.0300000    1.0080
  115        HC    1  MOL    H115   115   0.0300000    1.0080
  116        HC    1  MOL    H116   116   0.0600000    1.0080
  117        HC    1  MOL    H117   117   0.0600000    1.0080
  118        HC    1  MOL    H118   118   0.0600000    1.0080
  119        CT    1  MOL    C119   119  -0.1200000   12.0115
  120        CT    1  MOL    C120   120   0.1700000   12.0115
  121        OS    1  MOL    O121   121  -0.4000000   15.9994
  122        CT    1  MOL    C122   122   0.1400000   12.0115
  123        CT    1  MOL    C123   123  -0.1800000   12.0115
  124        HC    1  MOL    H124   124   0.0600000    1.0080
  125        HC    1  MOL    H125   125   0.0600000    1.0080
  126        HC    1  MOL    H126   126   0.0300000    1.0080
  127        HC    1  MOL    H127   127   0.0300000    1.0080
  128        HC    1  MOL    H128   128   0.0300000    1.0080
  129        HC    1  MOL    H129   129   0.0600000    1.0080
  130        HC    1  MOL    H130   130   0.0600000    1.0080
  131        HC    1  MOL    H131   131   0.0600000    1.0080
  132        CT    1  MOL    C132   132  -0.1200000   12.0115
  133        CT    1  MOL    C133   133   0.1700000   12.0115
  134        OS    1  MOL    O134   134  -0.4000000   15.9994
  135        CT    1  MOL    C135   135   0.1400000   12.0115
  136        CT    1  MOL    C136   136  -0.1800000   12.0115
  137        HC    1  MOL    H137   137   0.0600000    1.0080
  138        HC    1  MOL    H138   138   0.0600000    1.0080
  139        HC    1  MOL    H139   139   0.0300000    1.0080
  140        HC    1  MOL    H140   140   0.0300000    1.0080
  141        HC    1  MOL    H141   141   0.0300000    1.0080
  142        HC    1  MOL    H142   142   0.0600000    1.0080
  143        HC    1  MOL    H143   143   0.0600000    1.0080
  144        HC    1  MOL    H144   144   0.0600000    1.0080
  145        CT    1  MOL    C145   145  -0.1200000   12.0115
  146        CT    1  MOL    C146   146   0.1700000   12.0115
  147        OS    1  MOL    O147   147  -0.4000000   15.9994
  148        CT    1  MOL    C148   148   0.1400000   12.0115
  149        CT    1  MOL    C149   149  -0.1800000   12.0115
  150        HC    1  MOL    H150   150   0.0600000    1.0080
  151        HC    1  MOL    H151   151   0.0600000    1.0080
  152        HC    1  MOL    H152   152   0.0300000    1.0080
  153        HC    1  MOL    H153   153   0.0300000    1.0080
  154        HC    1  MOL    H154   154   0.0300000    1.0080
  155        HC    1  MOL    H155   155   0.0600000    1.0080
  156        HC    1  MOL    H156   156   0.0600000    1.0080
  157        HC    1  MOL    H157   157   0.0600000    1.0080
  158        CT    1  MOL    C158   158  -0.1200000   12.0115
  159        CT    1  MOL    C159   159   0.1700000   12.0115
  160        OS    1  MOL    O160   160  -0.4000000   15.9994
  161        CT    1  MOL    C161   161   0.1400000   12.0115
  162        CT    1  MOL    C162   162  -0.1800000   12.0115
  163        HC    1  MOL    H163   163   0.0600000    1.0080
  164        HC    1  MOL    H164   164   0.0600000    1.0080
  165        HC    1  MOL    H165   165   0.0300000    1.0080
  166        HC    1  MOL    H166   166   0.0300000    1.0080
  167        HC    1  MOL    H167   167   0.0300000    1.0080
  168        HC    1  MOL    H168   168   0.0600000    1.0080
  169        HC    1  MOL    H169   169   0.0600000    1.0080
  170        HC    1  MOL    H170   170   0.0600000    1.0080
  171        CT    1  MOL    C171   171  -0.1200000   12.0115
  172        CT    1  MOL    C172   172   0.1700000   12.0115
  173        OS    1  MOL    O173   173  -0.4000000   15.9994
  174        CT    1  MOL    C174   174   0.1400000   12.0115
  175        CT    1  MOL    C175   175  -0.1800000   12.0115
  176        HC    1  MOL    H176   176   0.0600000    1.0080
  177        HC    1  MOL    H177   177   0.0600000    1.0080
  178        HC    1  MOL    H178   178   0.0300000    1.0080
  179        HC    1  MOL    H179   179   0.0300000    1.0080
  180        HC    1  MOL    H180   180   0.0300000    1.0080
  181        HC    1  MOL    H181   181   0.0600000    1.0080
  182        HC    1  MOL    H182   182   0.0600000    1.0080
  183        HC    1  MOL    H183   183   0.0600000    1.0080
  184        CT    1  MOL    C184   184  -0.1200000   12.0115
  185        CT    1  MOL    C185   185   0.1700000   12.0115
  186        OS    1  MOL    O186   186  -0.4000000   15.9994
  187        CT    1  MOL    C187   187   0.1400000   12.0115
  188        CT    1  MOL    C188   188  -0.1800000   12.0115
  189        HC    1  MOL    H189   189   0.0600000    1.0080
  190        HC    1  MOL    H190   190   0.0600000    1.0080
  191        HC    1  MOL    H191   191   0.0300000    1.0080
  192        HC    1  MOL    H192   192   0.0300000    1.0080
  193        HC    1  MOL    H193   193   0.0300000    1.0080
  194        HC    1  MOL    H194   194   0.0600000    1.0080
  195        HC    1  MOL    H195   195   0.0600000    1.0080
  196        HC    1  MOL    H196   196   0.0600000    1.0080
  197        CT    1  MOL    C197   197  -0.1200000   12.0115
  198        CT    1  MOL    C198   198   0.1700000   12.0115
  199        OS    1  MOL    O199   199  -0.4000000   15.9994
  200        CT    1  MOL    C200   200   0.1400000   12.0115
  201        CT    1  MOL    C201   201  -0.1800000   12.0115
  202        HC    1  MOL    H202   202   0.0600000    1.0080
  203        HC    1  MOL    H203   203   0.0600000    1.0080
  204        HC    1  MOL    H204   204   0.0300000    1.0080
  205        HC    1  MOL    H205   205   0.0300000    1.0080
  206        HC    1  MOL    H206   206   0.0300000    1.0080
  207        HC    1  MOL    H207   207   0.0600000    1.0080
  208        HC    1  MOL    H208   208   0.0600000    1.0080
  209        HC    1  MOL    H209   209   0.0600000    1.0080
  210        CT    1  MOL    C210   210  -0.1200000   12.0115
  211        CT    1  MOL    C211   211   0.1700000   12.0115
  212        OS    1  MOL    O212   212  -0.4000000   15.9994
  213        CT    1  MOL    C213   213   0.1400000   12.0115
  214        CT    1  MOL    C214   214  -0.1800000   12.0115
  215        HC    1  MOL    H215   215   0.0600000    1.0080
  216        HC    1  MOL    H216   216   0.0600000    1.0080
  217        HC    1  MOL    H217   217   0.0300000    1.0080
  218        HC    1  MOL    H218   218   0.0300000    1.0080
  219        HC    1  MOL    H219   219   0.0300000    1.0080
  220        HC    1  MOL    H220   220   0.0600000    1.0080
  221        HC    1  MOL    H221   221   0.0600000    1.0080
  222        HC    1  MOL    H222   222   0.0600000    1.0080
  223        CT    1  MOL    C223   223  -0.1200000   12.0115
  224        CT    1  MOL    C224   224   0.1700000   12.0115
  225        OS    1  MOL    O225   225  -0.4000000   15.9994
  226        CT    1  MOL    C226   226   0.1400000   12.0115
  227        CT    1  MOL    C227   227  -0.1800000   12.0115
  228        HC    1  MOL    H228   228   0.0600000    1.0080
  229        HC    1  MOL    H229   229   0.0600000    1.0080
  230        HC    1  MOL    H230   230   0.0300000    1.0080
  231        HC    1  MOL    H231   231   0.0300000    1.0080
  232        HC    1  MOL    H232   232   0.0300000    1.0080
  233        HC    1  MOL    H233   233   0.0600000    1.0080
  234        HC    1  MOL    H234   234   0.0600000    1.0080
  235        HC    1  MOL    H235   235   0.0600000    1.0080
  236        CT    1  MOL    C236   236  -0.1200000   12.0115
  237        CT    1  MOL    C237   237   0.1700000   12.0115
  238        OS    1  MOL    O238   238  -0.4000000   15.9994
  239        CT    1  MOL    C239   239   0.1400000   12.0115
  240        CT    1  MOL    C240   240  -0.1800000   12.0115
  241        HC    1  MOL    H241   241   0.0600000    1.0080
  242        HC    1  MOL    H242   242   0.0600000    1.0080
  243        HC    1  MOL    H243   243   0.0300000    1.0080
  244        HC    1  MOL    H244   244   0.0300000    1.0080
  245        HC    1  MOL    H245   245   0.0300000    1.0080
  246        HC    1  MOL    H246   246   0.0600000    1.0080
  247        HC    1  MOL    H247   247   0.0600000    1.0080
  248        HC    1  MOL    H248   248   0.0600000    1.0080
  249        CT    1  MOL    C249   249  -0.1200000   12.0115
  250        CT    1  MOL    C250   250   0.1400000   12.0115
  251        OS    1  MOL    O251   251  -0.4000000   15.9994
  252        CT    1  MOL    C252   252   0.1400000   12.0115
  253        CT    1  MOL    C253   253  -0.1800000   12.0115
  254        HC    1  MOL    H254   254   0.0600000    1.0080
  255        HC    1  MOL    H255   255   0.0600000    1.0080
  256        HC    1  MOL    H256   256   0.0300000    1.0080
  257        HC    1  MOL    H257   257   0.0300000    1.0080
  258        HC    1  MOL    H258   258   0.0300000    1.0080
  259        HC    1  MOL    H259   259   0.0600000    1.0080
  260        HC    1  MOL    H260   260   0.0600000    1.0080
  261        HC    1  MOL    H261   261   0.0600000    1.0080
  262        HC    1  MOL    H262   262   0.0300000    1.0080

[ bonds ]
      1      2   1      0.1529 224262.4000
      1      6   1      0.1090 284512.0000
      1      7   1      0.1090 284512.0000
      1     14   1      0.1090 284512.0000
      2      3   1      0.1410 267776.0000
      2      8   1      0.1090 284512.0000
      2     15   1      0.1529 224262.4000
      3      4   1      0.1410 267776.0000
      4      5   1      0.1529 224262.4000
      4      9   1      0.1090 284512.0000
      4     10   1      0.1090 284512.0000
      5     11   1      0.1090 284512.0000
      5     12   1      0.1090 284512.0000
      5     13   1      0.1090 284512.0000
     15     16   1      0.1529 224262.4000
     15     20   1      0.1090 284512.0000
     15     21   1      0.1090 284512.0000
     16     17   1      0.1410 267776.0000
     16     22   1      0.1090 284512.0000
     16     28   1      0.1529 224262.4000
     17     18   1      0.1410 267776.0000
     18     19   1      0.1529 224262.4000
     18     23   1      0.1090 284512.0000
     18     24   1      0.1090 284512.0000
     19     25   1      0.1090 284512.0000
     19     26   1      0.1090 284512.0000
     19     27   1      0.1090 284512.0000
     28     29   1      0.1529 224262.4000
     28     33   1      0.1090 284512.0000
     28     34   1      0.1090 284512.0000
     29     30   1      0.1410 267776.0000
     29     35   1      0.1090 284512.0000
     29     41   1      0.1529 224262.4000
     30     31   1      0.1410 267776.0000
     31     32   1      0.1529 224262.4000
     31     36   1      0.1090 284512.0000
     31     37   1      0.1090 284512.0000
     32     38   1      0.1090 284512.0000
     32     39   1      0.1090 284512.0000
     32     40   1      0.1090 284512.0000
     41     42   1      0.1529 224262.4000
     41     46   1      0.1090 284512.0000
     41     47   1      0.1090 284512.0000
     42     43   1      0.1410 267776.0000
     42     48   1      0.1090 284512.0000
     42     54   1      0.1529 224262.4000
     43     44   1      0.1410 267776.0000
     44     45   1      0.1529 224262.4000
     44     49   1      0.1090 284512.0000
     44     50   1      0.1090 284512.0000
     45     51   1      0.1090 284512.0000
     45     52   1      0.1090 284512.0000
     45     53   1      0.1090 284512.0000
     54     55   1      0.1529 224262.4000
     54     59   1      0.1090 284512.0000
     54     60   1      0.1090 284512.0000
     55     56   1      0.1410 267776.0000
     55     61   1      0.1090 284512.0000
     55     67   1      0.1529 224262.4000
     56     57   1      0.1410 267776.0000
     57     58   1      0.1529 224262.4000
     57     62   1      0.1090 284512.0000
     57     63   1      0.1090 284512.0000
     58     64   1      0.1090 284512.0000
     58     65   1      0.1090 284512.0000
     58     66   1      0.1090 284512.0000
     67     68   1      0.1529 224262.4000
     67     72   1      0.1090 284512.0000
     67     73   1      0.1090 284512.0000
     68     69   1      0.1410 267776.0000
     68     74   1      0.1090 284512.0000
     68     80   1      0.1529 224262.4000
     69     70   1      0.1410 267776.0000
     70     71   1      0.1529 224262.4000
     70     75   1      0.1090 284512.0000
     70     76   1      0.1090 284512.0000
     71     77   1      0.1090 284512.0000
     71     78   1      0.1090 284512.0000
     71     79   1      0.1090 284512.0000
     80     81   1      0.1529 224262.4000
     80     85   1      0.1090 284512.0000
     80     86   1      0.1090 284512.0000
     81     82   1      0.1410 267776.0000
     81     87   1      0.1090 284512.0000
     81     93   1      0.1529 224262.4000
     82     83   1      0.1410 267776.0000
     83     84   1      0.1529 224262.4000
     83     88   1      0.1090 284512.0000
     83     89   1      0.1090 284512.0000
     84     90   1      0.1090 284512.0000
     84     91   1      0.1090 284512.0000
     84     92   1      0.1090 284512.0000
     93     94   1      0.1529 224262.4000
     93     98   1      0.1090 284512.0000
     93     99   1      0.1090 284512.0000
     94     95   1      0.1410 267776.0000
     94    100   1      0.1090 284512.0000
     94    106   1      0.1529 224262.4000
     95     96   1      0.1410 267776.0000
     96     97   1      0.1529 224262.4000
     96    101   1      0.1090 284512.0000
     96    102   1      0.1090 284512.0000
     97    103   1      0.1090 284512.0000
     97    104   1      0.1090 284512.0000
     97    105   1      0.1090 284512.0000
    106    107   1      0.1529 224262.4000
    106    111   1      0.1090 284512.0000
    106    112   1      0.1090 284512.0000
    107    108   1      0.1410 267776.0000
    107    113   1      0.1090 284512.0000
    107    119   1      0.1529 224262.4000
    108    109   1      0.1410 267776.0000
    109    110   1      0.1529 224262.4000
    109    114   1      0.1090 284512.0000
    109    115   1      0.1090 284512.0000
    110    116   1      0.1090 284512.0000
    110    117   1      0.1090 284512.0000
    110    118   1      0.1090 284512.0000
    119    120   1      0.1529 224262.4000
    119    124   1      0.1090 284512.0000
    119    125   1      0.1090 284512.0000
    120    121   1      0.1410 267776.0000
    120    126   1      0.1090 284512.0000
    120    132   1      0.1529 224262.4000
    121    122   1      0.1410 267776.0000
    122    123   1      0.1529 224262.4000
    122    127   1      0.1090 284512.0000
    122    128   1      0.1090 284512.0000
    123    129   1      0.1090 284512.0000
    123    130   1      0.1090 284512.0000
    123    131   1      0.1090 284512.0000
    132    133   1      0.1529 224262.4000
    132    137   1      0.1090 284512.0000
    132    138   1      0.1090 284512.0000
    133    134   1      0.1410 267776.0000
    133    139   1      0.1090 284512.0000
    133    145   1      0.1529 224262.4000
    134    135   1      0.1410 267776.0000
    135    136   1      0.1529 224262.4000
    135    140   1      0.1090 284512.0000
    135    141   1      0.1090 284512.0000
    136    142   1      0.1090 284512.0000
    136    143   1      0.1090 284512.0000
    136    144   1      0.1090 284512.0000
    145    146   1      0.1529 224262.4000
    145    150   1      0.1090 284512.0000
    145    151   1      0.1090 284512.0000
    146    147   1      0.1410 267776.0000
    146    152   1      0.1090 284512.0000
    146    158   1      0.1529 224262.4000
    147    148   1      0.1410 267776.0000
    148    149   1      0.1529 224262.4000
    148    153   1      0.1090 284512.0000
    148    154   1      0.1090 284512.0000
    149    155   1      0.1090 284512.0000
    149    156   1      0.1090 284512.0000
    149    157   1      0.1090 284512.0000
    158    159   1      0.1529 224262.4000
    158    163   1      0.1090 284512.0000
    158    164   1      0.1090 284512.0000
    159    160   1      0.1410 267776.0000
    159    165   1      0.1090 284512.0000
    159    171   1      0.1529 224262.4000
    160    161   1      0.1410 267776.0000
    161    162   1      0.1529 224262.4000
    161    166   1      0.1090 284512.0000
    161    167   1      0.1090 284512.0000
    162    168   1      0.1090 284512.0000
    162    169   1      0.1090 284512.0000
    162    170   1      0.1090 284512.0000
    171    172   1      0.1529 224262.4000
    171    176   1      0.1090 284512.0000
    171    177   1      0.1090 284512.0000
    172    173   1      0.1410 267776.0000
    172    178   1      0.1090 284512.0000
    172    184   1      0.1529 224262.4000
    173    174   1      0.1410 267776.0000
    174    175   1      0.1529 224262.4000
    174    179   1      0.1090 284512.0000
    174    180   1      0.1090 284512.0000
    175    181   1      0.1090 284512.0000
    175    182   1      0.1090 284512.0000
    175    183   1      0.1090 284512.0000
    184    185   1      0.1529 224262.4000
    184    189   1      0.1090 284512.0000
    184    190   1      0.1090 284512.0000
    185    186   1      0.1410 267776.0000
    185    191   1      0.1090 284512.0000
    185    197   1      0.1529 224262.4000
    186    187   1      0.1410 267776.0000
    187    188   1      0.1529 224262.4000
    187    192   1      0.1090 284512.0000
    187    193   1      0.1090 284512.0000
    188    194   1      0.1090 284512.0000
    188    195   1      0.1090 284512.0000
    188    196   1      0.1090 284512.0000
    197    198   1      0.1529 224262.4000
    197    202   1      0.1090 284512.0000
    197    203   1      0.1090 284512.0000
    198    199   1      0.1410 267776.0000
    198    204   1      0.1090 284512.0000
    198    210   1      0.1529 224262.4000
    199    200   1      0.1410 267776.0000
    200    201   1      0.1529 224262.4000
    200    205   1      0.1090 284512.0000
    200    206   1      0.1090 284512.0000
    201    207   1      0.1090 284512.0000
    201    208   1      0.1090 284512.0000
    201    209   1      0.1090 284512.0000
    210    211   1      0.1529 224262.4000
    210    215   1      0.1090 284512.0000
    210    216   1      0.1090 284512.0000
    211    212   1      0.1410 267776.0000
    211    217   1      0.1090 284512.0000
    211    223   1      0.1529 224262.4000
    212    213   1      0.1410 267776.0000
    213    214   1      0.1529 224262.4000
    213    218   1      0.1090 284512.0000
    213    219   1      0.1090 284512.0000
    214    220   1      0.1090 284512.0000
    214    221   1      0.1090 284512.0000
    214    222   1      0.1090 284512.0000
    223    224   1      0.1529 224262.4000
    223    228   1      0.1090 284512.0000
    223    229   1      0.1090 284512.0000
    224    225   1      0.1410 267776.0000
    224    230   1      0.1090 284512.0000
    224    236   1      0.1529 224262.4000
    225    226   1      0.1410 267776.0000
    226    227   1      0.1529 224262.4000
    226    231   1      0.1090 284512.0000
    226    232   1      0.1090 284512.0000
    227    233   1      0.1090 284512.0000
    227    234   1      0.1090 284512.0000
    227    235   1      0.1090 284512.0000
    236    237   1      0.1529 224262.4000
    236    241   1      0.1090 284512.0000
    236    242   1      0.1090 284512.0000
    237    238   1      0.1410 267776.0000
    237    243   1      0.1090 284512.0000
    237    249   1      0.1529 224262.4000
    238    239   1      0.1410 267776.0000
    239    240   1      0.1529 224262.4000
    239    244   1      0.1090 284512.0000
    239    245   1      0.1090 284512.0000
    240    246   1      0.1090 284512.0000
    240    247   1      0.1090 284512.0000
    240    248   1      0.1090 284512.0000
    249    250   1      0.1529 224262.4000
    249    254   1      0.1090 284512.0000
    249    255   1      0.1090 284512.0000
    250    251   1      0.1410 267776.0000
    250    256   1      0.1090 284512.0000
    250    262   1      0.1090 284512.0000
    251    252   1      0.1410 267776.0000
    252    253   1      0.1529 224262.4000
    252    257   1      0.1090 284512.0000
    252    258   1      0.1090 284512.0000
    253    259   1      0.1090 284512.0000
    253    260   1      0.1090 284512.0000
    253    261   1      0.1090 284512.0000

[ pairs ]
; ai   aj   funct   fudge_QQ  charge_i   charge_j   c6    c12
      6      3   2   0.50000     0.0600000   -0.4000000   2.066619e-04  7.875431e-08
      6      8   2   0.50000     0.0600000    0.0300000   6.128906e-05  1.496315e-08
      6     15   2   0.50000     0.0600000   -0.1200000   2.494471e-04  1.671101e-07
      7      3   2   0.50000     0.0600000   -0.4000000   2.066619e-04  7.875431e-08
      7      8   2   0.50000     0.0600000    0.0300000   6.128906e-05  1.496315e-08
      7     15   2   0.50000     0.0600000   -0.1200000   2.494471e-04  1.671101e-07
     14      3   2   0.50000     0.0600000   -0.4000000   2.066619e-04  7.875431e-08
     14      8   2   0.50000     0.0600000    0.0300000   6.128906e-05  1.496315e-08
     14     15   2   0.50000     0.0600000   -0.1200000   2.494471e-04  1.671101e-07
      1      4   2   0.50000    -0.1800000    0.1400000   1.015252e-03  1.866303e-06
      8      4   2   0.50000     0.0300000    0.1400000   2.494471e-04  1.671101e-07
     15      4   2   0.50000    -0.1200000    0.1400000   1.015252e-03  1.866303e-06
      1     16   2   0.50000    -0.1800000    0.1700000   1.015252e-03  1.866303e-06
      1     20   2   0.50000    -0.1800000    0.0600000   2.494471e-04  1.671101e-07
      1     21   2   0.50000    -0.1800000    0.0600000   2.494471e-04  1.671101e-07
      3     16   2   0.50000    -0.4000000    0.1700000   8.411158e-04  8.795366e-07
      3     20   2   0.50000    -0.4000000    0.0600000   2.066619e-04  7.875431e-08
      3     21   2   0.50000    -0.4000000    0.0600000   2.066619e-04  7.875431e-08
      8     16   2   0.50000     0.0300000    0.1700000   2.494471e-04  1.671101e-07
      8     20   2   0.50000     0.0300000    0.0600000   6.128906e-05  1.496315e-08
      8     21   2   0.50000     0.0300000    0.0600000   6.128906e-05  1.496315e-08
      2      5   2   0.50000     0.1700000   -0.1800000   1.015252e-03  1.866303e-06
      2      9   2   0.50000     0.1700000    0.0300000   2.494471e-04  1.671101e-07
      2     10   2   0.50000     0.1700000    0.0300000   2.494471e-04  1.671101e-07
      3     11   2   0.50000    -0.4000000    0.0600000   2.066619e-04  7.875431e-08
      3     12   2   0.50000    -0.4000000    0.0600000   2.066619e-04  7.875431e-08
      3     13   2   0.50000    -0.4000000    0.0600000   2.066619e-04  7.875431e-08
      9     11   2   0.50000     0.0300000    0.0600000   6.128906e-05  1.496315e-08
      9     12   2   0.50000     0.0300000    0.0600000   6.128906e-05  1.496315e-08
      9     13   2   0.50000     0.0300000    0.0600000   6.128906e-05  1.496315e-08
     10     11   2   0.50000     0.0300000    0.0600000   6.128906e-05  1.496315e-08
     10     12   2   0.50000     0.0300000    0.0600000   6.128906e-05  1.496315e-08
     10     13   2   0.50000     0.0300000    0.0600000   6.128906e-05  1.496315e-08
      2     17   2   0.50000     0.1700000   -0.4000000   8.411158e-04  8.795366e-07
      2     22   2   0.50000     0.1700000    0.0300000   2.494471e-04  1.671101e-07
      2     28   2   0.50000     0.1700000   -0.1200000   1.015252e-03  1.866303e-06
     20     17   2   0.50000     0.0600000   -0.4000000   2.066619e-04  7.875431e-08
     20     22   2   0.50000     0.0600000    0.0300000   6.128906e-05  1.496315e-08
     20     28   2   0.50000     0.0600000   -0.1200000   2.494471e-04  1.671101e-07
     21     17   2   0.50000     0.0600000   -0.4000000   2.066619e-04  7.875431e-08
     21     22   2   0.50000     0.0600000    0.0300000   6.128906e-05  1.496315e-08
     21     28   2   0.50000     0.0600000   -0.1200000   2.494471e-04  1.671101e-07
     15     18   2   0.50000    -0.1200000    0.1400000   1.015252e-03  1.866303e-06
     22     18   2   0.50000     0.0300000    0.1400000   2.494471e-04  1.671101e-07
     28     18   2   0.50000    -0.1200000    0.1400000   1.015252e-03  1.866303e-06
     15     29   2   0.50000    -0.1200000    0.1700000   1.015252e-03  1.866303e-06
     15     33   2   0.50000    -0.1200000    0.0600000   2.494471e-04  1.671101e-07
     15     34   2   0.50000    -0.1200000    0.0600000   2.494471e-04  1.671101e-07
     17     29   2   0.50000    -0.4000000    0.1700000   8.411158e-04  8.795366e-07
     17     33   2   0.50000    -0.4000000    0.0600000   2.066619e-04  7.875431e-08
     17     34   2   0.50000    -0.4000000    0.0600000   2.066619e-04  7.875431e-08
     22     29   2   0.50000     0.0300000    0.1700000   2.494471e-04  1.671101e-07
     22     33   2   0.50000     0.0300000    0.0600000   6.128906e-05  1.496315e-08
     22     34   2   0.50000     0.0300000    0.0600000   6.128906e-05  1.496315e-08
     16     19   2   0.50000     0.1700000   -0.1800000   1.015252e-03  1.866303e-06
     16     23   2   0.50000     0.1700000    0.0300000   2.494471e-04  1.671101e-07
     16     24   2   0.50000     0.1700000    0.0300000   2.494471e-04  1.671101e-07
     17     25   2   0.50000    -0.4000000    0.0600000   2.066619e-04  7.875431e-08
     17     26   2   0.50000    -0.4000000    0.0600000   2.066619e-04  7.875431e-08
     17     27   2   0.50000    -0.4000000    0.0600000   2.066619e-04  7.875431e-08
     23     25   2   0.50000     0.0300000    0.0600000   6.128906e-05  1.496315e-08
     23     26   2   0.50000     0.0300000    0.0600000   6.128906e-05  1.496315e-08
     23     27   2   0.50000     0.0300000    0.0600000   6.128906e-05  1.496315e-08
     24     25   2   0.50000     0.0300000    0.0600000   6.128906e-05  1.496315e-08
     24     26   2   0.50000     0.0300000    0.0600000   6.128906e-05  1.496315e-08
     24     27   2   0.50000     0.0300000    0.0600000   6.128906e-05  1.496315e-08
     16     30   2   0.50000     0.1700000   -0.4000000   8.411158e-04  8.795366e-07
     16     35   2   0.50000     0.1700000    0.0300000   2.494471e-04  1.671101e-07
     16     41   2   0.50000     0.1700000   -0.1200000   1.015252e-03  1.866303e-06
     33     30   2   0.50000     0.0600000   -0.4000000   2.066619e-04  7.875431e-08
     33     35   2   0.50000     0.0600000    0.0300000   6.128906e-05  1.496315e-08
     33     41   2   0.50000     0.0600000   -0.1200000   2.494471e-04  1.671101e-07
     34     30   2   0.50000     0.0600000   -0.4000000   2.066619e-04  7.875431e-08
     34     35   2   0.50000     0.0600000    0.0300000   6.128906e-05  1.496315e-08
     34     41   2   0.50000     0.0600000   -0.1200000   2.494471e-04  1.671101e-07
     28     31   2   0.50000    -0.1200000    0.1400000   1.015252e-03  1.866303e-06
     35     31   2   0.50000     0.0300000    0.1400000   2.494471e-04  1.671101e-07
     41     31   2   0.50000    -0.1200000    0.1400000   1.015252e-03  1.866303e-06
     28     42   2   0.50000    -0.1200000    0.1700000   1.015252e-03  1.866303e-06
     28     46   2   0.50000    -0.1200000    0.0600000   2.494471e-04  1.671101e-07
     28     47   2   0.50000    -0.1200000    0.0600000   2.494471e-04  1.671101e-07
     30     42   2   0.50000    -0.4000000    0.1700000   8.411158e-04  8.795366e-07
     30     46   2   0.50000    -0.4000000    0.0600000   2.066619e-04  7.875431e-08
     30     47   2   0.50000    -0.4000000    0.0600000   2.066619e-04  7.875431e-08
     35     42   2   0.50000     0.0300000    0.1700000   2.494471e-04  1.671101e-07
     35     46   2   0.50000     0.0300000    0.0600000   6.128906e-05  1.496315e-08
     35     47   2   0.50000     0.0300000    0.0600000   6.128906e-05  1.496315e-08
     29     32   2   0.50000     0.1700000   -0.1800000   1.015252e-03  1.866303e-06
     29     36   2   0.50000     0.1700000    0.0300000   2.494471e-04  1.671101e-07
     29     37   2   0.50000     0.1700000    0.0300000   2.494471e-04  1.671101e-07
     30     38   2   0.50000    -0.4000000    0.0600000   2.066619e-04  7.875431e-08
     30     39   2   0.50000    -0.4000000    0.0600000   2.066619e-04  7.875431e-08
     30     40   2   0.50000    -0.4000000    0.0600000   2.066619e-04  7.875431e-08
     36     38   2   0.50000     0.0300000    0.0600000   6.128906e-05  1.496315e-08
     36     39   2   0.50000     0.0300000    0.0600000   6.128906e-05  1.496315e-08
     36     40   2   0.50000     0.0300000    0.0600000   6.128906e-05  1.496315e-08
     37     38   2   0.50000     0.0300000    0.0600000   6.128906e-05  1.496315e-08
     37     39   2   0.50000     0.0300000    0.0600000   6.128906e-05  1.496315e-08
     37     40   2   0.50000     0.0300000    0.0600000   6.128906e-05  1.496315e-08
     29     43   2   0.50000     0.1700000   -0.4000000   8.411158e-04  8.795366e-07
     29     48   2   0.50000     0.1700000    0.0300000   2.494471e-04  1.671101e-07
     29     54   2   0.50000     0.1700000   -0.1200000   1.015252e-03  1.866303e-06
     46     43   2   0.50000     0.0600000   -0.4000000   2.066619e-04  7.875431e-08
     46     48   2   0.50000     0.0600000    0.0300000   6.128906e-05  1.496315e-08
     46     54   2   0.50000     0.0600000   -0.1200000   2.494471e-04  1.671101e-07
     47     43   2   0.50000     0.0600000   -0.4000000   2.066619e-04  7.875431e-08
     47     48   2   0.50000     0.0600000    0.0300000   6.128906e-05  1.496315e-08
     47     54   2   0.50000     0.0600000   -0.1200000   2.494471e-04  1.671101e-07
     41     44   2   0.50000    -0.1200000    0.1400000   1.015252e-03  1.866303e-06
     48     44   2   0.50000     0.0300000    0.1400000   2.494471e-04  1.671101e-07
     54     44   2   0.50000    -0.1200000    0.1400000   1.015252e-03  1.866303e-06
     41     55   2   0.50000    -0.1200000    0.1700000   1.015252e-03  1.866303e-06
     41     59   2   0.50000    -0.1200000    0.0600000   2.494471e-04  1.671101e-07
     41     60   2   0.50000    -0.1200000    0.0600000   2.494471e-04  1.671101e-07
     43     55   2   0.50000    -0.4000000    0.1700000   8.411158e-04  8.795366e-07
     43     59   2   0.50000    -0.4000000    0.0600000   2.066619e-04  7.875431e-08
     43     60   2   0.50000    -0.4000000    0.0600000   2.066619e-04  7.875431e-08
     48     55   2   0.50000     0.0300000    0.1700000   2.494471e-04  1.671101e-07
     48     59   2   0.50000     0.0300000    0.0600000   6.128906e-05  1.496315e-08
     48     60   2   0.50000     0.0300000    0.0600000   6.128906e-05  1.496315e-08
     42     45   2   0.50000     0.1700000   -0.1800000   1.015252e-03  1.866303e-06
     42     49   2   0.50000     0.1700000    0.0300000   2.494471e-04  1.671101e-07
     42     50   2   0.50000     0.1700000    0.0300000   2.494471e-04  1.671101e-07
     43     51   2   0.50000    -0.4000000    0.0600000   2.066619e-04  7.875431e-08
     43     52   2   0.50000    -0.4000000    0.0600000   2.066619e-04  7.875431e-08
     43     53   2   0.50000    -0.4000000    0.0600000   2.066619e-04  7.875431e-08
     49     51   2   0.50000     0.0300000    0.0600000   6.128906e-05  1.496315e-08
     49     52   2   0.50000     0.0300000    0.0600000   6.128906e-05  1.496315e-08
     49     53   2   0.50000     0.0300000    0.0600000   6.128906e-05  1.496315e-08
     50     51   2   0.50000     0.0300000    0.0600000   6.128906e-05  1.496315e-08
     50     52   2   0.50000     0.0300000    0.0600000   6.128906e-05  1.496315e-08
     50     53   2   0.50000     0.0300000    0.0600000   6.128906e-05  1.496315e-08
     42     56   2   0.50000     0.1700000   -0.4000000   8.411158e-04  8.795366e-07
     42     61   2   0.50000     0.1700000    0.0300000   2.494471e-04  1.671101e-07
     42     67   2   0.50000     0.1700000   -0.1200000   1.015252e-03  1.866303e-06
     59     56   2   0.50000     0.0600000   -0.4000000   2.066619e-04  7.875431e-08
     59     61   2   0.50000     0.0600000    0.0300000   6.128906e-05  1.496315e-08
     59     67   2   0.50000     0.0600000   -0.1200000   2.494471e-04  1.671101e-07
     60     56   2   0.50000     0.0600000   -0.4000000   2.066619e-04  7.875431e-08
     60     61   2   0.50000     0.0600000    0.0300000   6.128906e-05  1.496315e-08
     60     67   2   0.50000     0.0600000   -0.1200000   2.494471e-04  1.671101e-07
     54     57   2   0.50000    -0.1200000    0.1400000   1.015252e-03  1.866303e-06
     61     57   2   0.50000     0.0300000    0.1400000   2.494471e-04  1.671101e-07
     67     57   2   0.50000    -0.1200000    0.1400000   1.015252e-03  1.866303e-06
     54     68   2   0.50000    -0.1200000    0.1700000   1.015252e-03  1.866303e-06
     54     72   2   0.50000    -0.1200000    0.0600000   2.494471e-04  1.671101e-07
     54     73   2   0.50000    -0.1200000    0.0600000   2.494471e-04  1.671101e-07
     56     68   2   0.50000    -0.4000000    0.1700000   8.411158e-04  8.795366e-07
     56     72   2   0.50000    -0.4000000    0.0600000   2.066619e-04  7.875431e-08
     56     73   2   0.50000    -0.4000000    0.0600000   2.066619e-04  7.875431e-08
     61     68   2   0.50000     0.0300000    0.1700000   2.494471e-04  1.671101e-07
     61     72   2   0.50000     0.0300000    0.0600000   6.128906e-05  1.496315e-08
     61     73   2   0.50000     0.0300000    0.0600000   6.128906e-05  1.496315e-08
     55     58   2   0.50000     0.1700000   -0.1800000   1.015252e-03  1.866303e-06
     55     62   2   0.50000     0.1700000    0.0300000   2.494471e-04  1.671101e-07
     55     63   2   0.50000     0.1700000    0.0300000   2.494471e-04  1.671101e-07
     56     64   2   0.50000    -0.4000000    0.0600000   2.066619e-04  7.875431e-08
     56     65   2   0.50000    -0.4000000    0.0600000   2.066619e-04  7.875431e-08
     56     66   2   0.50000    -0.4000000    0.0600000   2.066619e-04  7.875431e-08
     62     64   2   0.50000     0.0300000    0.0600000   6.128906e-05  1.496315e-08
     62     65   2   0.50000     0.0300000    0.0600000   6.128906e-05  1.496315e-08
     62     66   2   0.50000     0.0300000    0.0600000   6.128906e-05  1.496315e-08
     63     64   2   0.50000     0.0300000    0.0600000   6.128906e-05  1.496315e-08
     63     65   2   0.50000     0.0300000    0.0600000   6.128906e-05  1.496315e-08
     63     66   2   0.50000     0.0300000    0.0600000   6.128906e-05  1.496315e-08
     55     69   2   0.50000     0.1700000   -0.4000000   8.411158e-04  8.795366e-07
     55     74   2   0.50000     0.1700000    0.0300000   2.494471e-04  1.671101e-07
     55     80   2   0.50000     0.1700000   -0.1200000   1.015252e-03  1.866303e-06
     72     69   2   0.50000     0.0600000   -0.4000000   2.066619e-04  7.875431e-08
     72     74   2   0.50000     0.0600000    0.0300000   6.128906e-05  1.496315e-08
     72     80   2   0.50000     0.0600000   -0.1200000   2.494471e-04  1.671101e-07
     73     69   2   0.50000     0.0600000   -0.4000000   2.066619e-04  7.875431e-08
     73     74   2   0.50000     0.0600000    0.0300000   6.128906e-05  1.496315e-08
     73     80   2   0.50000     0.0600000   -0.1200000   2.494471e-04  1.671101e-07
     67     70   2   0.50000    -0.1200000    0.1400000   1.015252e-03  1.866303e-06
     74     70   2   0.50000     0.0300000    0.1400000   2.494471e-04  1.671101e-07
     80     70   2   0.50000    -0.1200000    0.1400000   1.015252e-03  1.866303e-06
     67     81   2   0.50000    -0.1200000    0.1700000   1.015252e-03  1.866303e-06
     67     85   2   0.50000    -0.1200000    0.0600000   2.494471e-04  1.671101e-07
     67     86   2   0.50000    -0.1200000    0.0600000   2.494471e-04  1.671101e-07
     69     81   2   0.50000    -0.4000000    0.1700000   8.411158e-04  8.795366e-07
     69     85   2   0.50000    -0.4000000    0.0600000   2.066619e-04  7.875431e-08
     69     86   2   0.50000    -0.4000000    0.0600000   2.066619e-04  7.875431e-08
     74     81   2   0.50000     0.0300000    0.1700000   2.494471e-04  1.671101e-07
     74     85   2   0.50000     0.0300000    0.0600000   6.128906e-05  1.496315e-08
     74     86   2   0.50000     0.0300000    0.0600000   6.128906e-05  1.496315e-08
     68     71   2   0.50000     0.1700000   -0.1800000   1.015252e-03  1.866303e-06
     68     75   2   0.50000     0.1700000    0.0300000   2.494471e-04  1.671101e-07
     68     76   2   0.50000     0.1700000    0.0300000   2.494471e-04  1.671101e-07
     69     77   2   0.50000    -0.4000000    0.0600000   2.066619e-04  7.875431e-08
     69     78   2   0.50000    -0.4000000    0.0600000   2.066619e-04  7.875431e-08
     69     79   2   0.50000    -0.4000000    0.0600000   2.066619e-04  7.875431e-08
     75     77   2   0.50000     0.0300000    0.0600000   6.128906e-05  1.496315e-08
     75     78   2   0.50000     0.0300000    0.0600000   6.128906e-05  1.496315e-08
     75     79   2   0.50000     0.0300000    0.0600000   6.128906e-05  1.496315e-08
     76     77   2   0.50000     0.0300000    0.0600000   6.128906e-05  1.496315e-08
     76     78   2   0.50000     0.0300000    0.0600000   6.128906e-05  1.496315e-08
     76     79   2   0.50000     0.0300000    0.0600000   6.128906e-05  1.496315e-08
     68     82   2   0.50000     0.1700000   -0.4000000   8.411158e-04  8.795366e-07
     68     87   2   0.50000     0.1700000    0.0300000   2.494471e-04  1.671101e-07
     68     93   2   0.50000     0.1700000   -0.1200000   1.015252e-03  1.866303e-06
     85     82   2   0.50000     0.0600000   -0.4000000   2.066619e-04  7.875431e-08
     85     87   2   0.50000     0.0600000    0.0300000   6.128906e-05  1.496315e-08
     85     93   2   0.50000     0.0600000   -0.1200000   2.494471e-04  1.671101e-07
     86     82   2   0.50000     0.0600000   -0.4000000   2.066619e-04  7.875431e-08
     86     87   2   0.50000     0.0600000    0.0300000   6.128906e-05  1.496315e-08
     86     93   2   0.50000     0.0600000   -0.1200000   2.494471e-04  1.671101e-07
     80     83   2   0.50000    -0.1200000    0.1400000   1.015252e-03  1.866303e-06
     87     83   2   0.50000     0.0300000    0.1400000   2.494471e-04  1.671101e-07
     93     83   2   0.50000    -0.1200000    0.1400000   1.015252e-03  1.866303e-06
     80     94   2   0.50000    -0.1200000    0.1700000   1.015252e-03  1.866303e-06
     80     98   2   0.50000    -0.1200000    0.0600000   2.494471e-04  1.671101e-07
     80     99   2   0.50000    -0.1200000    0.0600000   2.494471e-04  1.671101e-07
     82     94   2   0.50000    -0.4000000    0.1700000   8.411158e-04  8.795366e-07
     82     98   2   0.50000    -0.4000000    0.0600000   2.066619e-04  7.875431e-08
     82     99   2   0.50000    -0.4000000    0.0600000   2.066619e-04  7.875431e-08
     87     94   2   0.50000     0.0300000    0.1700000   2.494471e-04  1.671101e-07
     87     98   2   0.50000     0.0300000    0.0600000   6.128906e-05  1.496315e-08
     87     99   2   0.50000     0.0300000    0.0600000   6.128906e-05  1.496315e-08
     81     84   2   0.50000     0.1700000   -0.1800000   1.015252e-03  1.866303e-06
     81     88   2   0.50000     0.1700000    0.0300000   2.494471e-04  1.671101e-07
     81     89   2   0.50000     0.1700000    0.0300000   2.494471e-04  1.671101e-07
     82     90   2   0.50000    -0.4000000    0.0600000   2.066619e-04  7.875431e-08
     82     91   2   0.50000    -0.4000000    0.0600000   2.066619e-04  7.875431e-08
     82     92   2   0.50000    -0.4000000    0.0600000   2.066619e-04  7.875431e-08
     88     90   2   0.50000     0.0300000    0.0600000   6.128906e-05  1.496315e-08
     88     91   2   0.50000     0.0300000    0.0600000   6.128906e-05  1.496315e-08
     88     92   2   0.50000     0.0300000    0.0600000   6.128906e-05  1.496315e-08
     89     90   2   0.50000     0.0300000    0.0600000   6.128906e-05  1.496315e-08
     89     91   2   0.50000     0.0300000    0.0600000   6.128906e-05  1.496315e-08
     89     92   2   0.50000     0.0300000    0.0600000   6.128906e-05  1.496315e-08
     81     95   2   0.50000     0.1700000   -0.4000000   8.411158e-04  8.795366e-07
     81    100   2   0.50000     0.1700000    0.0300000   2.494471e-04  1.671101e-07
     81    106   2   0.50000     0.1700000   -0.1200000   1.015252e-03  1.866303e-06
     98     95   2   0.50000     0.0600000   -0.4000000   2.066619e-04  7.875431e-08
     98    100   2   0.50000     0.0600000    0.0300000   6.128906e-05  1.496315e-08
     98    106   2   0.50000     0.0600000   -0.1200000   2.494471e-04  1.671101e-07
     99     95   2   0.50000     0.0600000   -0.4000000   2.066619e-04  7.875431e-08
     99    100   2   0.50000     0.0600000    0.0300000   6.128906e-05  1.496315e-08
     99    106   2   0.50000     0.0600000   -0.1200000   2.494471e-04  1.671101e-07
     93     96   2   0.50000    -0.1200000    0.1400000   1.015252e-03  1.866303e-06
    100     96   2   0.50000     0.0300000    0.1400000   2.494471e-04  1.671101e-07
    106     96   2   0.50000    -0.1200000    0.1400000   1.015252e-03  1.866303e-06
     93    107   2   0.50000    -0.1200000    0.1700000   1.015252e-03  1.866303e-06
     93    111   2   0.50000    -0.1200000    0.0600000   2.494471e-04  1.671101e-07
     93    112   2   0.50000    -0.1200000    0.0600000   2.494471e-04  1.671101e-07
     95    107   2   0.50000    -0.4000000    0.1700000   8.411158e-04  8.795366e-07
     95    111   2   0.50000    -0.4000000    0.0600000   2.066619e-04  7.875431e-08
     95    112   2   0.50000    -0.4000000    0.0600000   2.066619e-04  7.875431e-08
    100    107   2   0.50000     0.0300000    0.1700000   2.494471e-04  1.671101e-07
    100    111   2   0.50000     0.0300000    0.0600000   6.128906e-05  1.496315e-08
    100    112   2   0.50000     0.0300000    0.0600000   6.128906e-05  1.496315e-08
     94     97   2   0.50000     0.1700000   -0.1800000   1.015252e-03  1.866303e-06
     94    101   2   0.50000     0.1700000    0.0300000   2.494471e-04  1.671101e-07
     94    102   2   0.50000     0.1700000    0.0300000   2.494471e-04  1.671101e-07
     95    103   2   0.50000    -0.4000000    0.0600000   2.066619e-04  7.875431e-08
     95    104   2   0.50000    -0.4000000    0.0600000   2.066619e-04  7.875431e-08
     95    105   2   0.50000    -0.4000000    0.0600000   2.066619e-04  7.875431e-08
    101    103   2   0.50000     0.0300000    0.0600000   6.128906e-05  1.496315e-08
    101    104   2   0.50000     0.0300000    0.0600000   6.128906e-05  1.496315e-08
    101    105   2   0.50000     0.0300000    0.0600000   6.128906e-05  1.496315e-08
    102    103   2   0.50000     0.0300000    0.0600000   6.128906e-05  1.496315e-08
    102    104   2   0.50000     0.0300000    0.0600000   6.128906e-05  1.496315e-08
    102    105   2   0.50000     0.0300000    0.0600000   6.128906e-05  1.496315e-08
     94    108   2   0.50000     0.1700000   -0.4000000   8.411158e-04  8.795366e-07
     94    113   2   0.50000     0.1700000    0.0300000   2.494471e-04  1.671101e-07
     94    119   2   0.50000     0.1700000   -0.1200000   1.015252e-03  1.866303e-06
    111    108   2   0.50000     0.0600000   -0.4000000   2.066619e-04  7.875431e-08
    111    113   2   0.50000     0.0600000    0.0300000   6.128906e-05  1.496315e-08
    111    119   2   0.50000     0.0600000   -0.1200000   2.494471e-04  1.671101e-07
    112    108   2   0.50000     0.0600000   -0.4000000   2.066619e-04  7.875431e-08
    112    113   2   0.50000     0.0600000    0.0300000   6.128906e-05  1.496315e-08
    112    119   2   0.50000     0.0600000   -0.1200000   2.494471e-04  1.671101e-07
    106    109   2   0.50000    -0.1200000    0.1400000   1.015252e-03  1.866303e-06
    113    109   2   0.50000     0.0300000    0.1400000   2.494471e-04  1.671101e-07
    119    109   2   0.50000    -0.1200000    0.1400000   1.015252e-03  1.866303e-06
    106    120   2   0.50000    -0.1200000    0.1700000   1.015252e-03  1.866303e-06
    106    124   2   0.50000    -0.1200000    0.0600000   2.494471e-04  1.671101e-07
    106    125   2   0.50000    -0.1200000    0.0600000   2.494471e-04  1.671101e-07
    108    120   2   0.50000    -0.4000000    0.1700000   8.411158e-04  8.795366e-07
    108    124   2   0.50000    -0.4000000    0.0600000   2.066619e-04  7.875431e-08
    108    125   2   0.50000    -0.4000000    0.0600000   2.066619e-04  7.875431e-08
    113    120   2   0.50000     0.0300000    0.1700000   2.494471e-04  1.671101e-07
    113    124   2   0.50000     0.0300000    0.0600000   6.128906e-05  1.496315e-08
    113    125   2   0.50000     0.0300000    0.0600000   6.128906e-05  1.496315e-08
    107    110   2   0.50000     0.1700000   -0.1800000   1.015252e-03  1.866303e-06
    107    114   2   0.50000     0.1700000    0.0300000   2.494471e-04  1.671101e-07
    107    115   2   0.50000     0.1700000    0.0300000   2.494471e-04  1.671101e-07
    108    116   2   0.50000    -0.4000000    0.0600000   2.066619e-04  7.875431e-08
    108    117   2   0.50000    -0.4000000    0.0600000   2.066619e-04  7.875431e-08
    108    118   2   0.50000    -0.4000000    0.0600000   2.066619e-04  7.875431e-08
    114    116   2   0.50000     0.0300000    0.0600000   6.128906e-05  1.496315e-08
    114    117   2   0.50000     0.0300000    0.0600000   6.128906e-05  1.496315e-08
    114    118   2   0.50000     0.0300000    0.0600000   6.128906e-05  1.496315e-08
    115    116   2   0.50000     0.0300000    0.0600000   6.128906e-05  1.496315e-08
    115    117   2   0.50000     0.0300000    0.0600000   6.128906e-05  1.496315e-08
    115    118   2   0.50000     0.0300000    0.0600000   6.128906e-05  1.496315e-08
    107    121   2   0.50000     0.1700000   -0.4000000   8.411158e-04  8.795366e-07
    107    126   2   0.50000     0.1700000    0.0300000   2.494471e-04  1.671101e-07
    107    132   2   0.50000     0.1700000   -0.1200000   1.015252e-03  1.866303e-06
    124    121   2   0.50000     0.0600000   -0.4000000   2.066619e-04  7.875431e-08
    124    126   2   0.50000     0.0600000    0.0300000   6.128906e-05  1.496315e-08
    124    132   2   0.50000     0.0600000   -0.1200000   2.494471e-04  1.671101e-07
    125    121   2   0.50000     0.0600000   -0.4000000   2.066619e-04  7.875431e-08
    125    126   2   0.50000     0.0600000    0.0300000   6.128906e-05  1.496315e-08
    125    132   2   0.50000     0.0600000   -0.1200000   2.494471e-04  1.671101e-07
    119    122   2   0.50000    -0.1200000    0.1400000   1.015252e-03  1.866303e-06
    126    122   2   0.50000     0.0300000    0.1400000   2.494471e-04  1.671101e-07
    132    122   2   0.50000    -0.1200000    0.1400000   1.015252e-03  1.866303e-06
    119    133   2   0.50000    -0.1200000    0.1700000   1.015252e-03  1.866303e-06
    119    137   2   0.50000    -0.1200000    0.0600000   2.494471e-04  1.671101e-07
    119    138   2   0.50000    -0.1200000    0.0600000   2.494471e-04  1.671101e-07
    121    133   2   0.50000    -0.4000000    0.1700000   8.411158e-04  8.795366e-07
    121    137   2   0.50000    -0.4000000    0.0600000   2.066619e-04  7.875431e-08
    121    138   2   0.50000    -0.4000000    0.0600000   2.066619e-04  7.875431e-08
    126    133   2   0.50000     0.0300000    0.1700000   2.494471e-04  1.671101e-07
    126    137   2   0.50000     0.0300000    0.0600000   6.128906e-05  1.496315e-08
    126    138   2   0.50000     0.0300000    0.0600000   6.128906e-05  1.496315e-08
    120    123   2   0.50000     0.1700000   -0.1800000   1.015252e-03  1.866303e-06
    120    127   2   0.50000     0.1700000    0.0300000   2.494471e-04  1.671101e-07
    120    128   2   0.50000     0.1700000    0.0300000   2.494471e-04  1.671101e-07
    121    129   2   0.50000    -0.4000000    0.0600000   2.066619e-04  7.875431e-08
    121    130   2   0.50000    -0.4000000    0.0600000   2.066619e-04  7.875431e-08
    121    131   2   0.50000    -0.4000000    0.0600000   2.066619e-04  7.875431e-08
    127    129   2   0.50000     0.0300000    0.0600000   6.128906e-05  1.496315e-08
    127    130   2   0.50000     0.0300000    0.0600000   6.128906e-05  1.496315e-08
    127    131   2   0.50000     0.0300000    0.0600000   6.128906e-05  1.496315e-08
    128    129   2   0.50000     0.0300000    0.0600000   6.128906e-05  1.496315e-08
    128    130   2   0.50000     0.0300000    0.0600000   6.128906e-05  1.496315e-08
    128    131   2   0.50000     0.0300000    0.0600000   6.128906e-05  1.496315e-08
    120    134   2   0.50000     0.1700000   -0.4000000   8.411158e-04  8.795366e-07
    120    139   2   0.50000     0.1700000    0.0300000   2.494471e-04  1.671101e-07
    120    145   2   0.50000     0.1700000   -0.1200000   1.015252e-03  1.866303e-06
    137    134   2   0.50000     0.0600000   -0.4000000   2.066619e-04  7.875431e-08
    137    139   2   0.50000     0.0600000    0.0300000   6.128906e-05  1.496315e-08
    137    145   2   0.50000     0.0600000   -0.1200000   2.494471e-04  1.671101e-07
    138    134   2   0.50000     0.0600000   -0.4000000   2.066619e-04  7.875431e-08
    138    139   2   0.50000     0.0600000    0.0300000   6.128906e-05  1.496315e-08
    138    145   2   0.50000     0.0600000   -0.1200000   2.494471e-04  1.671101e-07
    132    135   2   0.50000    -0.1200000    0.1400000   1.015252e-03  1.866303e-06
    139    135   2   0.50000     0.0300000    0.1400000   2.494471e-04  1.671101e-07
    145    135   2   0.50000    -0.1200000    0.1400000   1.015252e-03  1.866303e-06
    132    146   2   0.50000    -0.1200000    0.1700000   1.015252e-03  1.866303e-06
    132    150   2   0.50000    -0.1200000    0.0600000   2.494471e-04  1.671101e-07
    132    151   2   0.50000    -0.1200000    0.0600000   2.494471e-04  1.671101e-07
    134    146   2   0.50000    -0.4000000    0.1700000   8.411158e-04  8.795366e-07
    134    150   2   0.50000    -0.4000000    0.0600000   2.066619e-04  7.875431e-08
    134    151   2   0.50000    -0.4000000    0.0600000   2.066619e-04  7.875431e-08
    139    146   2   0.50000     0.0300000    0.1700000   2.494471e-04  1.671101e-07
    139    150   2   0.50000     0.0300000    0.0600000   6.128906e-05  1.496315e-08
    139    151   2   0.50000     0.0300000    0.0600000   6.128906e-05  1.496315e-08
    133    136   2   0.50000     0.1700000   -0.1800000   1.015252e-03  1.866303e-06
    133    140   2   0.50000     0.1700000    0.0300000   2.494471e-04  1.671101e-07
    133    141   2   0.50000     0.1700000    0.0300000   2.494471e-04  1.671101e-07
    134    142   2   0.50000    -0.4000000    0.0600000   2.066619e-04  7.875431e-08
    134    143   2   0.50000    -0.4000000    0.0600000   2.066619e-04  7.875431e-08
    134    144   2   0.50000    -0.4000000    0.0600000   2.066619e-04  7.875431e-08
    140    142   2   0.50000     0.0300000    0.0600000   6.128906e-05  1.496315e-08
    140    143   2   0.50000     0.0300000    0.0600000   6.128906e-05  1.496315e-08
    140    144   2   0.50000     0.0300000    0.0600000   6.128906e-05  1.496315e-08
    141    142   2   0.50000     0.0300000    0.0600000   6.128906e-05  1.496315e-08
    141    143   2   0.50000     0.0300000    0.0600000   6.128906e-05  1.496315e-08
    141    144   2   0.50000     0.0300000    0.0600000   6.128906e-05  1.496315e-08
    133    147   2   0.50000     0.1700000   -0.4000000   8.411158e-04  8.795366e-07
    133    152   2   0.50000     0.1700000    0.0300000   2.494471e-04  1.671101e-07
    133    158   2   0.50000     0.1700000   -0.1200000   1.015252e-03  1.866303e-06
    150    147   2   0.50000     0.0600000   -0.4000000   2.066619e-04  7.875431e-08
    150    152   2   0.50000     0.0600000    0.0300000   6.128906e-05  1.496315e-08
    150    158   2   0.50000     0.0600000   -0.1200000   2.494471e-04  1.671101e-07
    151    147   2   0.50000     0.0600000   -0.4000000   2.066619e-04  7.875431e-08
    151    152   2   0.50000     0.0600000    0.0300000   6.128906e-05  1.496315e-08
    151    158   2   0.50000     0.0600000   -0.1200000   2.494471e-04  1.671101e-07
    145    148   2   0.50000    -0.1200000    0.1400000   1.015252e-03  1.866303e-06
    152    148   2   0.50000     0.0300000    0.1400000   2.494471e-04  1.671101e-07
    158    148   2   0.50000    -0.1200000    0.1400000   1.015252e-03  1.866303e-06
    145    159   2   0.50000    -0.1200000    0.1700000   1.015252e-03  1.866303e-06
    145    163   2   0.50000    -0.1200000    0.0600000   2.494471e-04  1.671101e-07
    145    164   2   0.50000    -0.1200000    0.0600000   2.494471e-04  1.671101e-07
    147    159   2   0.50000    -0.4000000    0.1700000   8.411158e-04  8.795366e-07
    147    163   2   0.50000    -0.4000000    0.0600000   2.066619e-04  7.875431e-08
    147    164   2   0.50000    -0.4000000    0.0600000   2.066619e-04  7.875431e-08
    152    159   2   0.50000     0.0300000    0.1700000   2.494471e-04  1.671101e-07
    152    163   2   0.50000     0.0300000    0.0600000   6.128906e-05  1.496315e-08
    152    164   2   0.50000     0.0300000    0.0600000   6.128906e-05  1.496315e-08
    146    149   2   0.50000     0.1700000   -0.1800000   1.015252e-03  1.866303e-06
    146    153   2   0.50000     0.1700000    0.0300000   2.494471e-04  1.671101e-07
    146    154   2   0.50000     0.1700000    0.0300000   2.494471e-04  1.671101e-07
    147    155   2   0.50000    -0.4000000    0.0600000   2.066619e-04  7.875431e-08
    147    156   2   0.50000    -0.4000000    0.0600000   2.066619e-04  7.875431e-08
    147    157   2   0.50000    -0.4000000    0.0600000   2.066619e-04  7.875431e-08
    153    155   2   0.50000     0.0300000    0.0600000   6.128906e-05  1.496315e-08
    153    156   2   0.50000     0.0300000    0.0600000   6.128906e-05  1.496315e-08
    153    157   2   0.50000     0.0300000    0.0600000   6.128906e-05  1.496315e-08
    154    155   2   0.50000     0.0300000    0.0600000   6.128906e-05  1.496315e-08
    154    156   2   0.50000     0.0300000    0.0600000   6.128906e-05  1.496315e-08
    154    157   2   0.50000     0.0300000    0.0600000   6.128906e-05  1.496315e-08
    146    160   2   0.50000     0.1700000   -0.4000000   8.411158e-04  8.795366e-07
    146    165   2   0.50000     0.1700000    0.0300000   2.494471e-04  1.671101e-07
    146    171   2   0.50000     0.1700000   -0.1200000   1.015252e-03  1.866303e-06
    163    160   2   0.50000     0.0600000   -0.4000000   2.066619e-04  7.875431e-08
    163    165   2   0.50000     0.0600000    0.0300000   6.128906e-05  1.496315e-08
    163    171   2   0.50000     0.0600000   -0.1200000   2.494471e-04  1.671101e-07
    164    160   2   0.50000     0.0600000   -0.4000000   2.066619e-04  7.875431e-08
    164    165   2   0.50000     0.0600000    0.0300000   6.128906e-05  1.496315e-08
    164    171   2   0.50000     0.0600000   -0.1200000   2.494471e-04  1.671101e-07
    158    161   2   0.50000    -0.1200000    0.1400000   1.015252e-03  1.866303e-06
    165    161   2   0.50000     0.0300000    0.1400000   2.494471e-04  1.671101e-07
    171    161   2   0.50000    -0.1200000    0.1400000   1.015252e-03  1.866303e-06
    158    172   2   0.50000    -0.1200000    0.1700000   1.015252e-03  1.866303e-06
    158    176   2   0.50000    -0.1200000    0.0600000   2.494471e-04  1.671101e-07
    158    177   2   0.50000    -0.1200000    0.0600000   2.494471e-04  1.671101e-07
    160    172   2   0.50000    -0.4000000    0.1700000   8.411158e-04  8.795366e-07
    160    176   2   0.50000    -0.4000000    0.0600000   2.066619e-04  7.875431e-08
    160    177   2   0.50000    -0.4000000    0.0600000   2.066619e-04  7.875431e-08
    165    172   2   0.50000     0.0300000    0.1700000   2.494471e-04  1.671101e-07
    165    176   2   0.50000     0.0300000    0.0600000   6.128906e-05  1.496315e-08
    165    177   2   0.50000     0.0300000    0.0600000   6.128906e-05  1.496315e-08
    159    162   2   0.50000     0.1700000   -0.1800000   1.015252e-03  1.866303e-06
    159    166   2   0.50000     0.1700000    0.0300000   2.494471e-04  1.671101e-07
    159    167   2   0.50000     0.1700000    0.0300000   2.494471e-04  1.671101e-07
    160    168   2   0.50000    -0.4000000    0.0600000   2.066619e-04  7.875431e-08
    160    169   2   0.50000    -0.4000000    0.0600000   2.066619e-04  7.875431e-08
    160    170   2   0.50000    -0.4000000    0.0600000   2.066619e-04  7.875431e-08
    166    168   2   0.50000     0.0300000    0.0600000   6.128906e-05  1.496315e-08
    166    169   2   0.50000     0.0300000    0.0600000   6.128906e-05  1.496315e-08
    166    170   2   0.50000     0.0300000    0.0600000   6.128906e-05  1.496315e-08
    167    168   2   0.50000     0.0300000    0.0600000   6.128906e-05  1.496315e-08
    167    169   2   0.50000     0.0300000    0.0600000   6.128906e-05  1.496315e-08
    167    170   2   0.50000     0.0300000    0.0600000   6.128906e-05  1.496315e-08
    159    173   2   0.50000     0.1700000   -0.4000000   8.411158e-04  8.795366e-07
    159    178   2   0.50000     0.1700000    0.0300000   2.494471e-04  1.671101e-07
    159    184   2   0.50000     0.1700000   -0.1200000   1.015252e-03  1.866303e-06
    176    173   2   0.50000     0.0600000   -0.4000000   2.066619e-04  7.875431e-08
    176    178   2   0.50000     0.0600000    0.0300000   6.128906e-05  1.496315e-08
    176    184   2   0.50000     0.0600000   -0.1200000   2.494471e-04  1.671101e-07
    177    173   2   0.50000     0.0600000   -0.4000000   2.066619e-04  7.875431e-08
    177    178   2   0.50000     0.0600000    0.0300000   6.128906e-05  1.496315e-08
    177    184   2   0.50000     0.0600000   -0.1200000   2.494471e-04  1.671101e-07
    171    174   2   0.50000    -0.1200000    0.1400000   1.015252e-03  1.866303e-06
    178    174   2   0.50000     0.0300000    0.1400000   2.494471e-04  1.671101e-07
    184    174   2   0.50000    -0.1200000    0.1400000   1.015252e-03  1.866303e-06
    171    185   2   0.50000    -0.1200000    0.1700000   1.015252e-03  1.866303e-06
    171    189   2   0.50000    -0.1200000    0.0600000   2.494471e-04  1.671101e-07
    171    190   2   0.50000    -0.1200000    0.0600000   2.494471e-04  1.671101e-07
    173    185   2   0.50000    -0.4000000    0.1700000   8.411158e-04  8.795366e-07
    173    189   2   0.50000    -0.4000000    0.0600000   2.066619e-04  7.875431e-08
    173    190   2   0.50000    -0.4000000    0.0600000   2.066619e-04  7.875431e-08
    178    185   2   0.50000     0.0300000    0.1700000   2.494471e-04  1.671101e-07
    178    189   2   0.50000     0.0300000    0.0600000   6.128906e-05  1.496315e-08
    178    190   2   0.50000     0.0300000    0.0600000   6.128906e-05  1.496315e-08
    172    175   2   0.50000     0.1700000   -0.1800000   1.015252e-03  1.866303e-06
    172    179   2   0.50000     0.1700000    0.0300000   2.494471e-04  1.671101e-07
    172    180   2   0.50000     0.1700000    0.0300000   2.494471e-04  1.671101e-07
    173    181   2   0.50000    -0.4000000    0.0600000   2.066619e-04  7.875431e-08
    173    182   2   0.50000    -0.4000000    0.0600000   2.066619e-04  7.875431e-08
    173    183   2   0.50000    -0.4000000    0.0600000   2.066619e-04  7.875431e-08
    179    181   2   0.50000     0.0300000    0.0600000   6.128906e-05  1.496315e-08
    179    182   2   0.50000     0.0300000    0.0600000   6.128906e-05  1.496315e-08
    179    183   2   0.50000     0.0300000    0.0600000   6.128906e-05  1.496315e-08
    180    181   2   0.50000     0.0300000    0.0600000   6.128906e-05  1.496315e-08
    180    182   2   0.50000     0.0300000    0.0600000   6.128906e-05  1.496315e-08
    180    183   2   0.50000     0.0300000    0.0600000   6.128906e-05  1.496315e-08
    172    186   2   0.50000     0.1700000   -0.4000000   8.411158e-04  8.795366e-07
    172    191   2   0.50000     0.1700000    0.0300000   2.494471e-04  1.671101e-07
    172    197   2   0.50000     0.1700000   -0.1200000   1.015252e-03  1.866303e-06
    189    186   2   0.50000     0.0600000   -0.4000000   2.066619e-04  7.875431e-08
    189    191   2   0.50000     0.0600000    0.0300000   6.128906e-05  1.496315e-08
    189    197   2   0.50000     0.0600000   -0.1200000   2.494471e-04  1.671101e-07
    190    186   2   0.50000     0.0600000   -0.4000000   2.066619e-04  7.875431e-08
    190    191   2   0.50000     0.0600000    0.0300000   6.128906e-05  1.496315e-08
    190    197   2   0.50000     0.0600000   -0.1200000   2.494471e-04  1.671101e-07
    184    187   2   0.50000    -0.1200000    0.1400000   1.015252e-03  1.866303e-06
    191    187   2   0.50000     0.0300000    0.1400000   2.494471e-04  1.671101e-07
    197    187   2   0.50000    -0.1200000    0.1400000   1.015252e-03  1.866303e-06
    184    198   2   0.50000    -0.1200000    0.1700000   1.015252e-03  1.866303e-06
    184    202   2   0.50000    -0.1200000    0.0600000   2.494471e-04  1.671101e-07
    184    203   2   0.50000    -0.1200000    0.0600000   2.494471e-04  1.671101e-07
    186    198   2   0.50000    -0.4000000    0.1700000   8.411158e-04  8.795366e-07
    186    202   2   0.50000    -0.4000000    0.0600000   2.066619e-04  7.875431e-08
    186    203   2   0.50000    -0.4000000    0.0600000   2.066619e-04  7.875431e-08
    191    198   2   0.50000     0.0300000    0.1700000   2.494471e-04  1.671101e-07
    191    202   2   0.50000     0.0300000    0.0600000   6.128906e-05  1.496315e-08
    191    203   2   0.50000     0.0300000    0.0600000   6.128906e-05  1.496315e-08
    185    188   2   0.50000     0.1700000   -0.1800000   1.015252e-03  1.866303e-06
    185    192   2   0.50000     0.1700000    0.0300000   2.494471e-04  1.671101e-07
    185    193   2   0.50000     0.1700000    0.0300000   2.494471e-04  1.671101e-07
    186    194   2   0.50000    -0.4000000    0.0600000   2.066619e-04  7.875431e-08
    186    195   2   0.50000    -0.4000000    0.0600000   2.066619e-04  7.875431e-08
    186    196   2   0.50000    -0.4000000    0.0600000   2.066619e-04  7.875431e-08
    192    194   2   0.50000     0.0300000    0.0600000   6.128906e-05  1.496315e-08
    192    195   2   0.50000     0.0300000    0.0600000   6.128906e-05  1.496315e-08
    192    196   2   0.50000     0.0300000    0.0600000   6.128906e-05  1.496315e-08
    193    194   2   0.50000     0.0300000    0.0600000   6.128906e-05  1.496315e-08
    193    195   2   0.50000     0.0300000    0.0600000   6.128906e-05  1.496315e-08
    193    196   2   0.50000     0.0300000    0.0600000   6.128906e-05  1.496315e-08
    185    199   2   0.50000     0.1700000   -0.4000000   8.411158e-04  8.795366e-07
    185    204   2   0.50000     0.1700000    0.0300000   2.494471e-04  1.671101e-07
    185    210   2   0.50000     0.1700000   -0.1200000   1.015252e-03  1.866303e-06
    202    199   2   0.50000     0.0600000   -0.4000000   2.066619e-04  7.875431e-08
    202    204   2   0.50000     0.0600000    0.0300000   6.128906e-05  1.496315e-08
    202    210   2   0.50000     0.0600000   -0.1200000   2.494471e-04  1.671101e-07
    203    199   2   0.50000     0.0600000   -0.4000000   2.066619e-04  7.875431e-08
    203    204   2   0.50000     0.0600000    0.0300000   6.128906e-05  1.496315e-08
    203    210   2   0.50000     0.0600000   -0.1200000   2.494471e-04  1.671101e-07
    197    200   2   0.50000    -0.1200000    0.1400000   1.015252e-03  1.866303e-06
    204    200   2   0.50000     0.0300000    0.1400000   2.494471e-04  1.671101e-07
    210    200   2   0.50000    -0.1200000    0.1400000   1.015252e-03  1.866303e-06
    197    211   2   0.50000    -0.1200000    0.1700000   1.015252e-03  1.866303e-06
    197    215   2   0.50000    -0.1200000    0.0600000   2.494471e-04  1.671101e-07
    197    216   2   0.50000    -0.1200000    0.0600000   2.494471e-04  1.671101e-07
    199    211   2   0.50000    -0.4000000    0.1700000   8.411158e-04  8.795366e-07
    199    215   2   0.50000    -0.4000000    0.0600000   2.066619e-04  7.875431e-08
    199    216   2   0.50000    -0.4000000    0.0600000   2.066619e-04  7.875431e-08
    204    211   2   0.50000     0.0300000    0.1700000   2.494471e-04  1.671101e-07
    204    215   2   0.50000     0.0300000    0.0600000   6.128906e-05  1.496315e-08
    204    216   2   0.50000     0.0300000    0.0600000   6.128906e-05  1.496315e-08
    198    201   2   0.50000     0.1700000   -0.1800000   1.015252e-03  1.866303e-06
    198    205   2   0.50000     0.1700000    0.0300000   2.494471e-04  1.671101e-07
    198    206   2   0.50000     0.1700000    0.0300000   2.494471e-04  1.671101e-07
    199    207   2   0.50000    -0.4000000    0.0600000   2.066619e-04  7.875431e-08
    199    208   2   0.50000    -0.4000000    0.0600000   2.066619e-04  7.875431e-08
    199    209   2   0.50000    -0.4000000    0.0600000   2.066619e-04  7.875431e-08
    205    207   2   0.50000     0.0300000    0.0600000   6.128906e-05  1.496315e-08
    205    208   2   0.50000     0.0300000    0.0600000   6.128906e-05  1.496315e-08
    205    209   2   0.50000     0.0300000    0.0600000   6.128906e-05  1.496315e-08
    206    207   2   0.50000     0.0300000    0.0600000   6.128906e-05  1.496315e-08
    206    208   2   0.50000     0.0300000    0.0600000   6.128906e-05  1.496315e-08
    206    209   2   0.50000     0.0300000    0.0600000   6.128906e-05  1.496315e-08
    198    212   2   0.50000     0.1700000   -0.4000000   8.411158e-04  8.795366e-07
    198    217   2   0.50000     0.1700000    0.0300000   2.494471e-04  1.671101e-07
    198    223   2   0.50000     0.1700000   -0.1200000   1.015252e-03  1.866303e-06
    215    212   2   0.50000     0.0600000   -0.4000000   2.066619e-04  7.875431e-08
    215    217   2   0.50000     0.0600000    0.0300000   6.128906e-05  1.496315e-08
    215    223   2   0.50000     0.0600000   -0.1200000   2.494471e-04  1.671101e-07
    216    212   2   0.50000     0.0600000   -0.4000000   2.066619e-04  7.875431e-08
    216    217   2   0.50000     0.0600000    0.0300000   6.128906e-05  1.496315e-08
    216    223   2   0.50000     0.0600000   -0.1200000   2.494471e-04  1.671101e-07
    210    213   2   0.50000    -0.1200000    0.1400000   1.015252e-03  1.866303e-06
    217    213   2   0.50000     0.0300000    0.1400000   2.494471e-04  1.671101e-07
    223    213   2   0.50000    -0.1200000    0.1400000   1.015252e-03  1.866303e-06
    210    224   2   0.50000    -0.1200000    0.1700000   1.015252e-03  1.866303e-06
    210    228   2   0.50000    -0.1200000    0.0600000   2.494471e-04  1.671101e-07
    210    229   2   0.50000    -0.1200000    0.0600000   2.494471e-04  1.671101e-07
    212    224   2   0.50000    -0.4000000    0.1700000   8.411158e-04  8.795366e-07
    212    228   2   0.50000    -0.4000000    0.0600000   2.066619e-04  7.875431e-08
    212    229   2   0.50000    -0.4000000    0.0600000   2.066619e-04  7.875431e-08
    217    224   2   0.50000     0.0300000    0.1700000   2.494471e-04  1.671101e-07
    217    228   2   0.50000     0.0300000    0.0600000   6.128906e-05  1.496315e-08
    217    229   2   0.50000     0.0300000    0.0600000   6.128906e-05  1.496315e-08
    211    214   2   0.50000     0.1700000   -0.1800000   1.015252e-03  1.866303e-06
    211    218   2   0.50000     0.1700000    0.0300000   2.494471e-04  1.671101e-07
    211    219   2   0.50000     0.1700000    0.0300000   2.494471e-04  1.671101e-07
    212    220   2   0.50000    -0.4000000    0.0600000   2.066619e-04  7.875431e-08
    212    221   2   0.50000    -0.4000000    0.0600000   2.066619e-04  7.875431e-08
    212    222   2   0.50000    -0.4000000    0.0600000   2.066619e-04  7.875431e-08
    218    220   2   0.50000     0.0300000    0.0600000   6.128906e-05  1.496315e-08
    218    221   2   0.50000     0.0300000    0.0600000   6.128906e-05  1.496315e-08
    218    222   2   0.50000     0.0300000    0.0600000   6.128906e-05  1.496315e-08
    219    220   2   0.50000     0.0300000    0.0600000   6.128906e-05  1.496315e-08
    219    221   2   0.50000     0.0300000    0.0600000   6.128906e-05  1.496315e-08
    219    222   2   0.50000     0.0300000    0.0600000   6.128906e-05  1.496315e-08
    211    225   2   0.50000     0.1700000   -0.4000000   8.411158e-04  8.795366e-07
    211    230   2   0.50000     0.1700000    0.0300000   2.494471e-04  1.671101e-07
    211    236   2   0.50000     0.1700000   -0.1200000   1.015252e-03  1.866303e-06
    228    225   2   0.50000     0.0600000   -0.4000000   2.066619e-04  7.875431e-08
    228    230   2   0.50000     0.0600000    0.0300000   6.128906e-05  1.496315e-08
    228    236   2   0.50000     0.0600000   -0.1200000   2.494471e-04  1.671101e-07
    229    225   2   0.50000     0.0600000   -0.4000000   2.066619e-04  7.875431e-08
    229    230   2   0.50000     0.0600000    0.0300000   6.128906e-05  1.496315e-08
    229    236   2   0.50000     0.0600000   -0.1200000   2.494471e-04  1.671101e-07
    223    226   2   0.50000    -0.1200000    0.1400000   1.015252e-03  1.866303e-06
    230    226   2   0.50000     0.0300000    0.1400000   2.494471e-04  1.671101e-07
    236    226   2   0.50000    -0.1200000    0.1400000   1.015252e-03  1.866303e-06
    223    237   2   0.50000    -0.1200000    0.1700000   1.015252e-03  1.866303e-06
    223    241   2   0.50000    -0.1200000    0.0600000   2.494471e-04  1.671101e-07
    223    242   2   0.50000    -0.1200000    0.0600000   2.494471e-04  1.671101e-07
    225    237   2   0.50000    -0.4000000    0.1700000   8.411158e-04  8.795366e-07
    225    241   2   0.50000    -0.4000000    0.0600000   2.066619e-04  7.875431e-08
    225    242   2   0.50000    -0.4000000    0.0600000   2.066619e-04  7.875431e-08
    230    237   2   0.50000     0.0300000    0.1700000   2.494471e-04  1.671101e-07
    230    241   2   0.50000     0.0300000    0.0600000   6.128906e-05  1.496315e-08
    230    242   2   0.50000     0.0300000    0.0600000   6.128906e-05  1.496315e-08
    224    227   2   0.50000     0.1700000   -0.1800000   1.015252e-03  1.866303e-06
    224    231   2   0.50000     0.1700000    0.0300000   2.494471e-04  1.671101e-07
    224    232   2   0.50000     0.1700000    0.0300000   2.494471e-04  1.671101e-07
    225    233   2   0.50000    -0.4000000    0.0600000   2.066619e-04  7.875431e-08
    225    234   2   0.50000    -0.4000000    0.0600000   2.066619e-04  7.875431e-08
    225    235   2   0.50000    -0.4000000    0.0600000   2.066619e-04  7.875431e-08
    231    233   2   0.50000     0.0300000    0.0600000   6.128906e-05  1.496315e-08
    231    234   2   0.50000     0.0300000    0.0600000   6.128906e-05  1.496315e-08
    231    235   2   0.50000     0.0300000    0.0600000   6.128906e-05  1.496315e-08
    232    233   2   0.50000     0.0300000    0.0600000   6.128906e-05  1.496315e-08
    232    234   2   0.50000     0.0300000    0.0600000   6.128906e-05  1.496315e-08
    232    235   2   0.50000     0.0300000    0.0600000   6.128906e-05  1.496315e-08
    224    238   2   0.50000     0.1700000   -0.4000000   8.411158e-04  8.795366e-07
    224    243   2   0.50000     0.1700000    0.0300000   2.494471e-04  1.671101e-07
    224    249   2   0.50000     0.1700000   -0.1200000   1.015252e-03  1.866303e-06
    241    238   2   0.50000     0.0600000   -0.4000000   2.066619e-04  7.875431e-08
    241    243   2   0.50000     0.0600000    0.0300000   6.128906e-05  1.496315e-08
    241    249   2   0.50000     0.0600000   -0.1200000   2.494471e-04  1.671101e-07
    242    238   2   0.50000     0.0600000   -0.4000000   2.066619e-04  7.875431e-08
    242    243   2   0.50000     0.0600000    0.0300000   6.128906e-05  1.496315e-08
    242    249   2   0.50000     0.0600000   -0.1200000   2.494471e-04  1.671101e-07
    236    239   2   0.50000    -0.1200000    0.1400000   1.015252e-03  1.866303e-06
    243    239   2   0.50000     0.0300000    0.1400000   2.494471e-04  1.671101e-07
    249    239   2   0.50000    -0.1200000    0.1400000   1.015252e-03  1.866303e-06
    236    250   2   0.50000    -0.1200000    0.1400000   1.015252e-03  1.866303e-06
    236    254   2   0.50000    -0.1200000    0.0600000   2.494471e-04  1.671101e-07
    236    255   2   0.50000    -0.1200000    0.0600000   2.494471e-04  1.671101e-07
    238    250   2   0.50000    -0.4000000    0.1400000   8.411158e-04  8.795366e-07
    238    254   2   0.50000    -0.4000000    0.0600000   2.066619e-04  7.875431e-08
    238    255   2   0.50000    -0.4000000    0.0600000   2.066619e-04  7.875431e-08
    243    250   2   0.50000     0.0300000    0.1400000   2.494471e-04  1.671101e-07
    243    254   2   0.50000     0.0300000    0.0600000   6.128906e-05  1.496315e-08
    243    255   2   0.50000     0.0300000    0.0600000   6.128906e-05  1.496315e-08
    237    240   2   0.50000     0.1700000   -0.1800000   1.015252e-03  1.866303e-06
    237    244   2   0.50000     0.1700000    0.0300000   2.494471e-04  1.671101e-07
    237    245   2   0.50000     0.1700000    0.0300000   2.494471e-04  1.671101e-07
    238    246   2   0.50000    -0.4000000    0.0600000   2.066619e-04  7.875431e-08
    238    247   2   0.50000    -0.4000000    0.0600000   2.066619e-04  7.875431e-08
    238    248   2   0.50000    -0.4000000    0.0600000   2.066619e-04  7.875431e-08
    244    246   2   0.50000     0.0300000    0.0600000   6.128906e-05  1.496315e-08
    244    247   2   0.50000     0.0300000    0.0600000   6.128906e-05  1.496315e-08
    244    248   2   0.50000     0.0300000    0.0600000   6.128906e-05  1.496315e-08
    245    246   2   0.50000     0.0300000    0.0600000   6.128906e-05  1.496315e-08
    245    247   2   0.50000     0.0300000    0.0600000   6.128906e-05  1.496315e-08
    245    248   2   0.50000     0.0300000    0.0600000   6.128906e-05  1.496315e-08
    237    251   2   0.50000     0.1700000   -0.4000000   8.411158e-04  8.795366e-07
    237    256   2   0.50000     0.1700000    0.0300000   2.494471e-04  1.671101e-07
    237    262   2   0.50000     0.1700000    0.0300000   2.494471e-04  1.671101e-07
    254    251   2   0.50000     0.0600000   -0.4000000   2.066619e-04  7.875431e-08
    254    256   2   0.50000     0.0600000    0.0300000   6.128906e-05  1.496315e-08
    254    262   2   0.50000     0.0600000    0.0300000   6.128906e-05  1.496315e-08
    255    251   2   0.50000     0.0600000   -0.4000000   2.066619e-04  7.875431e-08
    255    256   2   0.50000     0.0600000    0.0300000   6.128906e-05  1.496315e-08
    255    262   2   0.50000     0.0600000    0.0300000   6.128906e-05  1.496315e-08
    249    252   2   0.50000    -0.1200000    0.1400000   1.015252e-03  1.866303e-06
    256    252   2   0.50000     0.0300000    0.1400000   2.494471e-04  1.671101e-07
    262    252   2   0.50000     0.0300000    0.1400000   2.494471e-04  1.671101e-07
    250    253   2   0.50000     0.1400000   -0.1800000   1.015252e-03  1.866303e-06
    250    257   2   0.50000     0.1400000    0.0300000   2.494471e-04  1.671101e-07
    250    258   2   0.50000     0.1400000    0.0300000   2.494471e-04  1.671101e-07
    251    259   2   0.50000    -0.4000000    0.0600000   2.066619e-04  7.875431e-08
    251    260   2   0.50000    -0.4000000    0.0600000   2.066619e-04  7.875431e-08
    251    261   2   0.50000    -0.4000000    0.0600000   2.066619e-04  7.875431e-08
    257    259   2   0.50000     0.0300000    0.0600000   6.128906e-05  1.496315e-08
    257    260   2   0.50000     0.0300000    0.0600000   6.128906e-05  1.496315e-08
    257    261   2   0.50000     0.0300000    0.0600000   6.128906e-05  1.496315e-08
    258    259   2   0.50000     0.0300000    0.0600000   6.128906e-05  1.496315e-08
    258    260   2   0.50000     0.0300000    0.0600000   6.128906e-05  1.496315e-08
    258    261   2   0.50000     0.0300000    0.0600000   6.128906e-05  1.496315e-08

[ angles ]
; ai  aj  ak
      2      1      6   1    110.7000    313.8000
      2      1      7   1    110.7000    313.8000
      2      1     14   1    110.7000    313.8000
      6      1      7   1    107.8000    276.1440
      6      1     14   1    107.8000    276.1440
      7      1     14   1    107.8000    276.1440
      1      2      3   1    109.5000    418.4000
      1      2      8   1    110.7000    313.8000
      1      2     15   1    112.7000    488.2728
      3      2      8   1    109.5000    292.8800
      3      2     15   1    109.5000    418.4000
      8      2     15   1    110.7000    313.8000
      2      3      4   1    109.5000    502.0800
      3      4      5   1    109.5000    418.4000
      3      4      9   1    109.5000    292.8800
      3      4     10   1    109.5000    292.8800
      5      4      9   1    110.7000    313.8000
      5      4     10   1    110.7000    313.8000
      9      4     10   1    107.8000    276.1440
      4      5     11   1    110.7000    313.8000
      4      5     12   1    110.7000    313.8000
      4      5     13   1    110.7000    313.8000
     11      5     12   1    107.8000    276.1440
     11      5     13   1    107.8000    276.1440
     12      5     13   1    107.8000    276.1440
      2     15     16   1    112.7000    488.2728
      2     15     20   1    110.7000    313.8000
      2     15     21   1    110.7000    313.8000
     16     15     20   1    110.7000    313.8000
     16     15     21   1    110.7000    313.8000
     20     15     21   1    107.8000    276.1440
     15     16     17   1    109.5000    418.4000
     15     16     22   1    110.7000    313.8000
     15     16     28   1    112.7000    488.2728
     17     16     22   1    109.5000    292.8800
     17     16     28   1    109.5000    418.4000
     22     16     28   1    110.7000    313.8000
     16     17     18   1    109.5000    502.0800
     17     18     19   1    109.5000    418.4000
     17     18     23   1    109.5000    292.8800
     17     18     24   1    109.5000    292.8800
     19     18     23   1    110.7000    313.8000
     19     18     24   1    110.7000    313.8000
     23     18     24   1    107.8000    276.1440
     18     19     25   1    110.7000    313.8000
     18     19     26   1    110.7000    313.8000
     18     19     27   1    110.7000    313.8000
     25     19     26   1    107.8000    276.1440
     25     19     27   1    107.8000    276.1440
     26     19     27   1    107.8000    276.1440
     16     28     29   1    112.7000    488.2728
     16     28     33   1    110.7000    313.8000
     16     28     34   1    110.7000    313.8000
     29     28     33   1    110.7000    313.8000
     29     28     34   1    110.7000    313.8000
     33     28     34   1    107.8000    276.1440
     28     29     30   1    109.5000    418.4000
     28     29     35   1    110.7000    313.8000
     28     29     41   1    112.7000    488.2728
     30     29     35   1    109.5000    292.8800
     30     29     41   1    109.5000    418.4000
     35     29     41   1    110.7000    313.8000
     29     30     31   1    109.5000    502.0800
     30     31     32   1    109.5000    418.4000
     30     31     36   1    109.5000    292.8800
     30     31     37   1    109.5000    292.8800
     32     31     36   1    110.7000    313.8000
     32     31     37   1    110.7000    313.8000
     36     31     37   1    107.8000    276.1440
     31     32     38   1    110.7000    313.8000
     31     32     39   1    110.7000    313.8000
     31     32     40   1    110.7000    313.8000
     38     32     39   1    107.8000    276.1440
     38     32     40   1    107.8000    276.1440
     39     32     40   1    107.8000    276.1440
     29     41     42   1    112.7000    488.2728
     29     41     46   1    110.7000    313.8000
     29     41     47   1    110.7000    313.8000
     42     41     46   1    110.7000    313.8000
     42     41     47   1    110.7000    313.8000
     46     41     47   1    107.8000    276.1440
     41     42     43   1    109.5000    418.4000
     41     42     48   1    110.7000    313.8000
     41     42     54   1    112.7000    488.2728
     43     42     48   1    109.5000    292.8800
     43     42     54   1    109.5000    418.4000
     48     42     54   1    110.7000    313.8000
     42     43     44   1    109.5000    502.0800
     43     44     45   1    109.5000    418.4000
     43     44     49   1    109.5000    292.8800
     43     44     50   1    109.5000    292.8800
     45     44     49   1    110.7000    313.8000
     45     44     50   1    110.7000    313.8000
     49     44     50   1    107.8000    276.1440
     44     45     51   1    110.7000    313.8000
     44     45     52   1    110.7000    313.8000
     44     45     53   1    110.7000    313.8000
     51     45     52   1    107.8000    276.1440
     51     45     53   1    107.8000    276.1440
     52     45     53   1    107.8000    276.1440
     42     54     55   1    112.7000    488.2728
     42     54     59   1    110.7000    313.8000
     42     54     60   1    110.7000    313.8000
     55     54     59   1    110.7000    313.8000
     55     54     60   1    110.7000    313.8000
     59     54     60   1    107.8000    276.1440
     54     55     56   1    109.5000    418.4000
     54     55     61   1    110.7000    313.8000
     54     55     67   1    112.7000    488.2728
     56     55     61   1    109.5000    292.8800
     56     55     67   1    109.5000    418.4000
     61     55     67   1    110.7000    313.8000
     55     56     57   1    109.5000    502.0800
     56     57     58   1    109.5000    418.4000
     56     57     62   1    109.5000    292.8800
     56     57     63   1    109.5000    292.8800
     58     57     62   1    110.7000    313.8000
     58     57     63   1    110.7000    313.8000
     62     57     63   1    107.8000    276.1440
     57     58     64   1    110.7000    313.8000
     57     58     65   1    110.7000    313.8000
     57     58     66   1    110.7000    313.8000
     64     58     65   1    107.8000    276.1440
     64     58     66   1    107.8000    276.1440
     65     58     66   1    107.8000    276.1440
     55     67     68   1    112.7000    488.2728
     55     67     72   1    110.7000    313.8000
     55     67     73   1    110.7000    313.8000
     68     67     72   1    110.7000    313.8000
     68     67     73   1    110.7000    313.8000
     72     67     73   1    107.8000    276.1440
     67     68     69   1    109.5000    418.4000
     67     68     74   1    110.7000    313.8000
     67     68     80   1    112.7000    488.2728
     69     68     74   1    109.5000    292.8800
     69     68     80   1    109.5000    418.4000
     74     68     80   1    110.7000    313.8000
     68     69     70   1    109.5000    502.0800
     69     70     71   1    109.5000    418.4000
     69     70     75   1    109.5000    292.8800
     69     70     76   1    109.5000    292.8800
     71     70     75   1    110.7000    313.8000
     71     70     76   1    110.7000    313.8000
     75     70     76   1    107.8000    276.1440
     70     71     77   1    110.7000    313.8000
     70     71     78   1    110.7000    313.8000
     70     71     79   1    110.7000    313.8000
     77     71     78   1    107.8000    276.1440
     77     71     79   1    107.8000    276.1440
     78     71     79   1    107.8000    276.1440
     68     80     81   1    112.7000    488.2728
     68     80     85   1    110.7000    313.8000
     68     80     86   1    110.7000    313.8000
     81     80     85   1    110.7000    313.8000
     81     80     86   1    110.7000    313.8000
     85     80     86   1    107.8000    276.1440
     80     81     82   1    109.5000    418.4000
     80     81     87   1    110.7000    313.8000
     80     81     93   1    112.7000    488.2728
     82     81     87   1    109.5000    292.8800
     82     81     93   1    109.5000    418.4000
     87     81     93   1    110.7000    313.8000
     81     82     83   1    109.5000    502.0800
     82     83     84   1    109.5000    418.4000
     82     83     88   1    109.5000    292.8800
     82     83     89   1    109.5000    292.8800
     84     83     88   1    110.7000    313.8000
     84     83     89   1    110.7000    313.8000
     88     83     89   1    107.8000    276.1440
     83     84     90   1    110.7000    313.8000
     83     84     91   1    110.7000    313.8000
     83     84     92   1    110.7000    313.8000
     90     84     91   1    107.8000    276.1440
     90     84     92   1    107.8000    276.1440
     91     84     92   1    107.8000    276.1440
     81     93     94   1    112.7000    488.2728
     81     93     98   1    110.7000    313.8000
     81     93     99   1    110.7000    313.8000
     94     93     98   1    110.7000    313.8000
     94     93     99   1    110.7000    313.8000
     98     93     99   1    107.8000    276.1440
     93     94     95   1    109.5000    418.4000
     93     94    100   1    110.7000    313.8000
     93     94    106   1    112.7000    488.2728
     95     94    100   1    109.5000    292.8800
     95     94    106   1    109.5000    418.4000
    100     94    106   1    110.7000    313.8000
     94     95     96   1    109.5000    502.0800
     95     96     97   1    109.5000    418.4000
     95     96    101   1    109.5000    292.8800
     95     96    102   1    109.5000    292.8800
     97     96    101   1    110.7000    313.8000
     97     96    102   1    110.7000    313.8000
    101     96    102   1    107.8000    276.1440
     96     97    103   1    110.7000    313.8000
     96     97    104   1    110.7000    313.8000
     96     97    105   1    110.7000    313.8000
    103     97    104   1    107.8000    276.1440
    103     97    105   1    107.8000    276.1440
    104     97    105   1    107.8000    276.1440
     94    106    107   1    112.7000    488.2728
     94    106    111   1    110.7000    313.8000
     94    106    112   1    110.7000    313.8000
    107    106    111   1    110.7000    313.8000
    107    106    112   1    110.7000    313.8000
    111    106    112   1    107.8000    276.1440
    106    107    108   1    109.5000    418.4000
    106    107    113   1    110.7000    313.8000
    106    107    119   1    112.7000    488.2728
    108    107    113   1    109.5000    292.8800
    108    107    119   1    109.5000    418.4000
    113    107    119   1    110.7000    313.8000
    107    108    109   1    109.5000    502.0800
    108    109    110   1    109.5000    418.4000
    108    109    114   1    109.5000    292.8800
    108    109    115   1    109.5000    292.8800
    110    109    114   1    110.7000    313.8000
    110    109    115   1    110.7000    313.8000
    114    109    115   1    107.8000    276.1440
    109    110    116   1    110.7000    313.8000
    109    110    117   1    110.7000    313.8000
    109    110    118   1    110.7000    313.8000
    116    110    117   1    107.8000    276.1440
    116    110    118   1    107.8000    276.1440
    117    110    118   1    107.8000    276.1440
    107    119    120   1    112.7000    488.2728
    107    119    124   1    110.7000    313.8000
    107    119    125   1    110.7000    313.8000
    120    119    124   1    110.7000    313.8000
    120    119    125   1    110.7000    313.8000
    124    119    125   1    107.8000    276.1440
    119    120    121   1    109.5000    418.4000
    119    120    126   1    110.7000    313.8000
    119    120    132   1    112.7000    488.2728
    121    120    126   1    109.5000    292.8800
    121    120    132   1    109.5000    418.4000
    126    120    132   1    110.7000    313.8000
    120    121    122   1    109.5000    502.0800
    121    122    123   1    109.5000    418.4000
    121    122    127   1    109.5000    292.8800
    121    122    128   1    109.5000    292.8800
    123    122    127   1    110.7000    313.8000
    123    122    128   1    110.7000    313.8000
    127    122    128   1    107.8000    276.1440
    122    123    129   1    110.7000    313.8000
    122    123    130   1    110.7000    313.8000
    122    123    131   1    110.7000    313.8000
    129    123    130   1    107.8000    276.1440
    129    123    131   1    107.8000    276.1440
    130    123    131   1    107.8000    276.1440
    120    132    133   1    112.7000    488.2728
    120    132    137   1    110.7000    313.8000
    120    132    138   1    110.7000    313.8000
    133    132    137   1    110.7000    313.8000
    133    132    138   1    110.7000    313.8000
    137    132    138   1    107.8000    276.1440
    132    133    134   1    109.5000    418.4000
    132    133    139   1    110.7000    313.8000
    132    133    145   1    112.7000    488.2728
    134    133    139   1    109.5000    292.8800
    134    133    145   1    109.5000    418.4000
    139    133    145   1    110.7000    313.8000
    133    134    135   1    109.5000    502.0800
    134    135    136   1    109.5000    418.4000
    134    135    140   1    109.5000    292.8800
    134    135    141   1    109.5000    292.8800
    136    135    140   1    110.7000    313.8000
    136    135    141   1    110.7000    313.8000
    140    135    141   1    107.8000    276.1440
    135    136    142   1    110.7000    313.8000
    135    136    143   1    110.7000    313.8000
    135    136    144   1    110.7000    313.8000
    142    136    143   1    107.8000    276.1440
    142    136    144   1    107.8000    276.1440
    143    136    144   1    107.8000    276.1440
    133    145    146   1    112.7000    488.2728
    133    145    150   1    110.7000    313.8000
    133    145    151   1    110.7000    313.8000
    146    145    150   1    110.7000    313.8000
    146    145    151   1    110.7000    313.8000
    150    145    151   1    107.8000    276.1440
    145    146    147   1    109.5000    418.4000
    145    146    152   1    110.7000    313.8000
    145    146    158   1    112.7000    488.2728
    147    146    152   1    109.5000    292.8800
    147    146    158   1    109.5000    418.4000
    152    146    158   1    110.7000    313.8000
    146    147    148   1    109.5000    502.0800
    147    148    149   1    109.5000    418.4000
    147    148    153   1    109.5000    292.8800
    147    148    154   1    109.5000    292.8800
    149    148    153   1    110.7000    313.8000
    149    148    154   1    110.7000    313.8000
    153    148    154   1    107.8000    276.1440
    148    149    155   1    110.7000    313.8000
    148    149    156   1    110.7000    313.8000
    148    149    157   1    110.7000    313.8000
    155    149    156   1    107.8000    276.1440
    155    149    157   1    107.8000    276.1440
    156    149    157   1    107.8000    276.1440
    146    158    159   1    112.7000    488.2728
    146    158    163   1    110.7000    313.8000
    146    158    164   1    110.7000    313.8000
    159    158    163   1    110.7000    313.8000
    159    158    164   1    110.7000    313.8000
    163    158    164   1    107.8000    276.1440
    158    159    160   1    109.5000    418.4000
    158    159    165   1    110.7000    313.8000
    158    159    171   1    112.7000    488.2728
    160    159    165   1    109.5000    292.8800
    160    159    171   1    109.5000    418.4000
    165    159    171   1    110.7000    313.8000
    159    160    161   1    109.5000    502.0800
    160    161    162   1    109.5000    418.4000
    160    161    166   1    109.5000    292.8800
    160    161    167   1    109.5000    292.8800
    162    161    166   1    110.7000    313.8000
    162    161    167   1    110.7000    313.8000
    166    161    167   1    107.8000    276.1440
    161    162    168   1    110.7000    313.8000
    161    162    169   1    110.7000    313.8000
    161    162    170   1    110.7000    313.8000
    168    162    169   1    107.8000    276.1440
    168    162    170   1    107.8000    276.1440
    169    162    170   1    107.8000    276.1440
    159    171    172   1    112.7000    488.2728
    159    171    176   1    110.7000    313.8000
    159    171    177   1    110.7000    313.8000
    172    171    176   1    110.7000    313.8000
    172    171    177   1    110.7000    313.8000
    176    171    177   1    107.8000    276.1440
    171    172    173   1    109.5000    418.4000
    171    172    178   1    110.7000    313.8000
    171    172    184   1    112.7000    488.2728
    173    172    178   1    109.5000    292.8800
    173    172    184   1    109.5000    418.4000
    178    172    184   1    110.7000    313.8000
    172    173    174   1    109.5000    502.0800
    173    174    175   1    109.5000    418.4000
    173    174    179   1    109.5000    292.8800
    173    174    180   1    109.5000    292.8800
    175    174    179   1    110.7000    313.8000
    175    174    180   1    110.7000    313.8000
    179    174    180   1    107.8000    276.1440
    174    175    181   1    110.7000    313.8000
    174    175    182   1    110.7000    313.8000
    174    175    183   1    110.7000    313.8000
    181    175    182   1    107.8000    276.1440
    181    175    183   1    107.8000    276.1440
    182    175    183   1    107.8000    276.1440
    172    184    185   1    112.7000    488.2728
    172    184    189   1    110.7000    313.8000
    172    184    190   1    110.7000    313.8000
    185    184    189   1    110.7000    313.8000
    185    184    190   1    110.7000    313.8000
    189    184    190   1    107.8000    276.1440
    184    185    186   1    109.5000    418.4000
    184    185    191   1    110.7000    313.8000
    184    185    197   1    112.7000    488.2728
    186    185    191   1    109.5000    292.8800
    186    185    197   1    109.5000    418.4000
    191    185    197   1    110.7000    313.8000
    185    186    187   1    109.5000    502.0800
    186    187    188   1    109.5000    418.4000
    186    187    192   1    109.5000    292.8800
    186    187    193   1    109.5000    292.8800
    188    187    192   1    110.7000    313.8000
    188    187    193   1    110.7000    313.8000
    192    187    193   1    107.8000    276.1440
    187    188    194   1    110.7000    313.8000
    187    188    195   1    110.7000    313.8000
    187    188    196   1    110.7000    313.8000
    194    188    195   1    107.8000    276.1440
    194    188    196   1    107.8000    276.1440
    195    188    196   1    107.8000    276.1440
    185    197    198   1    112.7000    488.2728
    185    197    202   1    110.7000    313.8000
    185    197    203   1    110.7000    313.8000
    198    197    202   1    110.7000    313.8000
    198    197    203   1    110.7000    313.8000
    202    197    203   1    107.8000    276.1440
    197    198    199   1    109.5000    418.4000
    197    198    204   1    110.7000    313.8000
    197    198    210   1    112.7000    488.2728
    199    198    204   1    109.5000    292.8800
    199    198    210   1    109.5000    418.4000
    204    198    210   1    110.7000    313.8000
    198    199    200   1    109.5000    502.0800
    199    200    201   1    109.5000    418.4000
    199    200    205   1    109.5000    292.8800
    199    200    206   1    109.5000    292.8800
    201    200    205   1    110.7000    313.8000
    201    200    206   1    110.7000    313.8000
    205    200    206   1    107.8000    276.1440
    200    201    207   1    110.7000    313.8000
    200    201    208   1    110.7000    313.8000
    200    201    209   1    110.7000    313.8000
    207    201    208   1    107.8000    276.1440
    207    201    209   1    107.8000    276.1440
    208    201    209   1    107.8000    276.1440
    198    210    211   1    112.7000    488.2728
    198    210    215   1    110.7000    313.8000
    198    210    216   1    110.7000    313.8000
    211    210    215   1    110.7000    313.8000
    211    210    216   1    110.7000    313.8000
    215    210    216   1    107.8000    276.1440
    210    211    212   1    109.5000    418.4000
    210    211    217   1    110.7000    313.8000
    210    211    223   1    112.7000    488.2728
    212    211    217   1    109.5000    292.8800
    212    211    223   1    109.5000    418.4000
    217    211    223   1    110.7000    313.8000
    211    212    213   1    109.5000    502.0800
    212    213    214   1    109.5000    418.4000
    212    213    218   1    109.5000    292.8800
    212    213    219   1    109.5000    292.8800
    214    213    218   1    110.7000    313.8000
    214    213    219   1    110.7000    313.8000
    218    213    219   1    107.8000    276.1440
    213    214    220   1    110.7000    313.8000
    213    214    221   1    110.7000    313.8000
    213    214    222   1    110.7000    313.8000
    220    214    221   1    107.8000    276.1440
    220    214    222   1    107.8000    276.1440
    221    214    222   1    107.8000    276.1440
    211    223    224   1    112.7000    488.2728
    211    223    228   1    110.7000    313.8000
    211    223    229   1    110.7000    313.8000
    224    223    228   1    110.7000    313.8000
    224    223    229   1    110.7000    313.8000
    228    223    229   1    107.8000    276.1440
    223    224    225   1    109.5000    418.4000
    223    224    230   1    110.7000    313.8000
    223    224    236   1    112.7000    488.2728
    225    224    230   1    109.5000    292.8800
    225    224    236   1    109.5000    418.4000
    230    224    236   1    110.7000    313.8000
    224    225    226   1    109.5000    502.0800
    225    226    227   1    109.5000    418.4000
    225    226    231   1    109.5000    292.8800
    225    226    232   1    109.5000    292.8800
    227    226    231   1    110.7000    313.8000
    227    226    232   1    110.7000    313.8000
    231    226    232   1    107.8000    276.1440
    226    227    233   1    110.7000    313.8000
    226    227    234   1    110.7000    313.8000
    226    227    235   1    110.7000    313.8000
    233    227    234   1    107.8000    276.1440
    233    227    235   1    107.8000    276.1440
    234    227    235   1    107.8000    276.1440
    224    236    237   1    112.7000    488.2728
    224    236    241   1    110.7000    313.8000
    224    236    242   1    110.7000    313.8000
    237    236    241   1    110.7000    313.8000
    237    236    242   1    110.7000    313.8000
    241    236    242   1    107.8000    276.1440
    236    237    238   1    109.5000    418.4000
    236    237    243   1    110.7000    313.8000
    236    237    249   1    112.7000    488.2728
    238    237    243   1    109.5000    292.8800
    238    237    249   1    109.5000    418.4000
    243    237    249   1    110.7000    313.8000
    237    238    239   1    109.5000    502.0800
    238    239    240   1    109.5000    418.4000
    238    239    244   1    109.5000    292.8800
    238    239    245   1    109.5000    292.8800
    240    239    244   1    110.7000    313.8000
    240    239    245   1    110.7000    313.8000
    244    239    245   1    107.8000    276.1440
    239    240    246   1    110.7000    313.8000
    239    240    247   1    110.7000    313.8000
    239    240    248   1    110.7000    313.8000
    246    240    247   1    107.8000    276.1440
    246    240    248   1    107.8000    276.1440
    247    240    248   1    107.8000    276.1440
    237    249    250   1    112.7000    488.2728
    237    249    254   1    110.7000    313.8000
    237    249    255   1    110.7000    313.8000
    250    249    254   1    110.7000    313.8000
    250    249    255   1    110.7000    313.8000
    254    249    255   1    107.8000    276.1440
    249    250    251   1    109.5000    418.4000
    249    250    256   1    110.7000    313.8000
    249    250    262   1    110.7000    313.8000
    251    250    256   1    109.5000    292.8800
    251    250    262   1    109.5000    292.8800
    256    250    262   1    107.8000    276.1440
    250    251    252   1    109.5000    502.0800
    251    252    253   1    109.5000    418.4000
    251    252    257   1    109.5000    292.8800
    251    252    258   1    109.5000    292.8800
    253    252    257   1    110.7000    313.8000
    253    252    258   1    110.7000    313.8000
    257    252    258   1    107.8000    276.1440
    252    253    259   1    110.7000    313.8000
    252    253    260   1    110.7000    313.8000
    252    253    261   1    110.7000    313.8000
    259    253    260   1    107.8000    276.1440
    259    253    261   1    107.8000    276.1440
    260    253    261   1    107.8000    276.1440

[ dihedrals ]
; Proper dihedrals
      6      1      2      3   5     0.00000     0.00000     1.95811  0.0
      6      1      2      8   5     0.00000     0.00000     1.25520  0.0
      6      1      2     15   5     0.00000     0.00000     1.25520  0.0
      7      1      2      3   5     0.00000     0.00000     1.95811  0.0
      7      1      2      8   5     0.00000     0.00000     1.25520  0.0
      7      1      2     15   5     0.00000     0.00000     1.25520  0.0
     14      1      2      3   5     0.00000     0.00000     1.95811  0.0
     14      1      2      8   5     0.00000     0.00000     1.25520  0.0
     14      1      2     15   5     0.00000     0.00000     1.25520  0.0
      1      2      3      4   5     0.52300    -0.09205     2.34722  0.0
      8      2      3      4   5     0.00000     0.00000     3.10034  0.0
     15      2      3      4   5     0.52300    -0.09205     2.34722  0.0
      1      2     15     16   5     4.74884    -0.63178     1.67360  0.0
      1      2     15     20   5     0.00000     0.00000     1.25520  0.0
      1      2     15     21   5     0.00000     0.00000     1.25520  0.0
      3      2     15     16   5     5.25092    -2.58990     2.28446  0.0
      3      2     15     20   5     0.00000     0.00000     1.95811  0.0
      3      2     15     21   5     0.00000     0.00000     1.95811  0.0
      8      2     15     16   5     0.00000     0.00000     1.25520  0.0
      8      2     15     20   5     0.00000     0.00000     1.25520  0.0
      8      2     15     21   5     0.00000     0.00000     1.25520  0.0
      2      3      4      5   5     0.52300    -0.09205     2.34722  0.0
      2      3      4      9   5     0.00000     0.00000     3.10034  0.0
      2      3      4     10   5     0.00000     0.00000     3.10034  0.0
      3      4      5     11   5     0.00000     0.00000     1.95811  0.0
      3      4      5     12   5     0.00000     0.00000     1.95811  0.0
      3      4      5     13   5     0.00000     0.00000     1.95811  0.0
      9      4      5     11   5     0.00000     0.00000     1.25520  0.0
      9      4      5     12   5     0.00000     0.00000     1.25520  0.0
      9      4      5     13   5     0.00000     0.00000     1.25520  0.0
     10      4      5     11   5     0.00000     0.00000     1.25520  0.0
     10      4      5     12   5     0.00000     0.00000     1.25520  0.0
     10      4      5     13   5     0.00000     0.00000     1.25520  0.0
      2     15     16     17   5     5.25092    -2.58990     2.28446  0.0
      2     15     16     22   5     0.00000     0.00000     1.25520  0.0
      2     15     16     28   5     4.74884    -0.63178     1.67360  0.0
     20     15     16     17   5     0.00000     0.00000     1.95811  0.0
     20     15     16     22   5     0.00000     0.00000     1.25520  0.0
     20     15     16     28   5     0.00000     0.00000     1.25520  0.0
     21     15     16     17   5     0.00000     0.00000     1.95811  0.0
     21     15     16     22   5     0.00000     0.00000     1.25520  0.0
     21     15     16     28   5     0.00000     0.00000     1.25520  0.0
     15     16     17     18   5     0.52300    -0.09205     2.34722  0.0
     22     16     17     18   5     0.00000     0.00000     3.10034  0.0
     28     16     17     18   5     0.52300    -0.09205     2.34722  0.0
     15     16     28     29   5     4.74884    -0.63178     1.67360  0.0
     15     16     28     33   5     0.00000     0.00000     1.25520  0.0
     15     16     28     34   5     0.00000     0.00000     1.25520  0.0
     17     16     28     29   5     5.25092    -2.58990     2.28446  0.0
     17     16     28     33   5     0.00000     0.00000     1.95811  0.0
     17     16     28     34   5     0.00000     0.00000     1.95811  0.0
     22     16     28     29   5     0.00000     0.00000     1.25520  0.0
     22     16     28     33   5     0.00000     0.00000     1.25520  0.0
     22     16     28     34   5     0.00000     0.00000     1.25520  0.0
     16     17     18     19   5     0.52300    -0.09205     2.34722  0.0
     16     17     18     23   5     0.00000     0.00000     3.10034  0.0
     16     17     18     24   5     0.00000     0.00000     3.10034  0.0
     17     18     19     25   5     0.00000     0.00000     1.95811  0.0
     17     18     19     26   5     0.00000     0.00000     1.95811  0.0
     17     18     19     27   5     0.00000     0.00000     1.95811  0.0
     23     18     19     25   5     0.00000     0.00000     1.25520  0.0
     23     18     19     26   5     0.00000     0.00000     1.25520  0.0
     23     18     19     27   5     0.00000     0.00000     1.25520  0.0
     24     18     19     25   5     0.00000     0.00000     1.25520  0.0
     24     18     19     26   5     0.00000     0.00000     1.25520  0.0
     24     18     19     27   5     0.00000     0.00000     1.25520  0.0
     16     28     29     30   5     5.25092    -2.58990     2.28446  0.0
     16     28     29     35   5     0.00000     0.00000     1.25520  0.0
     16     28     29     41   5     4.74884    -0.63178     1.67360  0.0
     33     28     29     30   5     0.00000     0.00000     1.95811  0.0
     33     28     29     35   5     0.00000     0.00000     1.25520  0.0
     33     28     29     41   5     0.00000     0.00000     1.25520  0.0
     34     28     29     30   5     0.00000     0.00000     1.95811  0.0
     34     28     29     35   5     0.00000     0.00000     1.25520  0.0
     34     28     29     41   5     0.00000     0.00000     1.25520  0.0
     28     29     30     31   5     0.52300    -0.09205     2.34722  0.0
     35     29     30     31   5     0.00000     0.00000     3.10034  0.0
     41     29     30     31   5     0.52300    -0.09205     2.34722  0.0
     28     29     41     42   5     4.74884    -0.63178     1.67360  0.0
     28     29     41     46   5     0.00000     0.00000     1.25520  0.0
     28     29     41     47   5     0.00000     0.00000     1.25520  0.0
     30     29     41     42   5     5.25092    -2.58990     2.28446  0.0
     30     29     41     46   5     0.00000     0.00000     1.95811  0.0
     30     29     41     47   5     0.00000     0.00000     1.95811  0.0
     35     29     41     42   5     0.00000     0.00000     1.25520  0.0
     35     29     41     46   5     0.00000     0.00000     1.25520  0.0
     35     29     41     47   5     0.00000     0.00000     1.25520  0.0
     29     30     31     32   5     0.52300    -0.09205     2.34722  0.0
     29     30     31     36   5     0.00000     0.00000     3.10034  0.0
     29     30     31     37   5     0.00000     0.00000     3.10034  0.0
     30     31     32     38   5     0.00000     0.00000     1.95811  0.0
     30     31     32     39   5     0.00000     0.00000     1.95811  0.0
     30     31     32     40   5     0.00000     0.00000     1.95811  0.0
     36     31     32     38   5     0.00000     0.00000     1.25520  0.0
     36     31     32     39   5     0.00000     0.00000     1.25520  0.0
     36     31     32     40   5     0.00000     0.00000     1.25520  0.0
     37     31     32     38   5     0.00000     0.00000     1.25520  0.0
     37     31     32     39   5     0.00000     0.00000     1.25520  0.0
     37     31     32     40   5     0.00000     0.00000     1.25520  0.0
     29     41     42     43   5     5.25092    -2.58990     2.28446  0.0
     29     41     42     48   5     0.00000     0.00000     1.25520  0.0
     29     41     42     54   5     4.74884    -0.63178     1.67360  0.0
     46     41     42     43   5     0.00000     0.00000     1.95811  0.0
     46     41     42     48   5     0.00000     0.00000     1.25520  0.0
     46     41     42     54   5     0.00000     0.00000     1.25520  0.0
     47     41     42     43   5     0.00000     0.00000     1.95811  0.0
     47     41     42     48   5     0.00000     0.00000     1.25520  0.0
     47     41     42     54   5     0.00000     0.00000     1.25520  0.0
     41     42     43     44   5     0.52300    -0.09205     2.34722  0.0
     48     42     43     44   5     0.00000     0.00000     3.10034  0.0
     54     42     43     44   5     0.52300    -0.09205     2.34722  0.0
     41     42     54     55   5     4.74884    -0.63178     1.67360  0.0
     41     42     54     59   5     0.00000     0.00000     1.25520  0.0
     41     42     54     60   5     0.00000     0.00000     1.25520  0.0
     43     42     54     55   5     5.25092    -2.58990     2.28446  0.0
     43     42     54     59   5     0.00000     0.00000     1.95811  0.0
     43     42     54     60   5     0.00000     0.00000     1.95811  0.0
     48     42     54     55   5     0.00000     0.00000     1.25520  0.0
     48     42     54     59   5     0.00000     0.00000     1.25520  0.0
     48     42     54     60   5     0.00000     0.00000     1.25520  0.0
     42     43     44     45   5     0.52300    -0.09205     2.34722  0.0
     42     43     44     49   5     0.00000     0.00000     3.10034  0.0
     42     43     44     50   5     0.00000     0.00000     3.10034  0.0
     43     44     45     51   5     0.00000     0.00000     1.95811  0.0
     43     44     45     52   5     0.00000     0.00000     1.95811  0.0
     43     44     45     53   5     0.00000     0.00000     1.95811  0.0
     49     44     45     51   5     0.00000     0.00000     1.25520  0.0
     49     44     45     52   5     0.00000     0.00000     1.25520  0.0
     49     44     45     53   5     0.00000     0.00000     1.25520  0.0
     50     44     45     51   5     0.00000     0.00000     1.25520  0.0
     50     44     45     52   5     0.00000     0.00000     1.25520  0.0
     50     44     45     53   5     0.00000     0.00000     1.25520  0.0
     42     54     55     56   5     5.25092    -2.58990     2.28446  0.0
     42     54     55     61   5     0.00000     0.00000     1.25520  0.0
     42     54     55     67   5     4.74884    -0.63178     1.67360  0.0
     59     54     55     56   5     0.00000     0.00000     1.95811  0.0
     59     54     55     61   5     0.00000     0.00000     1.25520  0.0
     59     54     55     67   5     0.00000     0.00000     1.25520  0.0
     60     54     55     56   5     0.00000     0.00000     1.95811  0.0
     60     54     55     61   5     0.00000     0.00000     1.25520  0.0
     60     54     55     67   5     0.00000     0.00000     1.25520  0.0
     54     55     56     57   5     0.52300    -0.09205     2.34722  0.0
     61     55     56     57   5     0.00000     0.00000     3.10034  0.0
     67     55     56     57   5     0.52300    -0.09205     2.34722  0.0
     54     55     67     68   5     4.74884    -0.63178     1.67360  0.0
     54     55     67     72   5     0.00000     0.00000     1.25520  0.0
     54     55     67     73   5     0.00000     0.00000     1.25520  0.0
     56     55     67     68   5     5.25092    -2.58990     2.28446  0.0
     56     55     67     72   5     0.00000     0.00000     1.95811  0.0
     56     55     67     73   5     0.00000     0.00000     1.95811  0.0
     61     55     67     68   5     0.00000     0.00000     1.25520  0.0
     61     55     67     72   5     0.00000     0.00000     1.25520  0.0
     61     55     67     73   5     0.00000     0.00000     1.25520  0.0
     55     56     57     58   5     0.52300    -0.09205     2.34722  0.0
     55     56     57     62   5     0.00000     0.00000     3.10034  0.0
     55     56     57     63   5     0.00000     0.00000     3.10034  0.0
     56     57     58     64   5     0.00000     0.00000     1.95811  0.0
     56     57     58     65   5     0.00000     0.00000     1.95811  0.0
     56     57     58     66   5     0.00000     0.00000     1.95811  0.0
     62     57     58     64   5     0.00000     0.00000     1.25520  0.0
     62     57     58     65   5     0.00000     0.00000     1.25520  0.0
     62     57     58     66   5     0.00000     0.00000     1.25520  0.0
     63     57     58     64   5     0.00000     0.00000     1.25520  0.0
     63     57     58     65   5     0.00000     0.00000     1.25520  0.0
     63     57     58     66   5     0.00000     0.00000     1.25520  0.0
     55     67     68     69   5     5.25092    -2.58990     2.28446  0.0
     55     67     68     74   5     0.00000     0.00000     1.25520  0.0
     55     67     68     80   5     4.74884    -0.63178     1.67360  0.0
     72     67     68     69   5     0.00000     0.00000     1.95811  0.0
     72     67     68     74   5     0.00000     0.00000     1.25520  0.0
     72     67     68     80   5     0.00000     0.00000     1.25520  0.0
     73     67     68     69   5     0.00000     0.00000     1.95811  0.0
     73     67     68     74   5     0.00000     0.00000     1.25520  0.0
     73     67     68     80   5     0.00000     0.00000     1.25520  0.0
     67     68     69     70   5     0.52300    -0.09205     2.34722  0.0
     74     68     69     70   5     0.00000     0.00000     3.10034  0.0
     80     68     69     70   5     0.52300    -0.09205     2.34722  0.0
     67     68     80     81   5     4.74884    -0.63178     1.67360  0.0
     67     68     80     85   5     0.00000     0.00000     1.25520  0.0
     67     68     80     86   5     0.00000     0.00000     1.25520  0.0
     69     68     80     81   5     5.25092    -2.58990     2.28446  0.0
     69     68     80     85   5     0.00000     0.00000     1.95811  0.0
     69     68     80     86   5     0.00000     0.00000     1.95811  0.0
     74     68     80     81   5     0.00000     0.00000     1.25520  0.0
     74     68     80     85   5     0.00000     0.00000     1.25520  0.0
     74     68     80     86   5     0.00000     0.00000     1.25520  0.0
     68     69     70     71   5     0.52300    -0.09205     2.34722  0.0
     68     69     70     75   5     0.00000     0.00000     3.10034  0.0
     68     69     70     76   5     0.00000     0.00000     3.10034  0.0
     69     70     71     77   5     0.00000     0.00000     1.95811  0.0
     69     70     71     78   5     0.00000     0.00000     1.95811  0.0
     69     70     71     79   5     0.00000     0.00000     1.95811  0.0
     75     70     71     77   5     0.00000     0.00000     1.25520  0.0
     75     70     71     78   5     0.00000     0.00000     1.25520  0.0
     75     70     71     79   5     0.00000     0.00000     1.25520  0.0
     76     70     71     77   5     0.00000     0.00000     1.25520  0.0
     76     70     71     78   5     0.00000     0.00000     1.25520  0.0
     76     70     71     79   5     0.00000     0.00000     1.25520  0.0
     68     80     81     82   5     5.25092    -2.58990     2.28446  0.0
     68     80     81     87   5     0.00000     0.00000     1.25520  0.0
     68     80     81     93   5     4.74884    -0.63178     1.67360  0.0
     85     80     81     82   5     0.00000     0.00000     1.95811  0.0
     85     80     81     87   5     0.00000     0.00000     1.25520  0.0
     85     80     81     93   5     0.00000     0.00000     1.25520  0.0
     86     80     81     82   5     0.00000     0.00000     1.95811  0.0
     86     80     81     87   5     0.00000     0.00000     1.25520  0.0
     86     80     81     93   5     0.00000     0.00000     1.25520  0.0
     80     81     82     83   5     0.52300    -0.09205     2.34722  0.0
     87     81     82     83   5     0.00000     0.00000     3.10034  0.0
     93     81     82     83   5     0.52300    -0.09205     2.34722  0.0
     80     81     93     94   5     4.74884    -0.63178     1.67360  0.0
     80     81     93     98   5     0.00000     0.00000     1.25520  0.0
     80     81     93     99   5     0.00000     0.00000     1.25520  0.0
     82     81     93     94   5     5.25092    -2.58990     2.28446  0.0
     82     81     93     98   5     0.00000     0.00000     1.95811  0.0
     82     81     93     99   5     0.00000     0.00000     1.95811  0.0
     87     81     93     94   5     0.00000     0.00000     1.25520  0.0
     87     81     93     98   5     0.00000     0.00000     1.25520  0.0
     87     81     93     99   5     0.00000     0.00000     1.25520  0.0
     81     82     83     84   5     0.52300    -0.09205     2.34722  0.0
     81     82     83     88   5     0.00000     0.00000     3.10034  0.0
     81     82     83     89   5     0.00000     0.00000     3.10034  0.0
     82     83     84     90   5     0.00000     0.00000     1.95811  0.0
     82     83     84     91   5     0.00000     0.00000     1.95811  0.0
     82     83     84     92   5     0.00000     0.00000     1.95811  0.0
     88     83     84     90   5     0.00000     0.00000     1.25520  0.0
     88     83     84     91   5     0.00000     0.00000     1.25520  0.0
     88     83     84     92   5     0.00000     0.00000     1.25520  0.0
     89     83     84     90   5     0.00000     0.00000     1.25520  0.0
     89     83     84     91   5     0.00000     0.00000     1.25520  0.0
     89     83     84     92   5     0.00000     0.00000     1.25520  0.0
     81     93     94     95   5     5.25092    -2.58990     2.28446  0.0
     81     93     94    100   5     0.00000     0.00000     1.25520  0.0
     81     93     94    106   5     4.74884    -0.63178     1.67360  0.0
     98     93     94     95   5     0.00000     0.00000     1.95811  0.0
     98     93     94    100   5     0.00000     0.00000     1.25520  0.0
     98     93     94    106   5     0.00000     0.00000     1.25520  0.0
     99     93     94     95   5     0.00000     0.00000     1.95811  0.0
     99     93     94    100   5     0.00000     0.00000     1.25520  0.0
     99     93     94    106   5     0.00000     0.00000     1.25520  0.0
     93     94     95     96   5     0.52300    -0.09205     2.34722  0.0
    100     94     95     96   5     0.00000     0.00000     3.10034  0.0
    106     94     95     96   5     0.52300    -0.09205     2.34722  0.0
     93     94    106    107   5     4.74884    -0.63178     1.67360  0.0
     93     94    106    111   5     0.00000     0.00000     1.25520  0.0
     93     94    106    112   5     0.00000     0.00000     1.25520  0.0
     95     94    106    107   5     5.25092    -2.58990     2.28446  0.0
     95     94    106    111   5     0.00000     0.00000     1.95811  0.0
     95     94    106    112   5     0.00000     0.00000     1.95811  0.0
    100     94    106    107   5     0.00000     0.00000     1.25520  0.0
    100     94    106    111   5     0.00000     0.00000     1.25520  0.0
    100     94    106    112   5     0.00000     0.00000     1.25520  0.0
     94     95     96     97   5     0.52300    -0.09205     2.34722  0.0
     94     95     96    101   5     0.00000     0.00000     3.10034  0.0
     94     95     96    102   5     0.00000     0.00000     3.10034  0.0
     95     96     97    103   5     0.00000     0.00000     1.95811  0.0
     95     96     97    104   5     0.00000     0.00000     1.95811  0.0
     95     96     97    105   5     0.00000     0.00000     1.95811  0.0
    101     96     97    103   5     0.00000     0.00000     1.25520  0.0
    101     96     97    104   5     0.00000     0.00000     1.25520  0.0
    101     96     97    105   5     0.00000     0.00000     1.25520  0.0
    102     96     97    103   5     0.00000     0.00000     1.25520  0.0
    102     96     97    104   5     0.00000     0.00000     1.25520  0.0
    102     96     97    105   5     0.00000     0.00000     1.25520  0.0
     94    106    107    108   5     5.25092    -2.58990     2.28446  0.0
     94    106    107    113   5     0.00000     0.00000     1.25520  0.0
     94    106    107    119   5     4.74884    -0.63178     1.67360  0.0
    111    106    107    108   5     0.00000     0.00000     1.95811  0.0
    111    106    107    113   5     0.00000     0.00000     1.25520  0.0
    111    106    107    119   5     0.00000     0.00000     1.25520  0.0
    112    106    107    108   5     0.00000     0.00000     1.95811  0.0
    112    106    107    113   5     0.00000     0.00000     1.25520  0.0
    112    106    107    119   5     0.00000     0.00000     1.25520  0.0
    106    107    108    109   5     0.52300    -0.09205     2.34722  0.0
    113    107    108    109   5     0.00000     0.00000     3.10034  0.0
    119    107    108    109   5     0.52300    -0.09205     2.34722  0.0
    106    107    119    120   5     4.74884    -0.63178     1.67360  0.0
    106    107    119    124   5     0.00000     0.00000     1.25520  0.0
    106    107    119    125   5     0.00000     0.00000     1.25520  0.0
    108    107    119    120   5     5.25092    -2.58990     2.28446  0.0
    108    107    119    124   5     0.00000     0.00000     1.95811  0.0
    108    107    119    125   5     0.00000     0.00000     1.95811  0.0
    113    107    119    120   5     0.00000     0.00000     1.25520  0.0
    113    107    119    124   5     0.00000     0.00000     1.25520  0.0
    113    107    119    125   5     0.00000     0.00000     1.25520  0.0
    107    108    109    110   5     0.52300    -0.09205     2.34722  0.0
    107    108    109    114   5     0.00000     0.00000     3.10034  0.0
    107    108    109    115   5     0.00000     0.00000     3.10034  0.0
    108    109    110    116   5     0.00000     0.00000     1.95811  0.0
    108    109    110    117   5     0.00000     0.00000     1.95811  0.0
    108    109    110    118   5     0.00000     0.00000     1.95811  0.0
    114    109    110    116   5     0.00000     0.00000     1.25520  0.0
    114    109    110    117   5     0.00000     0.00000     1.25520  0.0
    114    109    110    118   5     0.00000     0.00000     1.25520  0.0
    115    109    110    116   5     0.00000     0.00000     1.25520  0.0
    115    109    110    117   5     0.00000     0.00000     1.25520  0.0
    115    109    110    118   5     0.00000     0.00000     1.25520  0.0
    107    119    120    121   5     5.25092    -2.58990     2.28446  0.0
    107    119    120    126   5     0.00000     0.00000     1.25520  0.0
    107    119    120    132   5     4.74884    -0.63178     1.67360  0.0
    124    119    120    121   5     0.00000     0.00000     1.95811  0.0
    124    119    120    126   5     0.00000     0.00000     1.25520  0.0
    124    119    120    132   5     0.00000     0.00000     1.25520  0.0
    125    119    120    121   5     0.00000     0.00000     1.95811  0.0
    125    119    120    126   5     0.00000     0.00000     1.25520  0.0
    125    119    120    132   5     0.00000     0.00000     1.25520  0.0
    119    120    121    122   5     0.52300    -0.09205     2.34722  0.0
    126    120    121    122   5     0.00000     0.00000     3.10034  0.0
    132    120    121    122   5     0.52300    -0.09205     2.34722  0.0
    119    120    132    133   5     4.74884    -0.63178     1.67360  0.0
    119    120    132    137   5     0.00000     0.00000     1.25520  0.0
    119    120    132    138   5     0.00000     0.00000     1.25520  0.0
    121    120    132    133   5     5.25092    -2.58990     2.28446  0.0
    121    120    132    137   5     0.00000     0.00000     1.95811  0.0
    121    120    132    138   5     0.00000     0.00000     1.95811  0.0
    126    120    132    133   5     0.00000     0.00000     1.25520  0.0
    126    120    132    137   5     0.00000     0.00000     1.25520  0.0
    126    120    132    138   5     0.00000     0.00000     1.25520  0.0
    120    121    122    123   5     0.52300    -0.09205     2.34722  0.0
    120    121    122    127   5     0.00000     0.00000     3.10034  0.0
    120    121    122    128   5     0.00000     0.00000     3.10034  0.0
    121    122    123    129   5     0.00000     0.00000     1.95811  0.0
    121    122    123    130   5     0.00000     0.00000     1.95811  0.0
    121    122    123    131   5     0.00000     0.00000     1.95811  0.0
    127    122    123    129   5     0.00000     0.00000     1.25520  0.0
    127    122    123    130   5     0.00000     0.00000     1.25520  0.0
    127    122    123    131   5     0.00000     0.00000     1.25520  0.0
    128    122    123    129   5     0.00000     0.00000     1.25520  0.0
    128    122    123    130   5     0.00000     0.00000     1.25520  0.0
    128    122    123    131   5     0.00000     0.00000     1.25520  0.0
    120    132    133    134   5     5.25092    -2.58990     2.28446  0.0
    120    132    133    139   5     0.00000     0.00000     1.25520  0.0
    120    132    133    145   5     4.74884    -0.63178     1.67360  0.0
    137    132    133    134   5     0.00000     0.00000     1.95811  0.0
    137    132    133    139   5     0.00000     0.00000     1.25520  0.0
    137    132    133    145   5     0.00000     0.00000     1.25520  0.0
    138    132    133    134   5     0.00000     0.00000     1.95811  0.0
    138    132    133    139   5     0.00000     0.00000     1.25520  0.0
    138    132    133    145   5     0.00000     0.00000     1.25520  0.0
    132    133    134    135   5     0.52300    -0.09205     2.34722  0.0
    139    133    134    135   5     0.00000     0.00000     3.10034  0.0
    145    133    134    135   5     0.52300    -0.09205     2.34722  0.0
    132    133    145    146   5     4.74884    -0.63178     1.67360  0.0
    132    133    145    150   5     0.00000     0.00000     1.25520  0.0
    132    133    145    151   5     0.00000     0.00000     1.25520  0.0
    134    133    145    146   5     5.25092    -2.58990     2.28446  0.0
    134    133    145    150   5     0.00000     0.00000     1.95811  0.0
    134    133    145    151   5     0.00000     0.00000     1.95811  0.0
    139    133    145    146   5     0.00000     0.00000     1.25520  0.0
    139    133    145    150   5     0.00000     0.00000     1.25520  0.0
    139    133    145    151   5     0.00000     0.00000     1.25520  0.0
    133    134    135    136   5     0.52300    -0.09205     2.34722  0.0
    133    134    135    140   5     0.00000     0.00000     3.10034  0.0
    133    134    135    141   5     0.00000     0.00000     3.10034  0.0
    134    135    136    142   5     0.00000     0.00000     1.95811  0.0
    134    135    136    143   5     0.00000     0.00000     1.95811  0.0
    134    135    136    144   5     0.00000     0.00000     1.95811  0.0
    140    135    136    142   5     0.00000     0.00000     1.25520  0.0
    140    135    136    143   5     0.00000     0.00000     1.25520  0.0
    140    135    136    144   5     0.00000     0.00000     1.25520  0.0
    141    135    136    142   5     0.00000     0.00000     1.25520  0.0
    141    135    136    143   5     0.00000     0.00000     1.25520  0.0
    141    135    136    144   5     0.00000     0.00000     1.25520  0.0
    133    145    146    147   5     5.25092    -2.58990     2.28446  0.0
    133    145    146    152   5     0.00000     0.00000     1.25520  0.0
    133    145    146    158   5     4.74884    -0.63178     1.67360  0.0
    150    145    146    147   5     0.00000     0.00000     1.95811  0.0
    150    145    146    152   5     0.00000     0.00000     1.25520  0.0
    150    145    146    158   5     0.00000     0.00000     1.25520  0.0
    151    145    146    147   5     0.00000     0.00000     1.95811  0.0
    151    145    146    152   5     0.00000     0.00000     1.25520  0.0
    151    145    146    158   5     0.00000     0.00000     1.25520  0.0
    145    146    147    148   5     0.52300    -0.09205     2.34722  0.0
    152    146    147    148   5     0.00000     0.00000     3.10034  0.0
    158    146    147    148   5     0.52300    -0.09205     2.34722  0.0
    145    146    158    159   5     4.74884    -0.63178     1.67360  0.0
    145    146    158    163   5     0.00000     0.00000     1.25520  0.0
    145    146    158    164   5     0.00000     0.00000     1.25520  0.0
    147    146    158    159   5     5.25092    -2.58990     2.28446  0.0
    147    146    158    163   5     0.00000     0.00000     1.95811  0.0
    147    146    158    164   5     0.00000     0.00000     1.95811  0.0
    152    146    158    159   5     0.00000     0.00000     1.25520  0.0
    152    146    158    163   5     0.00000     0.00000     1.25520  0.0
    152    146    158    164   5     0.00000     0.00000     1.25520  0.0
    146    147    148    149   5     0.52300    -0.09205     2.34722  0.0
    146    147    148    153   5     0.00000     0.00000     3.10034  0.0
    146    147    148    154   5     0.00000     0.00000     3.10034  0.0
    147    148    149    155   5     0.00000     0.00000     1.95811  0.0
    147    148    149    156   5     0.00000     0.00000     1.95811  0.0
    147    148    149    157   5     0.00000     0.00000     1.95811  0.0
    153    148    149    155   5     0.00000     0.00000     1.25520  0.0
    153    148    149    156   5     0.00000     0.00000     1.25520  0.0
    153    148    149    157   5     0.00000     0.00000     1.25520  0.0
    154    148    149    155   5     0.00000     0.00000     1.25520  0.0
    154    148    149    156   5     0.00000     0.00000     1.25520  0.0
    154    148    149    157   5     0.00000     0.00000     1.25520  0.0
    146    158    159    160   5     5.25092    -2.58990     2.28446  0.0
    146    158    159    165   5     0.00000     0.00000     1.25520  0.0
    146    158    159    171   5     4.74884    -0.63178     1.67360  0.0
    163    158    159    160   5     0.00000     0.00000     1.95811  0.0
    163    158    159    165   5     0.00000     0.00000     1.25520  0.0
    163    158    159    171   5     0.00000     0.00000     1.25520  0.0
    164    158    159    160   5     0.00000     0.00000     1.95811  0.0
    164    158    159    165   5     0.00000     0.00000     1.25520  0.0
    164    158    159    171   5     0.00000     0.00000     1.25520  0.0
    158    159    160    161   5     0.52300    -0.09205     2.34722  0.0
    165    159    160    161   5     0.00000     0.00000     3.10034  0.0
    171    159    160    161   5     0.52300    -0.09205     2.34722  0.0
    158    159    171    172   5     4.74884    -0.63178     1.67360  0.0
    158    159    171    176   5     0.00000     0.00000     1.25520  0.0
    158    159    171    177   5     0.00000     0.00000     1.25520  0.0
    160    159    171    172   5     5.25092    -2.58990     2.28446  0.0
    160    159    171    176   5     0.00000     0.00000     1.95811  0.0
    160    159    171    177   5     0.00000     0.00000     1.95811  0.0
    165    159    171    172   5     0.00000     0.00000     1.25520  0.0
    165    159    171    176   5     0.00000     0.00000     1.25520  0.0
    165    159    171    177   5     0.00000     0.00000     1.25520  0.0
    159    160    161    162   5     0.52300    -0.09205     2.34722  0.0
    159    160    161    166   5     0.00000     0.00000     3.10034  0.0
    159    160    161    167   5     0.00000     0.00000     3.10034  0.0
    160    161    162    168   5     0.00000     0.00000     1.95811  0.0
    160    161    162    169   5     0.00000     0.00000     1.95811  0.0
    160    161    162    170   5     0.00000     0.00000     1.95811  0.0
    166    161    162    168   5     0.00000     0.00000     1.25520  0.0
    166    161    162    169   5     0.00000     0.00000     1.25520  0.0
    166    161    162    170   5     0.00000     0.00000     1.25520  0.0
    167    161    162    168   5     0.00000     0.00000     1.25520  0.0
    167    161    162    169   5     0.00000     0.00000     1.25520  0.0
    167    161    162    170   5     0.00000     0.00000     1.25520  0.0
    159    171    172    173   5     5.25092    -2.58990     2.28446  0.0
    159    171    172    178   5     0.00000     0.00000     1.25520  0.0
    159    171    172    184   5     4.74884    -0.63178     1.67360  0.0
    176    171    172    173   5     0.00000     0.00000     1.95811  0.0
    176    171    172    178   5     0.00000     0.00000     1.25520  0.0
    176    171    172    184   5     0.00000     0.00000     1.25520  0.0
    177    171    172    173   5     0.00000     0.00000     1.95811  0.0
    177    171    172    178   5     0.00000     0.00000     1.25520  0.0
    177    171    172    184   5     0.00000     0.00000     1.25520  0.0
    171    172    173    174   5     0.52300    -0.09205     2.34722  0.0
    178    172    173    174   5     0.00000     0.00000     3.10034  0.0
    184    172    173    174   5     0.52300    -0.09205     2.34722  0.0
    171    172    184    185   5     4.74884    -0.63178     1.67360  0.0
    171    172    184    189   5     0.00000     0.00000     1.25520  0.0
    171    172    184    190   5     0.00000     0.00000     1.25520  0.0
    173    172    184    185   5     5.25092    -2.58990     2.28446  0.0
    173    172    184    189   5     0.00000     0.00000     1.95811  0.0
    173    172    184    190   5     0.00000     0.00000     1.95811  0.0
    178    172    184    185   5     0.00000     0.00000     1.25520  0.0
    178    172    184    189   5     0.00000     0.00000     1.25520  0.0
    178    172    184    190   5     0.00000     0.00000     1.25520  0.0
    172    173    174    175   5     0.52300    -0.09205     2.34722  0.0
    172    173    174    179   5     0.00000     0.00000     3.10034  0.0
    172    173    174    180   5     0.00000     0.00000     3.10034  0.0
    173    174    175    181   5     0.00000     0.00000     1.95811  0.0
    173    174    175    182   5     0.00000     0.00000     1.95811  0.0
    173    174    175    183   5     0.00000     0.00000     1.95811  0.0
    179    174    175    181   5     0.00000     0.00000     1.25520  0.0
    179    174    175    182   5     0.00000     0.00000     1.25520  0.0
    179    174    175    183   5     0.00000     0.00000     1.25520  0.0
    180    174    175    181   5     0.00000     0.00000     1.25520  0.0
    180    174    175    182   5     0.00000     0.00000     1.25520  0.0
    180    174    175    183   5     0.00000     0.00000     1.25520  0.0
    172    184    185    186   5     5.25092    -2.58990     2.28446  0.0
    172    184    185    191   5     0.00000     0.00000     1.25520  0.0
    172    184    185    197   5     4.74884    -0.63178     1.67360  0.0
    189    184    185    186   5     0.00000     0.00000     1.95811  0.0
    189    184    185    191   5     0.00000     0.00000     1.25520  0.0
    189    184    185    197   5     0.00000     0.00000     1.25520  0.0
    190    184    185    186   5     0.00000     0.00000     1.95811  0.0
    190    184    185    191   5     0.00000     0.00000     1.25520  0.0
    190    184    185    197   5     0.00000     0.00000     1.25520  0.0
    184    185    186    187   5     0.52300    -0.09205     2.34722  0.0
    191    185    186    187   5     0.00000     0.00000     3.10034  0.0
    197    185    186    187   5     0.52300    -0.09205     2.34722  0.0
    184    185    197    198   5     4.74884    -0.63178     1.67360  0.0
    184    185    197    202   5     0.00000     0.00000     1.25520  0.0
    184    185    197    203   5     0.00000     0.00000     1.25520  0.0
    186    185    197    198   5     5.25092    -2.58990     2.28446  0.0
    186    185    197    202   5     0.00000     0.00000     1.95811  0.0
    186    185    197    203   5     0.00000     0.00000     1.95811  0.0
    191    185    197    198   5     0.00000     0.00000     1.25520  0.0
    191    185    197    202   5     0.00000     0.00000     1.25520  0.0
    191    185    197    203   5     0.00000     0.00000     1.25520  0.0
    185    186    187    188   5     0.52300    -0.09205     2.34722  0.0
    185    186    187    192   5     0.00000     0.00000     3.10034  0.0
    185    186    187    193   5     0.00000     0.00000     3.10034  0.0
    186    187    188    194   5     0.00000     0.00000     1.95811  0.0
    186    187    188    195   5     0.00000     0.00000     1.95811  0.0
    186    187    188    196   5     0.00000     0.00000     1.95811  0.0
    192    187    188    194   5     0.00000     0.00000     1.25520  0.0
    192    187    188    195   5     0.00000     0.00000     1.25520  0.0
    192    187    188    196   5     0.00000     0.00000     1.25520  0.0
    193    187    188    194   5     0.00000     0.00000     1.25520  0.0
    193    187    188    195   5     0.00000     0.00000     1.25520  0.0
    193    187    188    196   5     0.00000     0.00000     1.25520  0.0
    185    197    198    199   5     5.25092    -2.58990     2.28446  0.0
    185    197    198    204   5     0.00000     0.00000     1.25520  0.0
    185    197    198    210   5     4.74884    -0.63178     1.67360  0.0
    202    197    198    199   5     0.00000     0.00000     1.95811  0.0
    202    197    198    204   5     0.00000     0.00000     1.25520  0.0
    202    197    198    210   5     0.00000     0.00000     1.25520  0.0
    203    197    198    199   5     0.00000     0.00000     1.95811  0.0
    203    197    198    204   5     0.00000     0.00000     1.25520  0.0
    203    197    198    210   5     0.00000     0.00000     1.25520  0.0
    197    198    199    200   5     0.52300    -0.09205     2.34722  0.0
    204    198    199    200   5     0.00000     0.00000     3.10034  0.0
    210    198    199    200   5     0.52300    -0.09205     2.34722  0.0
    197    198    210    211   5     4.74884    -0.63178     1.67360  0.0
    197    198    210    215   5     0.00000     0.00000     1.25520  0.0
    197    198    210    216   5     0.00000     0.00000     1.25520  0.0
    199    198    210    211   5     5.25092    -2.58990     2.28446  0.0
    199    198    210    215   5     0.00000     0.00000     1.95811  0.0
    199    198    210    216   5     0.00000     0.00000     1.95811  0.0
    204    198    210    211   5     0.00000     0.00000     1.25520  0.0
    204    198    210    215   5     0.00000     0.00000     1.25520  0.0
    204    198    210    216   5     0.00000     0.00000     1.25520  0.0
    198    199    200    201   5     0.52300    -0.09205     2.34722  0.0
    198    199    200    205   5     0.00000     0.00000     3.10034  0.0
    198    199    200    206   5     0.00000     0.00000     3.10034  0.0
    199    200    201    207   5     0.00000     0.00000     1.95811  0.0
    199    200    201    208   5     0.00000     0.00000     1.95811  0.0
    199    200    201    209   5     0.00000     0.00000     1.95811  0.0
    205    200    201    207   5     0.00000     0.00000     1.25520  0.0
    205    200    201    208   5     0.00000     0.00000     1.25520  0.0
    205    200    201    209   5     0.00000     0.00000     1.25520  0.0
    206    200    201    207   5     0.00000     0.00000     1.25520  0.0
    206    200    201    208   5     0.00000     0.00000     1.25520  0.0
    206    200    201    209   5     0.00000     0.00000     1.25520  0.0
    198    210    211    212   5     5.25092    -2.58990     2.28446  0.0
    198    210    211    217   5     0.00000     0.00000     1.25520  0.0
    198    210    211    223   5     4.74884    -0.63178     1.67360  0.0
    215    210    211    212   5     0.00000     0.00000     1.95811  0.0
    215    210    211    217   5     0.00000     0.00000     1.25520  0.0
    215    210    211    223   5     0.00000     0.00000     1.25520  0.0
    216    210    211    212   5     0.00000     0.00000     1.95811  0.0
    216    210    211    217   5     0.00000     0.00000     1.25520  0.0
    216    210    211    223   5     0.00000     0.00000     1.25520  0.0
    210    211    212    213   5     0.52300    -0.09205     2.34722  0.0
    217    211    212    213   5     0.00000     0.00000     3.10034  0.0
    223    211    212    213   5     0.52300    -0.09205     2.34722  0.0
    210    211    223    224   5     4.74884    -0.63178     1.67360  0.0
    210    211    223    228   5     0.00000     0.00000     1.25520  0.0
    210    211    223    229   5     0.00000     0.00000     1.25520  0.0
    212    211    223    224   5     5.25092    -2.58990     2.28446  0.0
    212    211    223    228   5     0.00000     0.00000     1.95811  0.0
    212    211    223    229   5     0.00000     0.00000     1.95811  0.0
    217    211    223    224   5     0.00000     0.00000     1.25520  0.0
    217    211    223    228   5     0.00000     0.00000     1.25520  0.0
    217    211    223    229   5     0.00000     0.00000     1.25520  0.0
    211    212    213    214   5     0.52300    -0.09205     2.34722  0.0
    211    212    213    218   5     0.00000     0.00000     3.10034  0.0
    211    212    213    219   5     0.00000     0.00000     3.10034  0.0
    212    213    214    220   5     0.00000     0.00000     1.95811  0.0
    212    213    214    221   5     0.00000     0.00000     1.95811  0.0
    212    213    214    222   5     0.00000     0.00000     1.95811  0.0
    218    213    214    220   5     0.00000     0.00000     1.25520  0.0
    218    213    214    221   5     0.00000     0.00000     1.25520  0.0
    218    213    214    222   5     0.00000     0.00000     1.25520  0.0
    219    213    214    220   5     0.00000     0.00000     1.25520  0.0
    219    213    214    221   5     0.00000     0.00000     1.25520  0.0
    219    213    214    222   5     0.00000     0.00000     1.25520  0.0
    211    223    224    225   5     5.25092    -2.58990     2.28446  0.0
    211    223    224    230   5     0.00000     0.00000     1.25520  0.0
    211    223    224    236   5     4.74884    -0.63178     1.67360  0.0
    228    223    224    225   5     0.00000     0.00000     1.95811  0.0
    228    223    224    230   5     0.00000     0.00000     1.25520  0.0
    228    223    224    236   5     0.00000     0.00000     1.25520  0.0
    229    223    224    225   5     0.00000     0.00000     1.95811  0.0
    229    223    224    230   5     0.00000     0.00000     1.25520  0.0
    229    223    224    236   5     0.00000     0.00000     1.25520  0.0
    223    224    225    226   5     0.52300    -0.09205     2.34722  0.0
    230    224    225    226   5     0.00000     0.00000     3.10034  0.0
    236    224    225    226   5     0.52300    -0.09205     2.34722  0.0
    223    224    236    237   5     4.74884    -0.63178     1.67360  0.0
    223    224    236    241   5     0.00000     0.00000     1.25520  0.0
    223    224    236    242   5     0.00000     0.00000     1.25520  0.0
    225    224    236    237   5     5.25092    -2.58990     2.28446  0.0
    225    224    236    241   5     0.00000     0.00000     1.95811  0.0
    225    224    236    242   5     0.00000     0.00000     1.95811  0.0
    230    224    236    237   5     0.00000     0.00000     1.25520  0.0
    230    224    236    241   5     0.00000     0.00000     1.25520  0.0
    230    224    236    242   5     0.00000     0.00000     1.25520  0.0
    224    225    226    227   5     0.52300    -0.09205     2.34722  0.0
    224    225    226    231   5     0.00000     0.00000     3.10034  0.0
    224    225    226    232   5     0.00000     0.00000     3.10034  0.0
    225    226    227    233   5     0.00000     0.00000     1.95811  0.0
    225    226    227    234   5     0.00000     0.00000     1.95811  0.0
    225    226    227    235   5     0.00000     0.00000     1.95811  0.0
    231    226    227    233   5     0.00000     0.00000     1.25520  0.0
    231    226    227    234   5     0.00000     0.00000     1.25520  0.0
    231    226    227    235   5     0.00000     0.00000     1.25520  0.0
    232    226    227    233   5     0.00000     0.00000     1.25520  0.0
    232    226    227    234   5     0.00000     0.00000     1.25520  0.0
    232    226    227    235   5     0.00000     0.00000     1.25520  0.0
    224    236    237    238   5     5.25092    -2.58990     2.28446  0.0
    224    236    237    243   5     0.00000     0.00000     1.25520  0.0
    224    236    237    249   5     4.74884    -0.63178     1.67360  0.0
    241    236    237    238   5     0.00000     0.00000     1.95811  0.0
    241    236    237    243   5     0.00000     0.00000     1.25520  0.0
    241    236    237    249   5     0.00000     0.00000     1.25520  0.0
    242    236    237    238   5     0.00000     0.00000     1.95811  0.0
    242    236    237    243   5     0.00000     0.00000     1.25520  0.0
    242    236    237    249   5     0.00000     0.00000     1.25520  0.0
    236    237    238    239   5     0.52300    -0.09205     2.34722  0.0
    243    237    238    239   5     0.00000     0.00000     3.10034  0.0
    249    237    238    239   5     0.52300    -0.09205     2.34722  0.0
    236    237    249    250   5     4.74884    -0.63178     1.67360  0.0
    236    237    249    254   5     0.00000     0.00000     1.25520  0.0
    236    237    249    255   5     0.00000     0.00000     1.25520  0.0
    238    237    249    250   5     5.25092    -2.58990     2.28446  0.0
    238    237    249    254   5     0.00000     0.00000     1.95811  0.0
    238    237    249    255   5     0.00000     0.00000     1.95811  0.0
    243    237    249    250   5     0.00000     0.00000     1.25520  0.0
    243    237    249    254   5     0.00000     0.00000     1.25520  0.0
    243    237    249    255   5     0.00000     0.00000     1.25520  0.0
    237    238    239    240   5     0.52300    -0.09205     2.34722  0.0
    237    238    239    244   5     0.00000     0.00000     3.10034  0.0
    237    238    239    245   5     0.00000     0.00000     3.10034  0.0
    238    239    240    246   5     0.00000     0.00000     1.95811  0.0
    238    239    240    247   5     0.00000     0.00000     1.95811  0.0
    238    239    240    248   5     0.00000     0.00000     1.95811  0.0
    244    239    240    246   5     0.00000     0.00000     1.25520  0.0
    244    239    240    247   5     0.00000     0.00000     1.25520  0.0
    244    239    240    248   5     0.00000     0.00000     1.25520  0.0
    245    239    240    246   5     0.00000     0.00000     1.25520  0.0
    245    239    240    247   5     0.00000     0.00000     1.25520  0.0
    245    239    240    248   5     0.00000     0.00000     1.25520  0.0
    237    249    250    251   5     5.25092    -2.58990     2.28446  0.0
    237    249    250    256   5     0.00000     0.00000     1.25520  0.0
    237    249    250    262   5     0.00000     0.00000     1.25520  0.0
    254    249    250    251   5     0.00000     0.00000     1.95811  0.0
    254    249    250    256   5     0.00000     0.00000     1.25520  0.0
    254    249    250    262   5     0.00000     0.00000     1.25520  0.0
    255    249    250    251   5     0.00000     0.00000     1.95811  0.0
    255    249    250    256   5     0.00000     0.00000     1.25520  0.0
    255    249    250    262   5     0.00000     0.00000     1.25520  0.0
    249    250    251    252   5     0.52300    -0.09205     2.34722  0.0
    256    250    251    252   5     0.00000     0.00000     3.10034  0.0
    262    250    251    252   5     0.00000     0.00000     3.10034  0.0
    250    251    252    253   5     0.52300    -0.09205     2.34722  0.0
    250    251    252    257   5     0.00000     0.00000     3.10034  0.0
    250    251    252    258   5     0.00000     0.00000     3.10034  0.0
    251    252    253    259   5     0.00000     0.00000     1.95811  0.0
    251    252    253    260   5     0.00000     0.00000     1.95811  0.0
    251    252    253    261   5     0.00000     0.00000     1.95811  0.0
    257    252    253    259   5     0.00000     0.00000     1.25520  0.0
    257    252    253    260   5     0.00000     0.00000     1.25520  0.0
    257    252    253    261   5     0.00000     0.00000     1.25520  0.0
    258    252    253    259   5     0.00000     0.00000     1.25520  0.0
    258    252    253    260   5     0.00000     0.00000     1.25520  0.0
    258    252    253    261   5     0.00000     0.00000     1.25520  0.0
