;
; Gromacs include topology (itp) file.
; For Molecular Group XYZ
; Force field scheme: opls2005
; Produced from DL_FIELD v4.11
;


[ moleculetype ]
; name    nrexcl
XYZ    3

[ atoms ]
; nr   type   resnr   residu    atom    cgnr    charge    mass
    1       CO4    1  MOL      C1     1   0.4500000   12.0115
    2         O    1  MOL      O2     2  -0.4500000   15.9994
    3        CT    1  MOL      C3     3  -0.1200000   12.0115
    4        CT    1  MOL      C4     4  -0.1200000   12.0115
    5        CT    1  MOL      C5     5  -0.1200000   12.0115
    6        CT    1  MOL      C6     6  -0.1200000   12.0115
    7        CT    1  MOL      C7     7  -0.1200000   12.0115
    8        CT    1  MOL      C8     8  -0.1200000   12.0115
    9        CT    1  MOL      C9     9  -0.1200000   12.0115
   10        CT    1  MOL     C10    10  -0.1200000   12.0115
   11        CT    1  MOL     C11    11  -0.1200000   12.0115
   12        CT    1  MOL     C12    12  -0.1200000   12.0115
   13         C    1  MOL     C13    13   0.5000000   12.0115
   14         O    1  MOL     O14    14  -0.5000000   15.9994
   15         N    1  MOL     N15    15  -0.5000000   14.0067
   16        CT    1  MOL     C16    16   0.0800000   12.0115
   17        CT    1  MOL     C17    17  -0.1200000   12.0115
   18        CT    1  MOL     C18    18  -0.1200000   12.0115
   19        CT    1  MOL     C19    19  -0.1200000   12.0115
   20        CT    1  MOL     C20    20  -0.1200000   12.0115
   21        CT    1  MOL     C21    21   0.0800000   12.0115
   22         N    1  MOL     N22    22  -0.5000000   14.0067
   23       HAE    1  MOL     H23    23   0.0600000    1.0080
   24       HAE    1  MOL     H24    24   0.0600000    1.0080
   25        HC    1  MOL     H25    25   0.0600000    1.0080
   26        HC    1  MOL     H26    26   0.0600000    1.0080
   27        HC    1  MOL     H27    27   0.0600000    1.0080
   28        HC    1  MOL     H28    28   0.0600000    1.0080
   29        HC    1  MOL     H29    29   0.0600000    1.0080
   30        HC    1  MOL     H30    30   0.0600000    1.0080
   31        HC    1  MOL     H31    31   0.0600000    1.0080
   32        HC    1  MOL     H32    32   0.0600000    1.0080
   33        HC    1  MOL     H33    33   0.0600000    1.0080
   34        HC    1  MOL     H34    34   0.0600000    1.0080
   35        HC    1  MOL     H35    35   0.0600000    1.0080
   36        HC    1  MOL     H36    36   0.0600000    1.0080
   37        HC    1  MOL     H37    37   0.0600000    1.0080
   38        HC    1  MOL     H38    38   0.0600000    1.0080
   39        HC    1  MOL     H39    39   0.0600000    1.0080
   40        HC    1  MOL     H40    40   0.0600000    1.0080
   41        HC    1  MOL     H41    41   0.0600000    1.0080
   42        HC    1  MOL     H42    42   0.0600000    1.0080
   43         H    1  MOL     H43    43   0.3000000    1.0080
   44        HC    1  MOL     H44    44   0.0600000    1.0080
   45        HC    1  MOL     H45    45   0.0600000    1.0080
   46        HC    1  MOL     H46    46   0.0600000    1.0080
   47        HC    1  MOL     H47    47   0.0600000    1.0080
   48        HC    1  MOL     H48    48   0.0600000    1.0080
   49        HC    1  MOL     H49    49   0.0600000    1.0080
   50        HC    1  MOL     H50    50   0.0600000    1.0080
   51        HC    1  MOL     H51    51   0.0600000    1.0080
   52        HC    1  MOL     H52    52   0.0600000    1.0080
   53        HC    1  MOL     H53    53   0.0600000    1.0080
   54        HC    1  MOL     H54    54   0.0600000    1.0080
   55        HC    1  MOL     H55    55   0.0600000    1.0080
   56         H    1  MOL     H56    56   0.3000000    1.0080
   57       HAE    1  MOL     H57    57   0.0000000    1.0080
   58         C    1  MOL     C58    58   0.5000000   12.0115
   59         O    1  MOL     O59    59  -0.5000000   15.9994
   60        CT    1  MOL     C60    60  -0.1200000   12.0115
   61        CT    1  MOL     C61    61  -0.1200000   12.0115
   62        CT    1  MOL     C62    62  -0.1200000   12.0115
   63        CT    1  MOL     C63    63  -0.1200000   12.0115
   64        CT    1  MOL     C64    64  -0.1200000   12.0115
   65        CT    1  MOL     C65    65  -0.1200000   12.0115
   66        CT    1  MOL     C66    66  -0.1200000   12.0115
   67        CT    1  MOL     C67    67  -0.1200000   12.0115
   68        CT    1  MOL     C68    68  -0.1200000   12.0115
   69        CT    1  MOL     C69    69  -0.1200000   12.0115
   70         C    1  MOL     C70    70   0.5000000   12.0115
   71         O    1  MOL     O71    71  -0.5000000   15.9994
   72         N    1  MOL     N72    72  -0.5000000   14.0067
   73        CT    1  MOL     C73    73   0.0800000   12.0115
   74        CT    1  MOL     C74    74  -0.1200000   12.0115
   75        CT    1  MOL     C75    75  -0.1200000   12.0115
   76        CT    1  MOL     C76    76  -0.1200000   12.0115
   77        CT    1  MOL     C77    77  -0.1200000   12.0115
   78        CT    1  MOL     C78    78   0.0800000   12.0115
   79         N    1  MOL     N79    79  -0.5000000   14.0067
   80        HC    1  MOL     H80    80   0.0600000    1.0080
   81        HC    1  MOL     H81    81   0.0600000    1.0080
   82        HC    1  MOL     H82    82   0.0600000    1.0080
   83        HC    1  MOL     H83    83   0.0600000    1.0080
   84        HC    1  MOL     H84    84   0.0600000    1.0080
   85        HC    1  MOL     H85    85   0.0600000    1.0080
   86        HC    1  MOL     H86    86   0.0600000    1.0080
   87        HC    1  MOL     H87    87   0.0600000    1.0080
   88        HC    1  MOL     H88    88   0.0600000    1.0080
   89        HC    1  MOL     H89    89   0.0600000    1.0080
   90        HC    1  MOL     H90    90   0.0600000    1.0080
   91        HC    1  MOL     H91    91   0.0600000    1.0080
   92        HC    1  MOL     H92    92   0.0600000    1.0080
   93        HC    1  MOL     H93    93   0.0600000    1.0080
   94        HC    1  MOL     H94    94   0.0600000    1.0080
   95        HC    1  MOL     H95    95   0.0600000    1.0080
   96        HC    1  MOL     H96    96   0.0600000    1.0080
   97        HC    1  MOL     H97    97   0.0600000    1.0080
   98        HC    1  MOL     H98    98   0.0600000    1.0080
   99        HC    1  MOL     H99    99   0.0600000    1.0080
  100         H    1  MOL    H100   100   0.3000000    1.0080
  101        HC    1  MOL    H101   101   0.0600000    1.0080
  102        HC    1  MOL    H102   102   0.0600000    1.0080
  103        HC    1  MOL    H103   103   0.0600000    1.0080
  104        HC    1  MOL    H104   104   0.0600000    1.0080
  105        HC    1  MOL    H105   105   0.0600000    1.0080
  106        HC    1  MOL    H106   106   0.0600000    1.0080
  107        HC    1  MOL    H107   107   0.0600000    1.0080
  108        HC    1  MOL    H108   108   0.0600000    1.0080
  109        HC    1  MOL    H109   109   0.0600000    1.0080
  110        HC    1  MOL    H110   110   0.0600000    1.0080
  111        HC    1  MOL    H111   111   0.0600000    1.0080
  112        HC    1  MOL    H112   112   0.0600000    1.0080
  113         H    1  MOL    H113   113   0.3000000    1.0080
  114         C    1  MOL    C114   114   0.5000000   12.0115
  115         O    1  MOL    O115   115  -0.5000000   15.9994
  116        CT    1  MOL    C116   116  -0.1200000   12.0115
  117        CT    1  MOL    C117   117  -0.1200000   12.0115
  118        CT    1  MOL    C118   118  -0.1200000   12.0115
  119        CT    1  MOL    C119   119  -0.1200000   12.0115
  120        CT    1  MOL    C120   120  -0.1200000   12.0115
  121        CT    1  MOL    C121   121  -0.1200000   12.0115
  122        CT    1  MOL    C122   122  -0.1200000   12.0115
  123        CT    1  MOL    C123   123  -0.1200000   12.0115
  124        CT    1  MOL    C124   124  -0.1200000   12.0115
  125        CT    1  MOL    C125   125  -0.1200000   12.0115
  126         C    1  MOL    C126   126   0.5000000   12.0115
  127         O    1  MOL    O127   127  -0.5000000   15.9994
  128         N    1  MOL    N128   128  -0.5000000   14.0067
  129        CT    1  MOL    C129   129   0.0800000   12.0115
  130        CT    1  MOL    C130   130  -0.1200000   12.0115
  131        CT    1  MOL    C131   131  -0.1200000   12.0115
  132        CT    1  MOL    C132   132  -0.1200000   12.0115
  133        CT    1  MOL    C133   133  -0.1200000   12.0115
  134        CT    1  MOL    C134   134   0.0800000   12.0115
  135         N    1  MOL    N135   135  -0.5000000   14.0067
  136        HC    1  MOL    H136   136   0.0600000    1.0080
  137        HC    1  MOL    H137   137   0.0600000    1.0080
  138        HC    1  MOL    H138   138   0.0600000    1.0080
  139        HC    1  MOL    H139   139   0.0600000    1.0080
  140        HC    1  MOL    H140   140   0.0600000    1.0080
  141        HC    1  MOL    H141   141   0.0600000    1.0080
  142        HC    1  MOL    H142   142   0.0600000    1.0080
  143        HC    1  MOL    H143   143   0.0600000    1.0080
  144        HC    1  MOL    H144   144   0.0600000    1.0080
  145        HC    1  MOL    H145   145   0.0600000    1.0080
  146        HC    1  MOL    H146   146   0.0600000    1.0080
  147        HC    1  MOL    H147   147   0.0600000    1.0080
  148        HC    1  MOL    H148   148   0.0600000    1.0080
  149        HC    1  MOL    H149   149   0.0600000    1.0080
  150        HC    1  MOL    H150   150   0.0600000    1.0080
  151        HC    1  MOL    H151   151   0.0600000    1.0080
  152        HC    1  MOL    H152   152   0.0600000    1.0080
  153        HC    1  MOL    H153   153   0.0600000    1.0080
  154        HC    1  MOL    H154   154   0.0600000    1.0080
  155        HC    1  MOL    H155   155   0.0600000    1.0080
  156         H    1  MOL    H156   156   0.3000000    1.0080
  157        HC    1  MOL    H157   157   0.0600000    1.0080
  158        HC    1  MOL    H158   158   0.0600000    1.0080
  159        HC    1  MOL    H159   159   0.0600000    1.0080
  160        HC    1  MOL    H160   160   0.0600000    1.0080
  161        HC    1  MOL    H161   161   0.0600000    1.0080
  162        HC    1  MOL    H162   162   0.0600000    1.0080
  163        HC    1  MOL    H163   163   0.0600000    1.0080
  164        HC    1  MOL    H164   164   0.0600000    1.0080
  165        HC    1  MOL    H165   165   0.0600000    1.0080
  166        HC    1  MOL    H166   166   0.0600000    1.0080
  167        HC    1  MOL    H167   167   0.0600000    1.0080
  168        HC    1  MOL    H168   168   0.0600000    1.0080
  169         H    1  MOL    H169   169   0.3000000    1.0080
  170         C    1  MOL    C170   170   0.5000000   12.0115
  171         O    1  MOL    O171   171  -0.5000000   15.9994
  172        CT    1  MOL    C172   172  -0.1200000   12.0115
  173        CT    1  MOL    C173   173  -0.1200000   12.0115
  174        CT    1  MOL    C174   174  -0.1200000   12.0115
  175        CT    1  MOL    C175   175  -0.1200000   12.0115
  176        CT    1  MOL    C176   176  -0.1200000   12.0115
  177        CT    1  MOL    C177   177  -0.1200000   12.0115
  178        CT    1  MOL    C178   178  -0.1200000   12.0115
  179        CT    1  MOL    C179   179  -0.1200000   12.0115
  180        CT    1  MOL    C180   180  -0.1200000   12.0115
  181        CT    1  MOL    C181   181  -0.1200000   12.0115
  182         C    1  MOL    C182   182   0.5000000   12.0115
  183         O    1  MOL    O183   183  -0.5000000   15.9994
  184         N    1  MOL    N184   184  -0.5000000   14.0067
  185        CT    1  MOL    C185   185   0.0800000   12.0115
  186        CT    1  MOL    C186   186  -0.1200000   12.0115
  187        CT    1  MOL    C187   187  -0.1200000   12.0115
  188        CT    1  MOL    C188   188  -0.1200000   12.0115
  189        CT    1  MOL    C189   189  -0.1200000   12.0115
  190        CT    1  MOL    C190   190   0.0800000   12.0115
  191         N    1  MOL    N191   191  -0.5000000   14.0067
  192        HC    1  MOL    H192   192   0.0600000    1.0080
  193        HC    1  MOL    H193   193   0.0600000    1.0080
  194        HC    1  MOL    H194   194   0.0600000    1.0080
  195        HC    1  MOL    H195   195   0.0600000    1.0080
  196        HC    1  MOL    H196   196   0.0600000    1.0080
  197        HC    1  MOL    H197   197   0.0600000    1.0080
  198        HC    1  MOL    H198   198   0.0600000    1.0080
  199        HC    1  MOL    H199   199   0.0600000    1.0080
  200        HC    1  MOL    H200   200   0.0600000    1.0080
  201        HC    1  MOL    H201   201   0.0600000    1.0080
  202        HC    1  MOL    H202   202   0.0600000    1.0080
  203        HC    1  MOL    H203   203   0.0600000    1.0080
  204        HC    1  MOL    H204   204   0.0600000    1.0080
  205        HC    1  MOL    H205   205   0.0600000    1.0080
  206        HC    1  MOL    H206   206   0.0600000    1.0080
  207        HC    1  MOL    H207   207   0.0600000    1.0080
  208        HC    1  MOL    H208   208   0.0600000    1.0080
  209        HC    1  MOL    H209   209   0.0600000    1.0080
  210        HC    1  MOL    H210   210   0.0600000    1.0080
  211        HC    1  MOL    H211   211   0.0600000    1.0080
  212         H    1  MOL    H212   212   0.3000000    1.0080
  213        HC    1  MOL    H213   213   0.0600000    1.0080
  214        HC    1  MOL    H214   214   0.0600000    1.0080
  215        HC    1  MOL    H215   215   0.0600000    1.0080
  216        HC    1  MOL    H216   216   0.0600000    1.0080
  217        HC    1  MOL    H217   217   0.0600000    1.0080
  218        HC    1  MOL    H218   218   0.0600000    1.0080
  219        HC    1  MOL    H219   219   0.0600000    1.0080
  220        HC    1  MOL    H220   220   0.0600000    1.0080
  221        HC    1  MOL    H221   221   0.0600000    1.0080
  222        HC    1  MOL    H222   222   0.0600000    1.0080
  223        HC    1  MOL    H223   223   0.0600000    1.0080
  224        HC    1  MOL    H224   224   0.0600000    1.0080
  225         H    1  MOL    H225   225   0.3000000    1.0080
  226         C    1  MOL    C226   226   0.5000000   12.0115
  227         O    1  MOL    O227   227  -0.5000000   15.9994
  228        CT    1  MOL    C228   228  -0.1200000   12.0115
  229        CT    1  MOL    C229   229  -0.1200000   12.0115
  230        CT    1  MOL    C230   230  -0.1200000   12.0115
  231        CT    1  MOL    C231   231  -0.1200000   12.0115
  232        CT    1  MOL    C232   232  -0.1200000   12.0115
  233        CT    1  MOL    C233   233  -0.1200000   12.0115
  234        CT    1  MOL    C234   234  -0.1200000   12.0115
  235        CT    1  MOL    C235   235  -0.1200000   12.0115
  236        CT    1  MOL    C236   236  -0.1200000   12.0115
  237        CT    1  MOL    C237   237  -0.1200000   12.0115
  238         C    1  MOL    C238   238   0.5000000   12.0115
  239         O    1  MOL    O239   239  -0.5000000   15.9994
  240         N    1  MOL    N240   240  -0.5000000   14.0067
  241        CT    1  MOL    C241   241   0.0800000   12.0115
  242        CT    1  MOL    C242   242  -0.1200000   12.0115
  243        CT    1  MOL    C243   243  -0.1200000   12.0115
  244        CT    1  MOL    C244   244  -0.1200000   12.0115
  245        CT    1  MOL    C245   245  -0.1200000   12.0115
  246        CT    1  MOL    C246   246   0.0800000   12.0115
  247         N    1  MOL    N247   247  -0.5000000   14.0067
  248        HC    1  MOL    H248   248   0.0600000    1.0080
  249        HC    1  MOL    H249   249   0.0600000    1.0080
  250        HC    1  MOL    H250   250   0.0600000    1.0080
  251        HC    1  MOL    H251   251   0.0600000    1.0080
  252        HC    1  MOL    H252   252   0.0600000    1.0080
  253        HC    1  MOL    H253   253   0.0600000    1.0080
  254        HC    1  MOL    H254   254   0.0600000    1.0080
  255        HC    1  MOL    H255   255   0.0600000    1.0080
  256        HC    1  MOL    H256   256   0.0600000    1.0080
  257        HC    1  MOL    H257   257   0.0600000    1.0080
  258        HC    1  MOL    H258   258   0.0600000    1.0080
  259        HC    1  MOL    H259   259   0.0600000    1.0080
  260        HC    1  MOL    H260   260   0.0600000    1.0080
  261        HC    1  MOL    H261   261   0.0600000    1.0080
  262        HC    1  MOL    H262   262   0.0600000    1.0080
  263        HC    1  MOL    H263   263   0.0600000    1.0080
  264        HC    1  MOL    H264   264   0.0600000    1.0080
  265        HC    1  MOL    H265   265   0.0600000    1.0080
  266        HC    1  MOL    H266   266   0.0600000    1.0080
  267        HC    1  MOL    H267   267   0.0600000    1.0080
  268         H    1  MOL    H268   268   0.3000000    1.0080
  269        HC    1  MOL    H269   269   0.0600000    1.0080
  270        HC    1  MOL    H270   270   0.0600000    1.0080
  271        HC    1  MOL    H271   271   0.0600000    1.0080
  272        HC    1  MOL    H272   272   0.0600000    1.0080
  273        HC    1  MOL    H273   273   0.0600000    1.0080
  274        HC    1  MOL    H274   274   0.0600000    1.0080
  275        HC    1  MOL    H275   275   0.0600000    1.0080
  276        HC    1  MOL    H276   276   0.0600000    1.0080
  277        HC    1  MOL    H277   277   0.0600000    1.0080
  278        HC    1  MOL    H278   278   0.0600000    1.0080
  279        HC    1  MOL    H279   279   0.0600000    1.0080
  280        HC    1  MOL    H280   280   0.0600000    1.0080
  281         H    1  MOL    H281   281   0.3000000    1.0080
  282         C    1  MOL    C282   282   0.5000000   12.0115
  283         O    1  MOL    O283   283  -0.5000000   15.9994
  284        CT    1  MOL    C284   284  -0.1200000   12.0115
  285        CT    1  MOL    C285   285  -0.1200000   12.0115
  286        CT    1  MOL    C286   286  -0.1200000   12.0115
  287        CT    1  MOL    C287   287  -0.1200000   12.0115
  288        CT    1  MOL    C288   288  -0.1200000   12.0115
  289        CT    1  MOL    C289   289  -0.1200000   12.0115
  290        CT    1  MOL    C290   290  -0.1200000   12.0115
  291        CT    1  MOL    C291   291  -0.1200000   12.0115
  292        CT    1  MOL    C292   292  -0.1200000   12.0115
  293        CT    1  MOL    C293   293  -0.1200000   12.0115
  294         C    1  MOL    C294   294   0.5000000   12.0115
  295         O    1  MOL    O295   295  -0.5000000   15.9994
  296         N    1  MOL    N296   296  -0.5000000   14.0067
  297        CT    1  MOL    C297   297   0.0800000   12.0115
  298        CT    1  MOL    C298   298  -0.1200000   12.0115
  299        CT    1  MOL    C299   299  -0.1200000   12.0115
  300        CT    1  MOL    C300   300  -0.1200000   12.0115
  301        CT    1  MOL    C301   301  -0.1200000   12.0115
  302        CT    1  MOL    C302   302   0.0800000   12.0115
  303         N    1  MOL    N303   303  -0.5000000   14.0067
  304        HC    1  MOL    H304   304   0.0600000    1.0080
  305        HC    1  MOL    H305   305   0.0600000    1.0080
  306        HC    1  MOL    H306   306   0.0600000    1.0080
  307        HC    1  MOL    H307   307   0.0600000    1.0080
  308        HC    1  MOL    H308   308   0.0600000    1.0080
  309        HC    1  MOL    H309   309   0.0600000    1.0080
  310        HC    1  MOL    H310   310   0.0600000    1.0080
  311        HC    1  MOL    H311   311   0.0600000    1.0080
  312        HC    1  MOL    H312   312   0.0600000    1.0080
  313        HC    1  MOL    H313   313   0.0600000    1.0080
  314        HC    1  MOL    H314   314   0.0600000    1.0080
  315        HC    1  MOL    H315   315   0.0600000    1.0080
  316        HC    1  MOL    H316   316   0.0600000    1.0080
  317        HC    1  MOL    H317   317   0.0600000    1.0080
  318        HC    1  MOL    H318   318   0.0600000    1.0080
  319        HC    1  MOL    H319   319   0.0600000    1.0080
  320        HC    1  MOL    H320   320   0.0600000    1.0080
  321        HC    1  MOL    H321   321   0.0600000    1.0080
  322        HC    1  MOL    H322   322   0.0600000    1.0080
  323        HC    1  MOL    H323   323   0.0600000    1.0080
  324         H    1  MOL    H324   324   0.3000000    1.0080
  325        HC    1  MOL    H325   325   0.0600000    1.0080
  326        HC    1  MOL    H326   326   0.0600000    1.0080
  327        HC    1  MOL    H327   327   0.0600000    1.0080
  328        HC    1  MOL    H328   328   0.0600000    1.0080
  329        HC    1  MOL    H329   329   0.0600000    1.0080
  330        HC    1  MOL    H330   330   0.0600000    1.0080
  331        HC    1  MOL    H331   331   0.0600000    1.0080
  332        HC    1  MOL    H332   332   0.0600000    1.0080
  333        HC    1  MOL    H333   333   0.0600000    1.0080
  334        HC    1  MOL    H334   334   0.0600000    1.0080
  335        HC    1  MOL    H335   335   0.0600000    1.0080
  336        HC    1  MOL    H336   336   0.0600000    1.0080
  337         H    1  MOL    H337   337   0.3000000    1.0080
  338         C    1  MOL    C338   338   0.5000000   12.0115
  339         O    1  MOL    O339   339  -0.5000000   15.9994
  340        CT    1  MOL    C340   340  -0.1200000   12.0115
  341        CT    1  MOL    C341   341  -0.1200000   12.0115
  342        CT    1  MOL    C342   342  -0.1200000   12.0115
  343        CT    1  MOL    C343   343  -0.1200000   12.0115
  344        CT    1  MOL    C344   344  -0.1200000   12.0115
  345        CT    1  MOL    C345   345  -0.1200000   12.0115
  346        CT    1  MOL    C346   346  -0.1200000   12.0115
  347        CT    1  MOL    C347   347  -0.1200000   12.0115
  348        CT    1  MOL    C348   348  -0.1200000   12.0115
  349        CT    1  MOL    C349   349  -0.1200000   12.0115
  350         C    1  MOL    C350   350   0.5000000   12.0115
  351         O    1  MOL    O351   351  -0.5000000   15.9994
  352         N    1  MOL    N352   352  -0.5000000   14.0067
  353        CT    1  MOL    C353   353   0.0800000   12.0115
  354        CT    1  MOL    C354   354  -0.1200000   12.0115
  355        CT    1  MOL    C355   355  -0.1200000   12.0115
  356        CT    1  MOL    C356   356  -0.1200000   12.0115
  357        CT    1  MOL    C357   357  -0.1200000   12.0115
  358        CT    1  MOL    C358   358   0.0800000   12.0115
  359         N    1  MOL    N359   359  -0.5000000   14.0067
  360        HC    1  MOL    H360   360   0.0600000    1.0080
  361        HC    1  MOL    H361   361   0.0600000    1.0080
  362        HC    1  MOL    H362   362   0.0600000    1.0080
  363        HC    1  MOL    H363   363   0.0600000    1.0080
  364        HC    1  MOL    H364   364   0.0600000    1.0080
  365        HC    1  MOL    H365   365   0.0600000    1.0080
  366        HC    1  MOL    H366   366   0.0600000    1.0080
  367        HC    1  MOL    H367   367   0.0600000    1.0080
  368        HC    1  MOL    H368   368   0.0600000    1.0080
  369        HC    1  MOL    H369   369   0.0600000    1.0080
  370        HC    1  MOL    H370   370   0.0600000    1.0080
  371        HC    1  MOL    H371   371   0.0600000    1.0080
  372        HC    1  MOL    H372   372   0.0600000    1.0080
  373        HC    1  MOL    H373   373   0.0600000    1.0080
  374        HC    1  MOL    H374   374   0.0600000    1.0080
  375        HC    1  MOL    H375   375   0.0600000    1.0080
  376        HC    1  MOL    H376   376   0.0600000    1.0080
  377        HC    1  MOL    H377   377   0.0600000    1.0080
  378        HC    1  MOL    H378   378   0.0600000    1.0080
  379        HC    1  MOL    H379   379   0.0600000    1.0080
  380         H    1  MOL    H380   380   0.3000000    1.0080
  381        HC    1  MOL    H381   381   0.0600000    1.0080
  382        HC    1  MOL    H382   382   0.0600000    1.0080
  383        HC    1  MOL    H383   383   0.0600000    1.0080
  384        HC    1  MOL    H384   384   0.0600000    1.0080
  385        HC    1  MOL    H385   385   0.0600000    1.0080
  386        HC    1  MOL    H386   386   0.0600000    1.0080
  387        HC    1  MOL    H387   387   0.0600000    1.0080
  388        HC    1  MOL    H388   388   0.0600000    1.0080
  389        HC    1  MOL    H389   389   0.0600000    1.0080
  390        HC    1  MOL    H390   390   0.0600000    1.0080
  391        HC    1  MOL    H391   391   0.0600000    1.0080
  392        HC    1  MOL    H392   392   0.0600000    1.0080
  393         H    1  MOL    H393   393   0.3000000    1.0080
  394         C    1  MOL    C394   394   0.5000000   12.0115
  395         O    1  MOL    O395   395  -0.5000000   15.9994
  396        CT    1  MOL    C396   396  -0.1200000   12.0115
  397        CT    1  MOL    C397   397  -0.1200000   12.0115
  398        CT    1  MOL    C398   398  -0.1200000   12.0115
  399        CT    1  MOL    C399   399  -0.1200000   12.0115
  400        CT    1  MOL    C400   400  -0.1200000   12.0115
  401        CT    1  MOL    C401   401  -0.1200000   12.0115
  402        CT    1  MOL    C402   402  -0.1200000   12.0115
  403        CT    1  MOL    C403   403  -0.1200000   12.0115
  404        CT    1  MOL    C404   404  -0.1200000   12.0115
  405        CT    1  MOL    C405   405  -0.1200000   12.0115
  406         C    1  MOL    C406   406   0.5000000   12.0115
  407         O    1  MOL    O407   407  -0.5000000   15.9994
  408         N    1  MOL    N408   408  -0.5000000   14.0067
  409        CT    1  MOL    C409   409   0.0800000   12.0115
  410        CT    1  MOL    C410   410  -0.1200000   12.0115
  411        CT    1  MOL    C411   411  -0.1200000   12.0115
  412        CT    1  MOL    C412   412  -0.1200000   12.0115
  413        CT    1  MOL    C413   413  -0.1200000   12.0115
  414        CT    1  MOL    C414   414   0.0800000   12.0115
  415         N    1  MOL    N415   415  -0.5000000   14.0067
  416        HC    1  MOL    H416   416   0.0600000    1.0080
  417        HC    1  MOL    H417   417   0.0600000    1.0080
  418        HC    1  MOL    H418   418   0.0600000    1.0080
  419        HC    1  MOL    H419   419   0.0600000    1.0080
  420        HC    1  MOL    H420   420   0.0600000    1.0080
  421        HC    1  MOL    H421   421   0.0600000    1.0080
  422        HC    1  MOL    H422   422   0.0600000    1.0080
  423        HC    1  MOL    H423   423   0.0600000    1.0080
  424        HC    1  MOL    H424   424   0.0600000    1.0080
  425        HC    1  MOL    H425   425   0.0600000    1.0080
  426        HC    1  MOL    H426   426   0.0600000    1.0080
  427        HC    1  MOL    H427   427   0.0600000    1.0080
  428        HC    1  MOL    H428   428   0.0600000    1.0080
  429        HC    1  MOL    H429   429   0.0600000    1.0080
  430        HC    1  MOL    H430   430   0.0600000    1.0080
  431        HC    1  MOL    H431   431   0.0600000    1.0080
  432        HC    1  MOL    H432   432   0.0600000    1.0080
  433        HC    1  MOL    H433   433   0.0600000    1.0080
  434        HC    1  MOL    H434   434   0.0600000    1.0080
  435        HC    1  MOL    H435   435   0.0600000    1.0080
  436         H    1  MOL    H436   436   0.3000000    1.0080
  437        HC    1  MOL    H437   437   0.0600000    1.0080
  438        HC    1  MOL    H438   438   0.0600000    1.0080
  439        HC    1  MOL    H439   439   0.0600000    1.0080
  440        HC    1  MOL    H440   440   0.0600000    1.0080
  441        HC    1  MOL    H441   441   0.0600000    1.0080
  442        HC    1  MOL    H442   442   0.0600000    1.0080
  443        HC    1  MOL    H443   443   0.0600000    1.0080
  444        HC    1  MOL    H444   444   0.0600000    1.0080
  445        HC    1  MOL    H445   445   0.0600000    1.0080
  446        HC    1  MOL    H446   446   0.0600000    1.0080
  447        HC    1  MOL    H447   447   0.0600000    1.0080
  448        HC    1  MOL    H448   448   0.0600000    1.0080
  449         H    1  MOL    H449   449   0.3000000    1.0080
  450         C    1  MOL    C450   450   0.5000000   12.0115
  451         O    1  MOL    O451   451  -0.5000000   15.9994
  452        CT    1  MOL    C452   452  -0.1200000   12.0115
  453        CT    1  MOL    C453   453  -0.1200000   12.0115
  454        CT    1  MOL    C454   454  -0.1200000   12.0115
  455        CT    1  MOL    C455   455  -0.1200000   12.0115
  456        CT    1  MOL    C456   456  -0.1200000   12.0115
  457        CT    1  MOL    C457   457  -0.1200000   12.0115
  458        CT    1  MOL    C458   458  -0.1200000   12.0115
  459        CT    1  MOL    C459   459  -0.1200000   12.0115
  460        CT    1  MOL    C460   460  -0.1200000   12.0115
  461        CT    1  MOL    C461   461  -0.1200000   12.0115
  462         C    1  MOL    C462   462   0.5000000   12.0115
  463         O    1  MOL    O463   463  -0.5000000   15.9994
  464         N    1  MOL    N464   464  -0.5000000   14.0067
  465        CT    1  MOL    C465   465   0.0800000   12.0115
  466        CT    1  MOL    C466   466  -0.1200000   12.0115
  467        CT    1  MOL    C467   467  -0.1200000   12.0115
  468        CT    1  MOL    C468   468  -0.1200000   12.0115
  469        CT    1  MOL    C469   469  -0.1200000   12.0115
  470        CT    1  MOL    C470   470   0.0800000   12.0115
  471         N    1  MOL    N471   471  -0.5000000   14.0067
  472        HC    1  MOL    H472   472   0.0600000    1.0080
  473        HC    1  MOL    H473   473   0.0600000    1.0080
  474        HC    1  MOL    H474   474   0.0600000    1.0080
  475        HC    1  MOL    H475   475   0.0600000    1.0080
  476        HC    1  MOL    H476   476   0.0600000    1.0080
  477        HC    1  MOL    H477   477   0.0600000    1.0080
  478        HC    1  MOL    H478   478   0.0600000    1.0080
  479        HC    1  MOL    H479   479   0.0600000    1.0080
  480        HC    1  MOL    H480   480   0.0600000    1.0080
  481        HC    1  MOL    H481   481   0.0600000    1.0080
  482        HC    1  MOL    H482   482   0.0600000    1.0080
  483        HC    1  MOL    H483   483   0.0600000    1.0080
  484        HC    1  MOL    H484   484   0.0600000    1.0080
  485        HC    1  MOL    H485   485   0.0600000    1.0080
  486        HC    1  MOL    H486   486   0.0600000    1.0080
  487        HC    1  MOL    H487   487   0.0600000    1.0080
  488        HC    1  MOL    H488   488   0.0600000    1.0080
  489        HC    1  MOL    H489   489   0.0600000    1.0080
  490        HC    1  MOL    H490   490   0.0600000    1.0080
  491        HC    1  MOL    H491   491   0.0600000    1.0080
  492         H    1  MOL    H492   492   0.3000000    1.0080
  493        HC    1  MOL    H493   493   0.0600000    1.0080
  494        HC    1  MOL    H494   494   0.0600000    1.0080
  495        HC    1  MOL    H495   495   0.0600000    1.0080
  496        HC    1  MOL    H496   496   0.0600000    1.0080
  497        HC    1  MOL    H497   497   0.0600000    1.0080
  498        HC    1  MOL    H498   498   0.0600000    1.0080
  499        HC    1  MOL    H499   499   0.0600000    1.0080
  500        HC    1  MOL    H500   500   0.0600000    1.0080
  501        HC    1  MOL    H501   501   0.0600000    1.0080
  502        HC    1  MOL    H502   502   0.0600000    1.0080
  503        HC    1  MOL    H503   503   0.0600000    1.0080
  504        HC    1  MOL    H504   504   0.0600000    1.0080
  505         H    1  MOL    H505   505   0.3000000    1.0080
  506         C    1  MOL    C506   506   0.5000000   12.0115
  507         O    1  MOL    O507   507  -0.5000000   15.9994
  508        CT    1  MOL    C508   508  -0.1200000   12.0115
  509        CT    1  MOL    C509   509  -0.1200000   12.0115
  510        CT    1  MOL    C510   510  -0.1200000   12.0115
  511        CT    1  MOL    C511   511  -0.1200000   12.0115
  512        CT    1  MOL    C512   512  -0.1200000   12.0115
  513        CT    1  MOL    C513   513  -0.1200000   12.0115
  514        CT    1  MOL    C514   514  -0.1200000   12.0115
  515        CT    1  MOL    C515   515  -0.1200000   12.0115
  516        CT    1  MOL    C516   516  -0.1200000   12.0115
  517        CT    1  MOL    C517   517  -0.1200000   12.0115
  518         C    1  MOL    C518   518   0.5000000   12.0115
  519         O    1  MOL    O519   519  -0.5000000   15.9994
  520         N    1  MOL    N520   520  -0.5000000   14.0067
  521        CT    1  MOL    C521   521   0.0800000   12.0115
  522        CT    1  MOL    C522   522  -0.1200000   12.0115
  523        CT    1  MOL    C523   523  -0.1200000   12.0115
  524        CT    1  MOL    C524   524  -0.1200000   12.0115
  525        CT    1  MOL    C525   525  -0.1200000   12.0115
  526        CT    1  MOL    C526   526   0.0800000   12.0115
  527         N    1  MOL    N527   527  -0.5000000   14.0067
  528        HC    1  MOL    H528   528   0.0600000    1.0080
  529        HC    1  MOL    H529   529   0.0600000    1.0080
  530        HC    1  MOL    H530   530   0.0600000    1.0080
  531        HC    1  MOL    H531   531   0.0600000    1.0080
  532        HC    1  MOL    H532   532   0.0600000    1.0080
  533        HC    1  MOL    H533   533   0.0600000    1.0080
  534        HC    1  MOL    H534   534   0.0600000    1.0080
  535        HC    1  MOL    H535   535   0.0600000    1.0080
  536        HC    1  MOL    H536   536   0.0600000    1.0080
  537        HC    1  MOL    H537   537   0.0600000    1.0080
  538        HC    1  MOL    H538   538   0.0600000    1.0080
  539        HC    1  MOL    H539   539   0.0600000    1.0080
  540        HC    1  MOL    H540   540   0.0600000    1.0080
  541        HC    1  MOL    H541   541   0.0600000    1.0080
  542        HC    1  MOL    H542   542   0.0600000    1.0080
  543        HC    1  MOL    H543   543   0.0600000    1.0080
  544        HC    1  MOL    H544   544   0.0600000    1.0080
  545        HC    1  MOL    H545   545   0.0600000    1.0080
  546        HC    1  MOL    H546   546   0.0600000    1.0080
  547        HC    1  MOL    H547   547   0.0600000    1.0080
  548         H    1  MOL    H548   548   0.3000000    1.0080
  549        HC    1  MOL    H549   549   0.0600000    1.0080
  550        HC    1  MOL    H550   550   0.0600000    1.0080
  551        HC    1  MOL    H551   551   0.0600000    1.0080
  552        HC    1  MOL    H552   552   0.0600000    1.0080
  553        HC    1  MOL    H553   553   0.0600000    1.0080
  554        HC    1  MOL    H554   554   0.0600000    1.0080
  555        HC    1  MOL    H555   555   0.0600000    1.0080
  556        HC    1  MOL    H556   556   0.0600000    1.0080
  557        HC    1  MOL    H557   557   0.0600000    1.0080
  558        HC    1  MOL    H558   558   0.0600000    1.0080
  559        HC    1  MOL    H559   559   0.0600000    1.0080
  560        HC    1  MOL    H560   560   0.0600000    1.0080
  561         H    1  MOL    H561   561   0.3000000    1.0080
  562         C    1  MOL    C562   562   0.5000000   12.0115
  563         O    1  MOL    O563   563  -0.5000000   15.9994
  564        CT    1  MOL    C564   564  -0.1200000   12.0115
  565        CT    1  MOL    C565   565  -0.1200000   12.0115
  566        CT    1  MOL    C566   566  -0.1200000   12.0115
  567        CT    1  MOL    C567   567  -0.1200000   12.0115
  568        CT    1  MOL    C568   568  -0.1200000   12.0115
  569        CT    1  MOL    C569   569  -0.1200000   12.0115
  570        CT    1  MOL    C570   570  -0.1200000   12.0115
  571        CT    1  MOL    C571   571  -0.1200000   12.0115
  572        CT    1  MOL    C572   572  -0.1200000   12.0115
  573        CT    1  MOL    C573   573  -0.1200000   12.0115
  574         C    1  MOL    C574   574   0.5000000   12.0115
  575         O    1  MOL    O575   575  -0.5000000   15.9994
  576         N    1  MOL    N576   576  -0.5000000   14.0067
  577        CT    1  MOL    C577   577   0.0800000   12.0115
  578        CT    1  MOL    C578   578  -0.1200000   12.0115
  579        CT    1  MOL    C579   579  -0.1200000   12.0115
  580        CT    1  MOL    C580   580  -0.1200000   12.0115
  581        CT    1  MOL    C581   581  -0.1200000   12.0115
  582        CT    1  MOL    C582   582   0.0800000   12.0115
  583         N    1  MOL    N583   583  -0.5000000   14.0067
  584        HC    1  MOL    H584   584   0.0600000    1.0080
  585        HC    1  MOL    H585   585   0.0600000    1.0080
  586        HC    1  MOL    H586   586   0.0600000    1.0080
  587        HC    1  MOL    H587   587   0.0600000    1.0080
  588        HC    1  MOL    H588   588   0.0600000    1.0080
  589        HC    1  MOL    H589   589   0.0600000    1.0080
  590        HC    1  MOL    H590   590   0.0600000    1.0080
  591        HC    1  MOL    H591   591   0.0600000    1.0080
  592        HC    1  MOL    H592   592   0.0600000    1.0080
  593        HC    1  MOL    H593   593   0.0600000    1.0080
  594        HC    1  MOL    H594   594   0.0600000    1.0080
  595        HC    1  MOL    H595   595   0.0600000    1.0080
  596        HC    1  MOL    H596   596   0.0600000    1.0080
  597        HC    1  MOL    H597   597   0.0600000    1.0080
  598        HC    1  MOL    H598   598   0.0600000    1.0080
  599        HC    1  MOL    H599   599   0.0600000    1.0080
  600        HC    1  MOL    H600   600   0.0600000    1.0080
  601        HC    1  MOL    H601   601   0.0600000    1.0080
  602        HC    1  MOL    H602   602   0.0600000    1.0080
  603        HC    1  MOL    H603   603   0.0600000    1.0080
  604         H    1  MOL    H604   604   0.3000000    1.0080
  605        HC    1  MOL    H605   605   0.0600000    1.0080
  606        HC    1  MOL    H606   606   0.0600000    1.0080
  607        HC    1  MOL    H607   607   0.0600000    1.0080
  608        HC    1  MOL    H608   608   0.0600000    1.0080
  609        HC    1  MOL    H609   609   0.0600000    1.0080
  610        HC    1  MOL    H610   610   0.0600000    1.0080
  611        HC    1  MOL    H611   611   0.0600000    1.0080
  612        HC    1  MOL    H612   612   0.0600000    1.0080
  613        HC    1  MOL    H613   613   0.0600000    1.0080
  614        HC    1  MOL    H614   614   0.0600000    1.0080
  615        HC    1  MOL    H615   615   0.0600000    1.0080
  616        HC    1  MOL    H616   616   0.0600000    1.0080
  617         H    1  MOL    H617   617   0.3000000    1.0080
  618         C    1  MOL    C618   618   0.5000000   12.0115
  619         O    1  MOL    O619   619  -0.5000000   15.9994
  620        CT    1  MOL    C620   620  -0.1200000   12.0115
  621        CT    1  MOL    C621   621  -0.1200000   12.0115
  622        CT    1  MOL    C622   622  -0.1200000   12.0115
  623        CT    1  MOL    C623   623  -0.1200000   12.0115
  624        CT    1  MOL    C624   624  -0.1200000   12.0115
  625        CT    1  MOL    C625   625  -0.1200000   12.0115
  626        CT    1  MOL    C626   626  -0.1200000   12.0115
  627        CT    1  MOL    C627   627  -0.1200000   12.0115
  628        CT    1  MOL    C628   628  -0.1200000   12.0115
  629        CT    1  MOL    C629   629  -0.1200000   12.0115
  630         C    1  MOL    C630   630   0.5000000   12.0115
  631         O    1  MOL    O631   631  -0.5000000   15.9994
  632         N    1  MOL    N632   632  -0.5000000   14.0067
  633        CT    1  MOL    C633   633   0.0800000   12.0115
  634        CT    1  MOL    C634   634  -0.1200000   12.0115
  635        CT    1  MOL    C635   635  -0.1200000   12.0115
  636        CT    1  MOL    C636   636  -0.1200000   12.0115
  637        CT    1  MOL    C637   637  -0.1200000   12.0115
  638        CT    1  MOL    C638   638   0.0800000   12.0115
  639         N    1  MOL    N639   639  -0.5000000   14.0067
  640        HC    1  MOL    H640   640   0.0600000    1.0080
  641        HC    1  MOL    H641   641   0.0600000    1.0080
  642        HC    1  MOL    H642   642   0.0600000    1.0080
  643        HC    1  MOL    H643   643   0.0600000    1.0080
  644        HC    1  MOL    H644   644   0.0600000    1.0080
  645        HC    1  MOL    H645   645   0.0600000    1.0080
  646        HC    1  MOL    H646   646   0.0600000    1.0080
  647        HC    1  MOL    H647   647   0.0600000    1.0080
  648        HC    1  MOL    H648   648   0.0600000    1.0080
  649        HC    1  MOL    H649   649   0.0600000    1.0080
  650        HC    1  MOL    H650   650   0.0600000    1.0080
  651        HC    1  MOL    H651   651   0.0600000    1.0080
  652        HC    1  MOL    H652   652   0.0600000    1.0080
  653        HC    1  MOL    H653   653   0.0600000    1.0080
  654        HC    1  MOL    H654   654   0.0600000    1.0080
  655        HC    1  MOL    H655   655   0.0600000    1.0080
  656        HC    1  MOL    H656   656   0.0600000    1.0080
  657        HC    1  MOL    H657   657   0.0600000    1.0080
  658        HC    1  MOL    H658   658   0.0600000    1.0080
  659        HC    1  MOL    H659   659   0.0600000    1.0080
  660         H    1  MOL    H660   660   0.3000000    1.0080
  661        HC    1  MOL    H661   661   0.0600000    1.0080
  662        HC    1  MOL    H662   662   0.0600000    1.0080
  663        HC    1  MOL    H663   663   0.0600000    1.0080
  664        HC    1  MOL    H664   664   0.0600000    1.0080
  665        HC    1  MOL    H665   665   0.0600000    1.0080
  666        HC    1  MOL    H666   666   0.0600000    1.0080
  667        HC    1  MOL    H667   667   0.0600000    1.0080
  668        HC    1  MOL    H668   668   0.0600000    1.0080
  669        HC    1  MOL    H669   669   0.0600000    1.0080
  670        HC    1  MOL    H670   670   0.0600000    1.0080
  671        HC    1  MOL    H671   671   0.0600000    1.0080
  672        HC    1  MOL    H672   672   0.0600000    1.0080
  673         H    1  MOL    H673   673   0.3000000    1.0080
  674         C    1  MOL    C674   674   0.5000000   12.0115
  675         O    1  MOL    O675   675  -0.5000000   15.9994
  676        CT    1  MOL    C676   676  -0.1200000   12.0115
  677        CT    1  MOL    C677   677  -0.1200000   12.0115
  678        CT    1  MOL    C678   678  -0.1200000   12.0115
  679        CT    1  MOL    C679   679  -0.1200000   12.0115
  680        CT    1  MOL    C680   680  -0.1200000   12.0115
  681        CT    1  MOL    C681   681  -0.1200000   12.0115
  682        CT    1  MOL    C682   682  -0.1200000   12.0115
  683        CT    1  MOL    C683   683  -0.1200000   12.0115
  684        CT    1  MOL    C684   684  -0.1200000   12.0115
  685        CT    1  MOL    C685   685  -0.1200000   12.0115
  686         C    1  MOL    C686   686   0.5000000   12.0115
  687         O    1  MOL    O687   687  -0.5000000   15.9994
  688         N    1  MOL    N688   688  -0.5000000   14.0067
  689        CT    1  MOL    C689   689   0.0800000   12.0115
  690        CT    1  MOL    C690   690  -0.1200000   12.0115
  691        CT    1  MOL    C691   691  -0.1200000   12.0115
  692        CT    1  MOL    C692   692  -0.1200000   12.0115
  693        CT    1  MOL    C693   693  -0.1200000   12.0115
  694        CT    1  MOL    C694   694   0.0800000   12.0115
  695         N    1  MOL    N695   695  -0.5000000   14.0067
  696        HC    1  MOL    H696   696   0.0600000    1.0080
  697        HC    1  MOL    H697   697   0.0600000    1.0080
  698        HC    1  MOL    H698   698   0.0600000    1.0080
  699        HC    1  MOL    H699   699   0.0600000    1.0080
  700        HC    1  MOL    H700   700   0.0600000    1.0080
  701        HC    1  MOL    H701   701   0.0600000    1.0080
  702        HC    1  MOL    H702   702   0.0600000    1.0080
  703        HC    1  MOL    H703   703   0.0600000    1.0080
  704        HC    1  MOL    H704   704   0.0600000    1.0080
  705        HC    1  MOL    H705   705   0.0600000    1.0080
  706        HC    1  MOL    H706   706   0.0600000    1.0080
  707        HC    1  MOL    H707   707   0.0600000    1.0080
  708        HC    1  MOL    H708   708   0.0600000    1.0080
  709        HC    1  MOL    H709   709   0.0600000    1.0080
  710        HC    1  MOL    H710   710   0.0600000    1.0080
  711        HC    1  MOL    H711   711   0.0600000    1.0080
  712        HC    1  MOL    H712   712   0.0600000    1.0080
  713        HC    1  MOL    H713   713   0.0600000    1.0080
  714        HC    1  MOL    H714   714   0.0600000    1.0080
  715        HC    1  MOL    H715   715   0.0600000    1.0080
  716         H    1  MOL    H716   716   0.3000000    1.0080
  717        HC    1  MOL    H717   717   0.0600000    1.0080
  718        HC    1  MOL    H718   718   0.0600000    1.0080
  719        HC    1  MOL    H719   719   0.0600000    1.0080
  720        HC    1  MOL    H720   720   0.0600000    1.0080
  721        HC    1  MOL    H721   721   0.0600000    1.0080
  722        HC    1  MOL    H722   722   0.0600000    1.0080
  723        HC    1  MOL    H723   723   0.0600000    1.0080
  724        HC    1  MOL    H724   724   0.0600000    1.0080
  725        HC    1  MOL    H725   725   0.0600000    1.0080
  726        HC    1  MOL    H726   726   0.0600000    1.0080
  727        HC    1  MOL    H727   727   0.0600000    1.0080
  728        HC    1  MOL    H728   728   0.0600000    1.0080
  729         H    1  MOL    H729   729   0.3000000    1.0080
  730         C    1  MOL    C730   730   0.5000000   12.0115
  731         O    1  MOL    O731   731  -0.5000000   15.9994
  732        CT    1  MOL    C732   732  -0.1200000   12.0115
  733        CT    1  MOL    C733   733  -0.1200000   12.0115
  734        CT    1  MOL    C734   734  -0.1200000   12.0115
  735        CT    1  MOL    C735   735  -0.1200000   12.0115
  736        CT    1  MOL    C736   736  -0.1200000   12.0115
  737        CT    1  MOL    C737   737  -0.1200000   12.0115
  738        CT    1  MOL    C738   738  -0.1200000   12.0115
  739        CT    1  MOL    C739   739  -0.1200000   12.0115
  740        CT    1  MOL    C740   740  -0.1200000   12.0115
  741        CT    1  MOL    C741   741  -0.1200000   12.0115
  742         C    1  MOL    C742   742   0.5000000   12.0115
  743         O    1  MOL    O743   743  -0.5000000   15.9994
  744         N    1  MOL    N744   744  -0.5000000   14.0067
  745        CT    1  MOL    C745   745   0.0800000   12.0115
  746        CT    1  MOL    C746   746  -0.1200000   12.0115
  747        CT    1  MOL    C747   747  -0.1200000   12.0115
  748        CT    1  MOL    C748   748  -0.1200000   12.0115
  749        CT    1  MOL    C749   749  -0.1200000   12.0115
  750        CT    1  MOL    C750   750   0.0800000   12.0115
  751         N    1  MOL    N751   751  -0.5000000   14.0067
  752        HC    1  MOL    H752   752   0.0600000    1.0080
  753        HC    1  MOL    H753   753   0.0600000    1.0080
  754        HC    1  MOL    H754   754   0.0600000    1.0080
  755        HC    1  MOL    H755   755   0.0600000    1.0080
  756        HC    1  MOL    H756   756   0.0600000    1.0080
  757        HC    1  MOL    H757   757   0.0600000    1.0080
  758        HC    1  MOL    H758   758   0.0600000    1.0080
  759        HC    1  MOL    H759   759   0.0600000    1.0080
  760        HC    1  MOL    H760   760   0.0600000    1.0080
  761        HC    1  MOL    H761   761   0.0600000    1.0080
  762        HC    1  MOL    H762   762   0.0600000    1.0080
  763        HC    1  MOL    H763   763   0.0600000    1.0080
  764        HC    1  MOL    H764   764   0.0600000    1.0080
  765        HC    1  MOL    H765   765   0.0600000    1.0080
  766        HC    1  MOL    H766   766   0.0600000    1.0080
  767        HC    1  MOL    H767   767   0.0600000    1.0080
  768        HC    1  MOL    H768   768   0.0600000    1.0080
  769        HC    1  MOL    H769   769   0.0600000    1.0080
  770        HC    1  MOL    H770   770   0.0600000    1.0080
  771        HC    1  MOL    H771   771   0.0600000    1.0080
  772         H    1  MOL    H772   772   0.3000000    1.0080
  773        HC    1  MOL    H773   773   0.0600000    1.0080
  774        HC    1  MOL    H774   774   0.0600000    1.0080
  775        HC    1  MOL    H775   775   0.0600000    1.0080
  776        HC    1  MOL    H776   776   0.0600000    1.0080
  777        HC    1  MOL    H777   777   0.0600000    1.0080
  778        HC    1  MOL    H778   778   0.0600000    1.0080
  779        HC    1  MOL    H779   779   0.0600000    1.0080
  780        HC    1  MOL    H780   780   0.0600000    1.0080
  781        HC    1  MOL    H781   781   0.0600000    1.0080
  782        HC    1  MOL    H782   782   0.0600000    1.0080
  783        HC    1  MOL    H783   783   0.0600000    1.0080
  784        HC    1  MOL    H784   784   0.0600000    1.0080
  785         H    1  MOL    H785   785   0.3000000    1.0080
  786         C    1  MOL    C786   786   0.5000000   12.0115
  787         O    1  MOL    O787   787  -0.5000000   15.9994
  788        CT    1  MOL    C788   788  -0.1200000   12.0115
  789        CT    1  MOL    C789   789  -0.1200000   12.0115
  790        CT    1  MOL    C790   790  -0.1200000   12.0115
  791        CT    1  MOL    C791   791  -0.1200000   12.0115
  792        CT    1  MOL    C792   792  -0.1200000   12.0115
  793        CT    1  MOL    C793   793  -0.1200000   12.0115
  794        CT    1  MOL    C794   794  -0.1200000   12.0115
  795        CT    1  MOL    C795   795  -0.1200000   12.0115
  796        CT    1  MOL    C796   796  -0.1200000   12.0115
  797        CT    1  MOL    C797   797  -0.1200000   12.0115
  798         C    1  MOL    C798   798   0.5000000   12.0115
  799         O    1  MOL    O799   799  -0.5000000   15.9994
  800         N    1  MOL    N800   800  -0.5000000   14.0067
  801        CT    1  MOL    C801   801   0.0800000   12.0115
  802        CT    1  MOL    C802   802  -0.1200000   12.0115
  803        CT    1  MOL    C803   803  -0.1200000   12.0115
  804        CT    1  MOL    C804   804  -0.1200000   12.0115
  805        CT    1  MOL    C805   805  -0.1200000   12.0115
  806        CT    1  MOL    C806   806   0.0800000   12.0115
  807         N    1  MOL    N807   807  -0.5000000   14.0067
  808        HC    1  MOL    H808   808   0.0600000    1.0080
  809        HC    1  MOL    H809   809   0.0600000    1.0080
  810        HC    1  MOL    H810   810   0.0600000    1.0080
  811        HC    1  MOL    H811   811   0.0600000    1.0080
  812        HC    1  MOL    H812   812   0.0600000    1.0080
  813        HC    1  MOL    H813   813   0.0600000    1.0080
  814        HC    1  MOL    H814   814   0.0600000    1.0080
  815        HC    1  MOL    H815   815   0.0600000    1.0080
  816        HC    1  MOL    H816   816   0.0600000    1.0080
  817        HC    1  MOL    H817   817   0.0600000    1.0080
  818        HC    1  MOL    H818   818   0.0600000    1.0080
  819        HC    1  MOL    H819   819   0.0600000    1.0080
  820        HC    1  MOL    H820   820   0.0600000    1.0080
  821        HC    1  MOL    H821   821   0.0600000    1.0080
  822        HC    1  MOL    H822   822   0.0600000    1.0080
  823        HC    1  MOL    H823   823   0.0600000    1.0080
  824        HC    1  MOL    H824   824   0.0600000    1.0080
  825        HC    1  MOL    H825   825   0.0600000    1.0080
  826        HC    1  MOL    H826   826   0.0600000    1.0080
  827        HC    1  MOL    H827   827   0.0600000    1.0080
  828         H    1  MOL    H828   828   0.3000000    1.0080
  829        HC    1  MOL    H829   829   0.0600000    1.0080
  830        HC    1  MOL    H830   830   0.0600000    1.0080
  831        HC    1  MOL    H831   831   0.0600000    1.0080
  832        HC    1  MOL    H832   832   0.0600000    1.0080
  833        HC    1  MOL    H833   833   0.0600000    1.0080
  834        HC    1  MOL    H834   834   0.0600000    1.0080
  835        HC    1  MOL    H835   835   0.0600000    1.0080
  836        HC    1  MOL    H836   836   0.0600000    1.0080
  837        HC    1  MOL    H837   837   0.0600000    1.0080
  838        HC    1  MOL    H838   838   0.0600000    1.0080
  839        HC    1  MOL    H839   839   0.0600000    1.0080
  840        HC    1  MOL    H840   840   0.0600000    1.0080
  841         H    1  MOL    H841   841   0.3000000    1.0080
  842         C    1  MOL    C842   842   0.5000000   12.0115
  843         O    1  MOL    O843   843  -0.5000000   15.9994
  844        CT    1  MOL    C844   844  -0.1200000   12.0115
  845        CT    1  MOL    C845   845  -0.1200000   12.0115
  846        CT    1  MOL    C846   846  -0.1200000   12.0115
  847        CT    1  MOL    C847   847  -0.1200000   12.0115
  848        CT    1  MOL    C848   848  -0.1200000   12.0115
  849        CT    1  MOL    C849   849  -0.1200000   12.0115
  850        CT    1  MOL    C850   850  -0.1200000   12.0115
  851        CT    1  MOL    C851   851  -0.1200000   12.0115
  852        CT    1  MOL    C852   852  -0.1200000   12.0115
  853        CT    1  MOL    C853   853  -0.1200000   12.0115
  854         C    1  MOL    C854   854   0.5000000   12.0115
  855         O    1  MOL    O855   855  -0.5000000   15.9994
  856         N    1  MOL    N856   856  -0.5000000   14.0067
  857        CT    1  MOL    C857   857   0.0800000   12.0115
  858        CT    1  MOL    C858   858  -0.1200000   12.0115
  859        CT    1  MOL    C859   859  -0.1200000   12.0115
  860        CT    1  MOL    C860   860  -0.1200000   12.0115
  861        CT    1  MOL    C861   861  -0.1200000   12.0115
  862        CT    1  MOL    C862   862   0.0800000   12.0115
  863         N    1  MOL    N863   863  -0.5000000   14.0067
  864        HC    1  MOL    H864   864   0.0600000    1.0080
  865        HC    1  MOL    H865   865   0.0600000    1.0080
  866        HC    1  MOL    H866   866   0.0600000    1.0080
  867        HC    1  MOL    H867   867   0.0600000    1.0080
  868        HC    1  MOL    H868   868   0.0600000    1.0080
  869        HC    1  MOL    H869   869   0.0600000    1.0080
  870        HC    1  MOL    H870   870   0.0600000    1.0080
  871        HC    1  MOL    H871   871   0.0600000    1.0080
  872        HC    1  MOL    H872   872   0.0600000    1.0080
  873        HC    1  MOL    H873   873   0.0600000    1.0080
  874        HC    1  MOL    H874   874   0.0600000    1.0080
  875        HC    1  MOL    H875   875   0.0600000    1.0080
  876        HC    1  MOL    H876   876   0.0600000    1.0080
  877        HC    1  MOL    H877   877   0.0600000    1.0080
  878        HC    1  MOL    H878   878   0.0600000    1.0080
  879        HC    1  MOL    H879   879   0.0600000    1.0080
  880        HC    1  MOL    H880   880   0.0600000    1.0080
  881        HC    1  MOL    H881   881   0.0600000    1.0080
  882        HC    1  MOL    H882   882   0.0600000    1.0080
  883        HC    1  MOL    H883   883   0.0600000    1.0080
  884         H    1  MOL    H884   884   0.3000000    1.0080
  885        HC    1  MOL    H885   885   0.0600000    1.0080
  886        HC    1  MOL    H886   886   0.0600000    1.0080
  887        HC    1  MOL    H887   887   0.0600000    1.0080
  888        HC    1  MOL    H888   888   0.0600000    1.0080
  889        HC    1  MOL    H889   889   0.0600000    1.0080
  890        HC    1  MOL    H890   890   0.0600000    1.0080
  891        HC    1  MOL    H891   891   0.0600000    1.0080
  892        HC    1  MOL    H892   892   0.0600000    1.0080
  893        HC    1  MOL    H893   893   0.0600000    1.0080
  894        HC    1  MOL    H894   894   0.0600000    1.0080
  895        HC    1  MOL    H895   895   0.0600000    1.0080
  896        HC    1  MOL    H896   896   0.0600000    1.0080
  897         H    1  MOL    H897   897   0.3000000    1.0080
  898         C    1  MOL    C898   898   0.5000000   12.0115
  899         O    1  MOL    O899   899  -0.5000000   15.9994
  900        CT    1  MOL    C900   900  -0.1200000   12.0115
  901        CT    1  MOL    C901   901  -0.1200000   12.0115
  902        CT    1  MOL    C902   902  -0.1200000   12.0115
  903        CT    1  MOL    C903   903  -0.1200000   12.0115
  904        CT    1  MOL    C904   904  -0.1200000   12.0115
  905        CT    1  MOL    C905   905  -0.1200000   12.0115
  906        CT    1  MOL    C906   906  -0.1200000   12.0115
  907        CT    1  MOL    C907   907  -0.1200000   12.0115
  908        CT    1  MOL    C908   908  -0.1200000   12.0115
  909        CT    1  MOL    C909   909  -0.1200000   12.0115
  910         C    1  MOL    C910   910   0.5000000   12.0115
  911         O    1  MOL    O911   911  -0.5000000   15.9994
  912         N    1  MOL    N912   912  -0.5000000   14.0067
  913        CT    1  MOL    C913   913   0.0800000   12.0115
  914        CT    1  MOL    C914   914  -0.1200000   12.0115
  915        CT    1  MOL    C915   915  -0.1200000   12.0115
  916        CT    1  MOL    C916   916  -0.1200000   12.0115
  917        CT    1  MOL    C917   917  -0.1200000   12.0115
  918        CT    1  MOL    C918   918   0.0800000   12.0115
  919         N    1  MOL    N919   919  -0.5000000   14.0067
  920        HC    1  MOL    H920   920   0.0600000    1.0080
  921        HC    1  MOL    H921   921   0.0600000    1.0080
  922        HC    1  MOL    H922   922   0.0600000    1.0080
  923        HC    1  MOL    H923   923   0.0600000    1.0080
  924        HC    1  MOL    H924   924   0.0600000    1.0080
  925        HC    1  MOL    H925   925   0.0600000    1.0080
  926        HC    1  MOL    H926   926   0.0600000    1.0080
  927        HC    1  MOL    H927   927   0.0600000    1.0080
  928        HC    1  MOL    H928   928   0.0600000    1.0080
  929        HC    1  MOL    H929   929   0.0600000    1.0080
  930        HC    1  MOL    H930   930   0.0600000    1.0080
  931        HC    1  MOL    H931   931   0.0600000    1.0080
  932        HC    1  MOL    H932   932   0.0600000    1.0080
  933        HC    1  MOL    H933   933   0.0600000    1.0080
  934        HC    1  MOL    H934   934   0.0600000    1.0080
  935        HC    1  MOL    H935   935   0.0600000    1.0080
  936        HC    1  MOL    H936   936   0.0600000    1.0080
  937        HC    1  MOL    H937   937   0.0600000    1.0080
  938        HC    1  MOL    H938   938   0.0600000    1.0080
  939        HC    1  MOL    H939   939   0.0600000    1.0080
  940         H    1  MOL    H940   940   0.3000000    1.0080
  941        HC    1  MOL    H941   941   0.0600000    1.0080
  942        HC    1  MOL    H942   942   0.0600000    1.0080
  943        HC    1  MOL    H943   943   0.0600000    1.0080
  944        HC    1  MOL    H944   944   0.0600000    1.0080
  945        HC    1  MOL    H945   945   0.0600000    1.0080
  946        HC    1  MOL    H946   946   0.0600000    1.0080
  947        HC    1  MOL    H947   947   0.0600000    1.0080
  948        HC    1  MOL    H948   948   0.0600000    1.0080
  949        HC    1  MOL    H949   949   0.0600000    1.0080
  950        HC    1  MOL    H950   950   0.0600000    1.0080
  951        HC    1  MOL    H951   951   0.0600000    1.0080
  952        HC    1  MOL    H952   952   0.0600000    1.0080
  953         H    1  MOL    H953   953   0.3000000    1.0080
  954         C    1  MOL    C954   954   0.5000000   12.0115
  955         O    1  MOL    O955   955  -0.5000000   15.9994
  956        CT    1  MOL    C956   956  -0.1200000   12.0115
  957        CT    1  MOL    C957   957  -0.1200000   12.0115
  958        CT    1  MOL    C958   958  -0.1200000   12.0115
  959        CT    1  MOL    C959   959  -0.1200000   12.0115
  960        CT    1  MOL    C960   960  -0.1200000   12.0115
  961        CT    1  MOL    C961   961  -0.1200000   12.0115
  962        CT    1  MOL    C962   962  -0.1200000   12.0115
  963        CT    1  MOL    C963   963  -0.1200000   12.0115
  964        CT    1  MOL    C964   964  -0.1200000   12.0115
  965        CT    1  MOL    C965   965  -0.1200000   12.0115
  966         C    1  MOL    C966   966   0.5000000   12.0115
  967         O    1  MOL    O967   967  -0.5000000   15.9994
  968         N    1  MOL    N968   968  -0.5000000   14.0067
  969        CT    1  MOL    C969   969   0.0800000   12.0115
  970        CT    1  MOL    C970   970  -0.1200000   12.0115
  971        CT    1  MOL    C971   971  -0.1200000   12.0115
  972        CT    1  MOL    C972   972  -0.1200000   12.0115
  973        CT    1  MOL    C973   973  -0.1200000   12.0115
  974        CT    1  MOL    C974   974   0.0800000   12.0115
  975         N    1  MOL    N975   975  -0.5000000   14.0067
  976        HC    1  MOL    H976   976   0.0600000    1.0080
  977        HC    1  MOL    H977   977   0.0600000    1.0080
  978        HC    1  MOL    H978   978   0.0600000    1.0080
  979        HC    1  MOL    H979   979   0.0600000    1.0080
  980        HC    1  MOL    H980   980   0.0600000    1.0080
  981        HC    1  MOL    H981   981   0.0600000    1.0080
  982        HC    1  MOL    H982   982   0.0600000    1.0080
  983        HC    1  MOL    H983   983   0.0600000    1.0080
  984        HC    1  MOL    H984   984   0.0600000    1.0080
  985        HC    1  MOL    H985   985   0.0600000    1.0080
  986        HC    1  MOL    H986   986   0.0600000    1.0080
  987        HC    1  MOL    H987   987   0.0600000    1.0080
  988        HC    1  MOL    H988   988   0.0600000    1.0080
  989        HC    1  MOL    H989   989   0.0600000    1.0080
  990        HC    1  MOL    H990   990   0.0600000    1.0080
  991        HC    1  MOL    H991   991   0.0600000    1.0080
  992        HC    1  MOL    H992   992   0.0600000    1.0080
  993        HC    1  MOL    H993   993   0.0600000    1.0080
  994        HC    1  MOL    H994   994   0.0600000    1.0080
  995        HC    1  MOL    H995   995   0.0600000    1.0080
  996         H    1  MOL    H996   996   0.3000000    1.0080
  997        HC    1  MOL    H997   997   0.0600000    1.0080
  998        HC    1  MOL    H998   998   0.0600000    1.0080
  999        HC    1  MOL    H999   999   0.0600000    1.0080
 1000        HC    1  MOL      H1  1000   0.0600000    1.0080
 1001        HC    1  MOL      H2  1001   0.0600000    1.0080
 1002        HC    1  MOL      H3  1002   0.0600000    1.0080
 1003        HC    1  MOL      H4  1003   0.0600000    1.0080
 1004        HC    1  MOL      H5  1004   0.0600000    1.0080
 1005        HC    1  MOL      H6  1005   0.0600000    1.0080
 1006        HC    1  MOL      H7  1006   0.0600000    1.0080
 1007        HC    1  MOL      H8  1007   0.0600000    1.0080
 1008        HC    1  MOL      H9  1008   0.0600000    1.0080
 1009         H    1  MOL     H10  1009   0.3000000    1.0080
 1010         C    1  MOL     C11  1010   0.5000000   12.0115
 1011         O    1  MOL     O12  1011  -0.5000000   15.9994
 1012        CT    1  MOL     C13  1012  -0.1200000   12.0115
 1013        CT    1  MOL     C14  1013  -0.1200000   12.0115
 1014        CT    1  MOL     C15  1014  -0.1200000   12.0115
 1015        CT    1  MOL     C16  1015  -0.1200000   12.0115
 1016        CT    1  MOL     C17  1016  -0.1200000   12.0115
 1017        CT    1  MOL     C18  1017  -0.1200000   12.0115
 1018        CT    1  MOL     C19  1018  -0.1200000   12.0115
 1019        CT    1  MOL     C20  1019  -0.1200000   12.0115
 1020        CT    1  MOL     C21  1020  -0.1200000   12.0115
 1021        CT    1  MOL     C22  1021  -0.1200000   12.0115
 1022         C    1  MOL     C23  1022   0.5000000   12.0115
 1023         O    1  MOL     O24  1023  -0.5000000   15.9994
 1024         N    1  MOL     N25  1024  -0.5000000   14.0067
 1025        CT    1  MOL     C26  1025   0.0800000   12.0115
 1026        CT    1  MOL     C27  1026  -0.1200000   12.0115
 1027        CT    1  MOL     C28  1027  -0.1200000   12.0115
 1028        CT    1  MOL     C29  1028  -0.1200000   12.0115
 1029        CT    1  MOL     C30  1029  -0.1200000   12.0115
 1030        CT    1  MOL     C31  1030   0.0800000   12.0115
 1031         N    1  MOL     N32  1031  -0.5000000   14.0067
 1032        HC    1  MOL     H33  1032   0.0600000    1.0080
 1033        HC    1  MOL     H34  1033   0.0600000    1.0080
 1034        HC    1  MOL     H35  1034   0.0600000    1.0080
 1035        HC    1  MOL     H36  1035   0.0600000    1.0080
 1036        HC    1  MOL     H37  1036   0.0600000    1.0080
 1037        HC    1  MOL     H38  1037   0.0600000    1.0080
 1038        HC    1  MOL     H39  1038   0.0600000    1.0080
 1039        HC    1  MOL     H40  1039   0.0600000    1.0080
 1040        HC    1  MOL     H41  1040   0.0600000    1.0080
 1041        HC    1  MOL     H42  1041   0.0600000    1.0080
 1042        HC    1  MOL     H43  1042   0.0600000    1.0080
 1043        HC    1  MOL     H44  1043   0.0600000    1.0080
 1044        HC    1  MOL     H45  1044   0.0600000    1.0080
 1045        HC    1  MOL     H46  1045   0.0600000    1.0080
 1046        HC    1  MOL     H47  1046   0.0600000    1.0080
 1047        HC    1  MOL     H48  1047   0.0600000    1.0080
 1048        HC    1  MOL     H49  1048   0.0600000    1.0080
 1049        HC    1  MOL     H50  1049   0.0600000    1.0080
 1050        HC    1  MOL     H51  1050   0.0600000    1.0080
 1051        HC    1  MOL     H52  1051   0.0600000    1.0080
 1052         H    1  MOL     H53  1052   0.3000000    1.0080
 1053        HC    1  MOL     H54  1053   0.0600000    1.0080
 1054        HC    1  MOL     H55  1054   0.0600000    1.0080
 1055        HC    1  MOL     H56  1055   0.0600000    1.0080
 1056        HC    1  MOL     H57  1056   0.0600000    1.0080
 1057        HC    1  MOL     H58  1057   0.0600000    1.0080
 1058        HC    1  MOL     H59  1058   0.0600000    1.0080
 1059        HC    1  MOL     H60  1059   0.0600000    1.0080
 1060        HC    1  MOL     H61  1060   0.0600000    1.0080
 1061        HC    1  MOL     H62  1061   0.0600000    1.0080
 1062        HC    1  MOL     H63  1062   0.0600000    1.0080
 1063        HC    1  MOL     H64  1063   0.0600000    1.0080
 1064        HC    1  MOL     H65  1064   0.0600000    1.0080
 1065         H    1  MOL     H66  1065   0.3000000    1.0080
 1066         C    1  MOL     C67  1066   0.5000000   12.0115
 1067         O    1  MOL     O68  1067  -0.5000000   15.9994
 1068        CT    1  MOL     C69  1068  -0.1200000   12.0115
 1069        CT    1  MOL     C70  1069  -0.1200000   12.0115
 1070        CT    1  MOL     C71  1070  -0.1200000   12.0115
 1071        CT    1  MOL     C72  1071  -0.1200000   12.0115
 1072        CT    1  MOL     C73  1072  -0.1200000   12.0115
 1073        CT    1  MOL     C74  1073  -0.1200000   12.0115
 1074        CT    1  MOL     C75  1074  -0.1200000   12.0115
 1075        CT    1  MOL     C76  1075  -0.1200000   12.0115
 1076        CT    1  MOL     C77  1076  -0.1200000   12.0115
 1077        CT    1  MOL     C78  1077  -0.1200000   12.0115
 1078         C    1  MOL     C79  1078   0.5000000   12.0115
 1079         O    1  MOL     O80  1079  -0.5000000   15.9994
 1080         N    1  MOL     N81  1080  -0.5000000   14.0067
 1081        CT    1  MOL     C82  1081   0.0800000   12.0115
 1082        CT    1  MOL     C83  1082  -0.1200000   12.0115
 1083        CT    1  MOL     C84  1083  -0.1200000   12.0115
 1084        CT    1  MOL     C85  1084  -0.1200000   12.0115
 1085        CT    1  MOL     C86  1085  -0.1200000   12.0115
 1086        CT    1  MOL     C87  1086   0.0600000   12.0115
 1087        NT    1  MOL     N88  1087  -0.9000000   14.0067
 1088        HC    1  MOL     H89  1088   0.0600000    1.0080
 1089        HC    1  MOL     H90  1089   0.0600000    1.0080
 1090        HC    1  MOL     H91  1090   0.0600000    1.0080
 1091        HC    1  MOL     H92  1091   0.0600000    1.0080
 1092        HC    1  MOL     H93  1092   0.0600000    1.0080
 1093        HC    1  MOL     H94  1093   0.0600000    1.0080
 1094        HC    1  MOL     H95  1094   0.0600000    1.0080
 1095        HC    1  MOL     H96  1095   0.0600000    1.0080
 1096        HC    1  MOL     H97  1096   0.0600000    1.0080
 1097        HC    1  MOL     H98  1097   0.0600000    1.0080
 1098        HC    1  MOL     H99  1098   0.0600000    1.0080
 1099        HC    1  MOL    H100  1099   0.0600000    1.0080
 1100        HC    1  MOL    H101  1100   0.0600000    1.0080
 1101        HC    1  MOL    H102  1101   0.0600000    1.0080
 1102        HC    1  MOL    H103  1102   0.0600000    1.0080
 1103        HC    1  MOL    H104  1103   0.0600000    1.0080
 1104        HC    1  MOL    H105  1104   0.0600000    1.0080
 1105        HC    1  MOL    H106  1105   0.0600000    1.0080
 1106        HC    1  MOL    H107  1106   0.0600000    1.0080
 1107        HC    1  MOL    H108  1107   0.0600000    1.0080
 1108         H    1  MOL    H109  1108   0.3000000    1.0080
 1109        HC    1  MOL    H110  1109   0.0600000    1.0080
 1110        HC    1  MOL    H111  1110   0.0600000    1.0080
 1111        HC    1  MOL    H112  1111   0.0600000    1.0080
 1112        HC    1  MOL    H113  1112   0.0600000    1.0080
 1113        HC    1  MOL    H114  1113   0.0600000    1.0080
 1114        HC    1  MOL    H115  1114   0.0600000    1.0080
 1115        HC    1  MOL    H116  1115   0.0600000    1.0080
 1116        HC    1  MOL    H117  1116   0.0600000    1.0080
 1117        HC    1  MOL    H118  1117   0.0600000    1.0080
 1118        HC    1  MOL    H119  1118   0.0600000    1.0080
 1119      HANI    1  MOL    H120  1119   0.0600000    1.0080
 1120      HANI    1  MOL    H121  1120   0.0600000    1.0080
 1121         H    1  MOL    H122  1121   0.3600000    1.0080
 1122         H    1  MOL    H123  1122   0.3600000    1.0080

[ bonds ]
      1      2   1      0.1229 476976.0000
      1      3   1      0.1522 265265.6000
      1     57   1      0.1090 284512.0000
      3      4   1      0.1529 224262.4000
      3     23   1      0.1090 284512.0000
      3     24   1      0.1090 284512.0000
      4      5   1      0.1529 224262.4000
      4     25   1      0.1090 284512.0000
      4     26   1      0.1090 284512.0000
      5      6   1      0.1529 224262.4000
      5     27   1      0.1090 284512.0000
      5     28   1      0.1090 284512.0000
      6      7   1      0.1529 224262.4000
      6     29   1      0.1090 284512.0000
      6     30   1      0.1090 284512.0000
      7      8   1      0.1529 224262.4000
      7     31   1      0.1090 284512.0000
      7     32   1      0.1090 284512.0000
      8      9   1      0.1529 224262.4000
      8     33   1      0.1090 284512.0000
      8     34   1      0.1090 284512.0000
      9     10   1      0.1529 224262.4000
      9     35   1      0.1090 284512.0000
      9     36   1      0.1090 284512.0000
     10     11   1      0.1529 224262.4000
     10     37   1      0.1090 284512.0000
     10     38   1      0.1090 284512.0000
     11     12   1      0.1529 224262.4000
     11     39   1      0.1090 284512.0000
     11     40   1      0.1090 284512.0000
     12     13   1      0.1522 265265.6000
     12     41   1      0.1090 284512.0000
     12     42   1      0.1090 284512.0000
     13     14   1      0.1229 476976.0000
     13     15   1      0.1335 410032.0000
     15     16   1      0.1449 282001.6000
     15     43   1      0.1010 363171.2000
     16     17   1      0.1529 224262.4000
     16     44   1      0.1090 284512.0000
     16     45   1      0.1090 284512.0000
     17     18   1      0.1529 224262.4000
     17     46   1      0.1090 284512.0000
     17     47   1      0.1090 284512.0000
     18     19   1      0.1529 224262.4000
     18     48   1      0.1090 284512.0000
     18     49   1      0.1090 284512.0000
     19     20   1      0.1529 224262.4000
     19     50   1      0.1090 284512.0000
     19     51   1      0.1090 284512.0000
     20     21   1      0.1529 224262.4000
     20     52   1      0.1090 284512.0000
     20     53   1      0.1090 284512.0000
     21     22   1      0.1449 282001.6000
     21     54   1      0.1090 284512.0000
     21     55   1      0.1090 284512.0000
     22     56   1      0.1010 363171.2000
     22     58   1      0.1335 410032.0000
     58     59   1      0.1229 476976.0000
     58     60   1      0.1522 265265.6000
     60     61   1      0.1529 224262.4000
     60     80   1      0.1090 284512.0000
     60     81   1      0.1090 284512.0000
     61     62   1      0.1529 224262.4000
     61     82   1      0.1090 284512.0000
     61     83   1      0.1090 284512.0000
     62     63   1      0.1529 224262.4000
     62     84   1      0.1090 284512.0000
     62     85   1      0.1090 284512.0000
     63     64   1      0.1529 224262.4000
     63     86   1      0.1090 284512.0000
     63     87   1      0.1090 284512.0000
     64     65   1      0.1529 224262.4000
     64     88   1      0.1090 284512.0000
     64     89   1      0.1090 284512.0000
     65     66   1      0.1529 224262.4000
     65     90   1      0.1090 284512.0000
     65     91   1      0.1090 284512.0000
     66     67   1      0.1529 224262.4000
     66     92   1      0.1090 284512.0000
     66     93   1      0.1090 284512.0000
     67     68   1      0.1529 224262.4000
     67     94   1      0.1090 284512.0000
     67     95   1      0.1090 284512.0000
     68     69   1      0.1529 224262.4000
     68     96   1      0.1090 284512.0000
     68     97   1      0.1090 284512.0000
     69     70   1      0.1522 265265.6000
     69     98   1      0.1090 284512.0000
     69     99   1      0.1090 284512.0000
     70     71   1      0.1229 476976.0000
     70     72   1      0.1335 410032.0000
     72     73   1      0.1449 282001.6000
     72    100   1      0.1010 363171.2000
     73     74   1      0.1529 224262.4000
     73    101   1      0.1090 284512.0000
     73    102   1      0.1090 284512.0000
     74     75   1      0.1529 224262.4000
     74    103   1      0.1090 284512.0000
     74    104   1      0.1090 284512.0000
     75     76   1      0.1529 224262.4000
     75    105   1      0.1090 284512.0000
     75    106   1      0.1090 284512.0000
     76     77   1      0.1529 224262.4000
     76    107   1      0.1090 284512.0000
     76    108   1      0.1090 284512.0000
     77     78   1      0.1529 224262.4000
     77    109   1      0.1090 284512.0000
     77    110   1      0.1090 284512.0000
     78     79   1      0.1449 282001.6000
     78    111   1      0.1090 284512.0000
     78    112   1      0.1090 284512.0000
     79    113   1      0.1010 363171.2000
     79    114   1      0.1335 410032.0000
    114    115   1      0.1229 476976.0000
    114    116   1      0.1522 265265.6000
    116    117   1      0.1529 224262.4000
    116    136   1      0.1090 284512.0000
    116    137   1      0.1090 284512.0000
    117    118   1      0.1529 224262.4000
    117    138   1      0.1090 284512.0000
    117    139   1      0.1090 284512.0000
    118    119   1      0.1529 224262.4000
    118    140   1      0.1090 284512.0000
    118    141   1      0.1090 284512.0000
    119    120   1      0.1529 224262.4000
    119    142   1      0.1090 284512.0000
    119    143   1      0.1090 284512.0000
    120    121   1      0.1529 224262.4000
    120    144   1      0.1090 284512.0000
    120    145   1      0.1090 284512.0000
    121    122   1      0.1529 224262.4000
    121    146   1      0.1090 284512.0000
    121    147   1      0.1090 284512.0000
    122    123   1      0.1529 224262.4000
    122    148   1      0.1090 284512.0000
    122    149   1      0.1090 284512.0000
    123    124   1      0.1529 224262.4000
    123    150   1      0.1090 284512.0000
    123    151   1      0.1090 284512.0000
    124    125   1      0.1529 224262.4000
    124    152   1      0.1090 284512.0000
    124    153   1      0.1090 284512.0000
    125    126   1      0.1522 265265.6000
    125    154   1      0.1090 284512.0000
    125    155   1      0.1090 284512.0000
    126    127   1      0.1229 476976.0000
    126    128   1      0.1335 410032.0000
    128    129   1      0.1449 282001.6000
    128    156   1      0.1010 363171.2000
    129    130   1      0.1529 224262.4000
    129    157   1      0.1090 284512.0000
    129    158   1      0.1090 284512.0000
    130    131   1      0.1529 224262.4000
    130    159   1      0.1090 284512.0000
    130    160   1      0.1090 284512.0000
    131    132   1      0.1529 224262.4000
    131    161   1      0.1090 284512.0000
    131    162   1      0.1090 284512.0000
    132    133   1      0.1529 224262.4000
    132    163   1      0.1090 284512.0000
    132    164   1      0.1090 284512.0000
    133    134   1      0.1529 224262.4000
    133    165   1      0.1090 284512.0000
    133    166   1      0.1090 284512.0000
    134    135   1      0.1449 282001.6000
    134    167   1      0.1090 284512.0000
    134    168   1      0.1090 284512.0000
    135    169   1      0.1010 363171.2000
    135    170   1      0.1335 410032.0000
    170    171   1      0.1229 476976.0000
    170    172   1      0.1522 265265.6000
    172    173   1      0.1529 224262.4000
    172    192   1      0.1090 284512.0000
    172    193   1      0.1090 284512.0000
    173    174   1      0.1529 224262.4000
    173    194   1      0.1090 284512.0000
    173    195   1      0.1090 284512.0000
    174    175   1      0.1529 224262.4000
    174    196   1      0.1090 284512.0000
    174    197   1      0.1090 284512.0000
    175    176   1      0.1529 224262.4000
    175    198   1      0.1090 284512.0000
    175    199   1      0.1090 284512.0000
    176    177   1      0.1529 224262.4000
    176    200   1      0.1090 284512.0000
    176    201   1      0.1090 284512.0000
    177    178   1      0.1529 224262.4000
    177    202   1      0.1090 284512.0000
    177    203   1      0.1090 284512.0000
    178    179   1      0.1529 224262.4000
    178    204   1      0.1090 284512.0000
    178    205   1      0.1090 284512.0000
    179    180   1      0.1529 224262.4000
    179    206   1      0.1090 284512.0000
    179    207   1      0.1090 284512.0000
    180    181   1      0.1529 224262.4000
    180    208   1      0.1090 284512.0000
    180    209   1      0.1090 284512.0000
    181    182   1      0.1522 265265.6000
    181    210   1      0.1090 284512.0000
    181    211   1      0.1090 284512.0000
    182    183   1      0.1229 476976.0000
    182    184   1      0.1335 410032.0000
    184    185   1      0.1449 282001.6000
    184    212   1      0.1010 363171.2000
    185    186   1      0.1529 224262.4000
    185    213   1      0.1090 284512.0000
    185    214   1      0.1090 284512.0000
    186    187   1      0.1529 224262.4000
    186    215   1      0.1090 284512.0000
    186    216   1      0.1090 284512.0000
    187    188   1      0.1529 224262.4000
    187    217   1      0.1090 284512.0000
    187    218   1      0.1090 284512.0000
    188    189   1      0.1529 224262.4000
    188    219   1      0.1090 284512.0000
    188    220   1      0.1090 284512.0000
    189    190   1      0.1529 224262.4000
    189    221   1      0.1090 284512.0000
    189    222   1      0.1090 284512.0000
    190    191   1      0.1449 282001.6000
    190    223   1      0.1090 284512.0000
    190    224   1      0.1090 284512.0000
    191    225   1      0.1010 363171.2000
    191    226   1      0.1335 410032.0000
    226    227   1      0.1229 476976.0000
    226    228   1      0.1522 265265.6000
    228    229   1      0.1529 224262.4000
    228    248   1      0.1090 284512.0000
    228    249   1      0.1090 284512.0000
    229    230   1      0.1529 224262.4000
    229    250   1      0.1090 284512.0000
    229    251   1      0.1090 284512.0000
    230    231   1      0.1529 224262.4000
    230    252   1      0.1090 284512.0000
    230    253   1      0.1090 284512.0000
    231    232   1      0.1529 224262.4000
    231    254   1      0.1090 284512.0000
    231    255   1      0.1090 284512.0000
    232    233   1      0.1529 224262.4000
    232    256   1      0.1090 284512.0000
    232    257   1      0.1090 284512.0000
    233    234   1      0.1529 224262.4000
    233    258   1      0.1090 284512.0000
    233    259   1      0.1090 284512.0000
    234    235   1      0.1529 224262.4000
    234    260   1      0.1090 284512.0000
    234    261   1      0.1090 284512.0000
    235    236   1      0.1529 224262.4000
    235    262   1      0.1090 284512.0000
    235    263   1      0.1090 284512.0000
    236    237   1      0.1529 224262.4000
    236    264   1      0.1090 284512.0000
    236    265   1      0.1090 284512.0000
    237    238   1      0.1522 265265.6000
    237    266   1      0.1090 284512.0000
    237    267   1      0.1090 284512.0000
    238    239   1      0.1229 476976.0000
    238    240   1      0.1335 410032.0000
    240    241   1      0.1449 282001.6000
    240    268   1      0.1010 363171.2000
    241    242   1      0.1529 224262.4000
    241    269   1      0.1090 284512.0000
    241    270   1      0.1090 284512.0000
    242    243   1      0.1529 224262.4000
    242    271   1      0.1090 284512.0000
    242    272   1      0.1090 284512.0000
    243    244   1      0.1529 224262.4000
    243    273   1      0.1090 284512.0000
    243    274   1      0.1090 284512.0000
    244    245   1      0.1529 224262.4000
    244    275   1      0.1090 284512.0000
    244    276   1      0.1090 284512.0000
    245    246   1      0.1529 224262.4000
    245    277   1      0.1090 284512.0000
    245    278   1      0.1090 284512.0000
    246    247   1      0.1449 282001.6000
    246    279   1      0.1090 284512.0000
    246    280   1      0.1090 284512.0000
    247    281   1      0.1010 363171.2000
    247    282   1      0.1335 410032.0000
    282    283   1      0.1229 476976.0000
    282    284   1      0.1522 265265.6000
    284    285   1      0.1529 224262.4000
    284    304   1      0.1090 284512.0000
    284    305   1      0.1090 284512.0000
    285    286   1      0.1529 224262.4000
    285    306   1      0.1090 284512.0000
    285    307   1      0.1090 284512.0000
    286    287   1      0.1529 224262.4000
    286    308   1      0.1090 284512.0000
    286    309   1      0.1090 284512.0000
    287    288   1      0.1529 224262.4000
    287    310   1      0.1090 284512.0000
    287    311   1      0.1090 284512.0000
    288    289   1      0.1529 224262.4000
    288    312   1      0.1090 284512.0000
    288    313   1      0.1090 284512.0000
    289    290   1      0.1529 224262.4000
    289    314   1      0.1090 284512.0000
    289    315   1      0.1090 284512.0000
    290    291   1      0.1529 224262.4000
    290    316   1      0.1090 284512.0000
    290    317   1      0.1090 284512.0000
    291    292   1      0.1529 224262.4000
    291    318   1      0.1090 284512.0000
    291    319   1      0.1090 284512.0000
    292    293   1      0.1529 224262.4000
    292    320   1      0.1090 284512.0000
    292    321   1      0.1090 284512.0000
    293    294   1      0.1522 265265.6000
    293    322   1      0.1090 284512.0000
    293    323   1      0.1090 284512.0000
    294    295   1      0.1229 476976.0000
    294    296   1      0.1335 410032.0000
    296    297   1      0.1449 282001.6000
    296    324   1      0.1010 363171.2000
    297    298   1      0.1529 224262.4000
    297    325   1      0.1090 284512.0000
    297    326   1      0.1090 284512.0000
    298    299   1      0.1529 224262.4000
    298    327   1      0.1090 284512.0000
    298    328   1      0.1090 284512.0000
    299    300   1      0.1529 224262.4000
    299    329   1      0.1090 284512.0000
    299    330   1      0.1090 284512.0000
    300    301   1      0.1529 224262.4000
    300    331   1      0.1090 284512.0000
    300    332   1      0.1090 284512.0000
    301    302   1      0.1529 224262.4000
    301    333   1      0.1090 284512.0000
    301    334   1      0.1090 284512.0000
    302    303   1      0.1449 282001.6000
    302    335   1      0.1090 284512.0000
    302    336   1      0.1090 284512.0000
    303    337   1      0.1010 363171.2000
    303    338   1      0.1335 410032.0000
    338    339   1      0.1229 476976.0000
    338    340   1      0.1522 265265.6000
    340    341   1      0.1529 224262.4000
    340    360   1      0.1090 284512.0000
    340    361   1      0.1090 284512.0000
    341    342   1      0.1529 224262.4000
    341    362   1      0.1090 284512.0000
    341    363   1      0.1090 284512.0000
    342    343   1      0.1529 224262.4000
    342    364   1      0.1090 284512.0000
    342    365   1      0.1090 284512.0000
    343    344   1      0.1529 224262.4000
    343    366   1      0.1090 284512.0000
    343    367   1      0.1090 284512.0000
    344    345   1      0.1529 224262.4000
    344    368   1      0.1090 284512.0000
    344    369   1      0.1090 284512.0000
    345    346   1      0.1529 224262.4000
    345    370   1      0.1090 284512.0000
    345    371   1      0.1090 284512.0000
    346    347   1      0.1529 224262.4000
    346    372   1      0.1090 284512.0000
    346    373   1      0.1090 284512.0000
    347    348   1      0.1529 224262.4000
    347    374   1      0.1090 284512.0000
    347    375   1      0.1090 284512.0000
    348    349   1      0.1529 224262.4000
    348    376   1      0.1090 284512.0000
    348    377   1      0.1090 284512.0000
    349    350   1      0.1522 265265.6000
    349    378   1      0.1090 284512.0000
    349    379   1      0.1090 284512.0000
    350    351   1      0.1229 476976.0000
    350    352   1      0.1335 410032.0000
    352    353   1      0.1449 282001.6000
    352    380   1      0.1010 363171.2000
    353    354   1      0.1529 224262.4000
    353    381   1      0.1090 284512.0000
    353    382   1      0.1090 284512.0000
    354    355   1      0.1529 224262.4000
    354    383   1      0.1090 284512.0000
    354    384   1      0.1090 284512.0000
    355    356   1      0.1529 224262.4000
    355    385   1      0.1090 284512.0000
    355    386   1      0.1090 284512.0000
    356    357   1      0.1529 224262.4000
    356    387   1      0.1090 284512.0000
    356    388   1      0.1090 284512.0000
    357    358   1      0.1529 224262.4000
    357    389   1      0.1090 284512.0000
    357    390   1      0.1090 284512.0000
    358    359   1      0.1449 282001.6000
    358    391   1      0.1090 284512.0000
    358    392   1      0.1090 284512.0000
    359    393   1      0.1010 363171.2000
    359    394   1      0.1335 410032.0000
    394    395   1      0.1229 476976.0000
    394    396   1      0.1522 265265.6000
    396    397   1      0.1529 224262.4000
    396    416   1      0.1090 284512.0000
    396    417   1      0.1090 284512.0000
    397    398   1      0.1529 224262.4000
    397    418   1      0.1090 284512.0000
    397    419   1      0.1090 284512.0000
    398    399   1      0.1529 224262.4000
    398    420   1      0.1090 284512.0000
    398    421   1      0.1090 284512.0000
    399    400   1      0.1529 224262.4000
    399    422   1      0.1090 284512.0000
    399    423   1      0.1090 284512.0000
    400    401   1      0.1529 224262.4000
    400    424   1      0.1090 284512.0000
    400    425   1      0.1090 284512.0000
    401    402   1      0.1529 224262.4000
    401    426   1      0.1090 284512.0000
    401    427   1      0.1090 284512.0000
    402    403   1      0.1529 224262.4000
    402    428   1      0.1090 284512.0000
    402    429   1      0.1090 284512.0000
    403    404   1      0.1529 224262.4000
    403    430   1      0.1090 284512.0000
    403    431   1      0.1090 284512.0000
    404    405   1      0.1529 224262.4000
    404    432   1      0.1090 284512.0000
    404    433   1      0.1090 284512.0000
    405    406   1      0.1522 265265.6000
    405    434   1      0.1090 284512.0000
    405    435   1      0.1090 284512.0000
    406    407   1      0.1229 476976.0000
    406    408   1      0.1335 410032.0000
    408    409   1      0.1449 282001.6000
    408    436   1      0.1010 363171.2000
    409    410   1      0.1529 224262.4000
    409    437   1      0.1090 284512.0000
    409    438   1      0.1090 284512.0000
    410    411   1      0.1529 224262.4000
    410    439   1      0.1090 284512.0000
    410    440   1      0.1090 284512.0000
    411    412   1      0.1529 224262.4000
    411    441   1      0.1090 284512.0000
    411    442   1      0.1090 284512.0000
    412    413   1      0.1529 224262.4000
    412    443   1      0.1090 284512.0000
    412    444   1      0.1090 284512.0000
    413    414   1      0.1529 224262.4000
    413    445   1      0.1090 284512.0000
    413    446   1      0.1090 284512.0000
    414    415   1      0.1449 282001.6000
    414    447   1      0.1090 284512.0000
    414    448   1      0.1090 284512.0000
    415    449   1      0.1010 363171.2000
    415    450   1      0.1335 410032.0000
    450    451   1      0.1229 476976.0000
    450    452   1      0.1522 265265.6000
    452    453   1      0.1529 224262.4000
    452    472   1      0.1090 284512.0000
    452    473   1      0.1090 284512.0000
    453    454   1      0.1529 224262.4000
    453    474   1      0.1090 284512.0000
    453    475   1      0.1090 284512.0000
    454    455   1      0.1529 224262.4000
    454    476   1      0.1090 284512.0000
    454    477   1      0.1090 284512.0000
    455    456   1      0.1529 224262.4000
    455    478   1      0.1090 284512.0000
    455    479   1      0.1090 284512.0000
    456    457   1      0.1529 224262.4000
    456    480   1      0.1090 284512.0000
    456    481   1      0.1090 284512.0000
    457    458   1      0.1529 224262.4000
    457    482   1      0.1090 284512.0000
    457    483   1      0.1090 284512.0000
    458    459   1      0.1529 224262.4000
    458    484   1      0.1090 284512.0000
    458    485   1      0.1090 284512.0000
    459    460   1      0.1529 224262.4000
    459    486   1      0.1090 284512.0000
    459    487   1      0.1090 284512.0000
    460    461   1      0.1529 224262.4000
    460    488   1      0.1090 284512.0000
    460    489   1      0.1090 284512.0000
    461    462   1      0.1522 265265.6000
    461    490   1      0.1090 284512.0000
    461    491   1      0.1090 284512.0000
    462    463   1      0.1229 476976.0000
    462    464   1      0.1335 410032.0000
    464    465   1      0.1449 282001.6000
    464    492   1      0.1010 363171.2000
    465    466   1      0.1529 224262.4000
    465    493   1      0.1090 284512.0000
    465    494   1      0.1090 284512.0000
    466    467   1      0.1529 224262.4000
    466    495   1      0.1090 284512.0000
    466    496   1      0.1090 284512.0000
    467    468   1      0.1529 224262.4000
    467    497   1      0.1090 284512.0000
    467    498   1      0.1090 284512.0000
    468    469   1      0.1529 224262.4000
    468    499   1      0.1090 284512.0000
    468    500   1      0.1090 284512.0000
    469    470   1      0.1529 224262.4000
    469    501   1      0.1090 284512.0000
    469    502   1      0.1090 284512.0000
    470    471   1      0.1449 282001.6000
    470    503   1      0.1090 284512.0000
    470    504   1      0.1090 284512.0000
    471    505   1      0.1010 363171.2000
    471    506   1      0.1335 410032.0000
    506    507   1      0.1229 476976.0000
    506    508   1      0.1522 265265.6000
    508    509   1      0.1529 224262.4000
    508    528   1      0.1090 284512.0000
    508    529   1      0.1090 284512.0000
    509    510   1      0.1529 224262.4000
    509    530   1      0.1090 284512.0000
    509    531   1      0.1090 284512.0000
    510    511   1      0.1529 224262.4000
    510    532   1      0.1090 284512.0000
    510    533   1      0.1090 284512.0000
    511    512   1      0.1529 224262.4000
    511    534   1      0.1090 284512.0000
    511    535   1      0.1090 284512.0000
    512    513   1      0.1529 224262.4000
    512    536   1      0.1090 284512.0000
    512    537   1      0.1090 284512.0000
    513    514   1      0.1529 224262.4000
    513    538   1      0.1090 284512.0000
    513    539   1      0.1090 284512.0000
    514    515   1      0.1529 224262.4000
    514    540   1      0.1090 284512.0000
    514    541   1      0.1090 284512.0000
    515    516   1      0.1529 224262.4000
    515    542   1      0.1090 284512.0000
    515    543   1      0.1090 284512.0000
    516    517   1      0.1529 224262.4000
    516    544   1      0.1090 284512.0000
    516    545   1      0.1090 284512.0000
    517    518   1      0.1522 265265.6000
    517    546   1      0.1090 284512.0000
    517    547   1      0.1090 284512.0000
    518    519   1      0.1229 476976.0000
    518    520   1      0.1335 410032.0000
    520    521   1      0.1449 282001.6000
    520    548   1      0.1010 363171.2000
    521    522   1      0.1529 224262.4000
    521    549   1      0.1090 284512.0000
    521    550   1      0.1090 284512.0000
    522    523   1      0.1529 224262.4000
    522    551   1      0.1090 284512.0000
    522    552   1      0.1090 284512.0000
    523    524   1      0.1529 224262.4000
    523    553   1      0.1090 284512.0000
    523    554   1      0.1090 284512.0000
    524    525   1      0.1529 224262.4000
    524    555   1      0.1090 284512.0000
    524    556   1      0.1090 284512.0000
    525    526   1      0.1529 224262.4000
    525    557   1      0.1090 284512.0000
    525    558   1      0.1090 284512.0000
    526    527   1      0.1449 282001.6000
    526    559   1      0.1090 284512.0000
    526    560   1      0.1090 284512.0000
    527    561   1      0.1010 363171.2000
    527    562   1      0.1335 410032.0000
    562    563   1      0.1229 476976.0000
    562    564   1      0.1522 265265.6000
    564    565   1      0.1529 224262.4000
    564    584   1      0.1090 284512.0000
    564    585   1      0.1090 284512.0000
    565    566   1      0.1529 224262.4000
    565    586   1      0.1090 284512.0000
    565    587   1      0.1090 284512.0000
    566    567   1      0.1529 224262.4000
    566    588   1      0.1090 284512.0000
    566    589   1      0.1090 284512.0000
    567    568   1      0.1529 224262.4000
    567    590   1      0.1090 284512.0000
    567    591   1      0.1090 284512.0000
    568    569   1      0.1529 224262.4000
    568    592   1      0.1090 284512.0000
    568    593   1      0.1090 284512.0000
    569    570   1      0.1529 224262.4000
    569    594   1      0.1090 284512.0000
    569    595   1      0.1090 284512.0000
    570    571   1      0.1529 224262.4000
    570    596   1      0.1090 284512.0000
    570    597   1      0.1090 284512.0000
    571    572   1      0.1529 224262.4000
    571    598   1      0.1090 284512.0000
    571    599   1      0.1090 284512.0000
    572    573   1      0.1529 224262.4000
    572    600   1      0.1090 284512.0000
    572    601   1      0.1090 284512.0000
    573    574   1      0.1522 265265.6000
    573    602   1      0.1090 284512.0000
    573    603   1      0.1090 284512.0000
    574    575   1      0.1229 476976.0000
    574    576   1      0.1335 410032.0000
    576    577   1      0.1449 282001.6000
    576    604   1      0.1010 363171.2000
    577    578   1      0.1529 224262.4000
    577    605   1      0.1090 284512.0000
    577    606   1      0.1090 284512.0000
    578    579   1      0.1529 224262.4000
    578    607   1      0.1090 284512.0000
    578    608   1      0.1090 284512.0000
    579    580   1      0.1529 224262.4000
    579    609   1      0.1090 284512.0000
    579    610   1      0.1090 284512.0000
    580    581   1      0.1529 224262.4000
    580    611   1      0.1090 284512.0000
    580    612   1      0.1090 284512.0000
    581    582   1      0.1529 224262.4000
    581    613   1      0.1090 284512.0000
    581    614   1      0.1090 284512.0000
    582    583   1      0.1449 282001.6000
    582    615   1      0.1090 284512.0000
    582    616   1      0.1090 284512.0000
    583    617   1      0.1010 363171.2000
    583    618   1      0.1335 410032.0000
    618    619   1      0.1229 476976.0000
    618    620   1      0.1522 265265.6000
    620    621   1      0.1529 224262.4000
    620    640   1      0.1090 284512.0000
    620    641   1      0.1090 284512.0000
    621    622   1      0.1529 224262.4000
    621    642   1      0.1090 284512.0000
    621    643   1      0.1090 284512.0000
    622    623   1      0.1529 224262.4000
    622    644   1      0.1090 284512.0000
    622    645   1      0.1090 284512.0000
    623    624   1      0.1529 224262.4000
    623    646   1      0.1090 284512.0000
    623    647   1      0.1090 284512.0000
    624    625   1      0.1529 224262.4000
    624    648   1      0.1090 284512.0000
    624    649   1      0.1090 284512.0000
    625    626   1      0.1529 224262.4000
    625    650   1      0.1090 284512.0000
    625    651   1      0.1090 284512.0000
    626    627   1      0.1529 224262.4000
    626    652   1      0.1090 284512.0000
    626    653   1      0.1090 284512.0000
    627    628   1      0.1529 224262.4000
    627    654   1      0.1090 284512.0000
    627    655   1      0.1090 284512.0000
    628    629   1      0.1529 224262.4000
    628    656   1      0.1090 284512.0000
    628    657   1      0.1090 284512.0000
    629    630   1      0.1522 265265.6000
    629    658   1      0.1090 284512.0000
    629    659   1      0.1090 284512.0000
    630    631   1      0.1229 476976.0000
    630    632   1      0.1335 410032.0000
    632    633   1      0.1449 282001.6000
    632    660   1      0.1010 363171.2000
    633    634   1      0.1529 224262.4000
    633    661   1      0.1090 284512.0000
    633    662   1      0.1090 284512.0000
    634    635   1      0.1529 224262.4000
    634    663   1      0.1090 284512.0000
    634    664   1      0.1090 284512.0000
    635    636   1      0.1529 224262.4000
    635    665   1      0.1090 284512.0000
    635    666   1      0.1090 284512.0000
    636    637   1      0.1529 224262.4000
    636    667   1      0.1090 284512.0000
    636    668   1      0.1090 284512.0000
    637    638   1      0.1529 224262.4000
    637    669   1      0.1090 284512.0000
    637    670   1      0.1090 284512.0000
    638    639   1      0.1449 282001.6000
    638    671   1      0.1090 284512.0000
    638    672   1      0.1090 284512.0000
    639    673   1      0.1010 363171.2000
    639    674   1      0.1335 410032.0000
    674    675   1      0.1229 476976.0000
    674    676   1      0.1522 265265.6000
    676    677   1      0.1529 224262.4000
    676    696   1      0.1090 284512.0000
    676    697   1      0.1090 284512.0000
    677    678   1      0.1529 224262.4000
    677    698   1      0.1090 284512.0000
    677    699   1      0.1090 284512.0000
    678    679   1      0.1529 224262.4000
    678    700   1      0.1090 284512.0000
    678    701   1      0.1090 284512.0000
    679    680   1      0.1529 224262.4000
    679    702   1      0.1090 284512.0000
    679    703   1      0.1090 284512.0000
    680    681   1      0.1529 224262.4000
    680    704   1      0.1090 284512.0000
    680    705   1      0.1090 284512.0000
    681    682   1      0.1529 224262.4000
    681    706   1      0.1090 284512.0000
    681    707   1      0.1090 284512.0000
    682    683   1      0.1529 224262.4000
    682    708   1      0.1090 284512.0000
    682    709   1      0.1090 284512.0000
    683    684   1      0.1529 224262.4000
    683    710   1      0.1090 284512.0000
    683    711   1      0.1090 284512.0000
    684    685   1      0.1529 224262.4000
    684    712   1      0.1090 284512.0000
    684    713   1      0.1090 284512.0000
    685    686   1      0.1522 265265.6000
    685    714   1      0.1090 284512.0000
    685    715   1      0.1090 284512.0000
    686    687   1      0.1229 476976.0000
    686    688   1      0.1335 410032.0000
    688    689   1      0.1449 282001.6000
    688    716   1      0.1010 363171.2000
    689    690   1      0.1529 224262.4000
    689    717   1      0.1090 284512.0000
    689    718   1      0.1090 284512.0000
    690    691   1      0.1529 224262.4000
    690    719   1      0.1090 284512.0000
    690    720   1      0.1090 284512.0000
    691    692   1      0.1529 224262.4000
    691    721   1      0.1090 284512.0000
    691    722   1      0.1090 284512.0000
    692    693   1      0.1529 224262.4000
    692    723   1      0.1090 284512.0000
    692    724   1      0.1090 284512.0000
    693    694   1      0.1529 224262.4000
    693    725   1      0.1090 284512.0000
    693    726   1      0.1090 284512.0000
    694    695   1      0.1449 282001.6000
    694    727   1      0.1090 284512.0000
    694    728   1      0.1090 284512.0000
    695    729   1      0.1010 363171.2000
    695    730   1      0.1335 410032.0000
    730    731   1      0.1229 476976.0000
    730    732   1      0.1522 265265.6000
    732    733   1      0.1529 224262.4000
    732    752   1      0.1090 284512.0000
    732    753   1      0.1090 284512.0000
    733    734   1      0.1529 224262.4000
    733    754   1      0.1090 284512.0000
    733    755   1      0.1090 284512.0000
    734    735   1      0.1529 224262.4000
    734    756   1      0.1090 284512.0000
    734    757   1      0.1090 284512.0000
    735    736   1      0.1529 224262.4000
    735    758   1      0.1090 284512.0000
    735    759   1      0.1090 284512.0000
    736    737   1      0.1529 224262.4000
    736    760   1      0.1090 284512.0000
    736    761   1      0.1090 284512.0000
    737    738   1      0.1529 224262.4000
    737    762   1      0.1090 284512.0000
    737    763   1      0.1090 284512.0000
    738    739   1      0.1529 224262.4000
    738    764   1      0.1090 284512.0000
    738    765   1      0.1090 284512.0000
    739    740   1      0.1529 224262.4000
    739    766   1      0.1090 284512.0000
    739    767   1      0.1090 284512.0000
    740    741   1      0.1529 224262.4000
    740    768   1      0.1090 284512.0000
    740    769   1      0.1090 284512.0000
    741    742   1      0.1522 265265.6000
    741    770   1      0.1090 284512.0000
    741    771   1      0.1090 284512.0000
    742    743   1      0.1229 476976.0000
    742    744   1      0.1335 410032.0000
    744    745   1      0.1449 282001.6000
    744    772   1      0.1010 363171.2000
    745    746   1      0.1529 224262.4000
    745    773   1      0.1090 284512.0000
    745    774   1      0.1090 284512.0000
    746    747   1      0.1529 224262.4000
    746    775   1      0.1090 284512.0000
    746    776   1      0.1090 284512.0000
    747    748   1      0.1529 224262.4000
    747    777   1      0.1090 284512.0000
    747    778   1      0.1090 284512.0000
    748    749   1      0.1529 224262.4000
    748    779   1      0.1090 284512.0000
    748    780   1      0.1090 284512.0000
    749    750   1      0.1529 224262.4000
    749    781   1      0.1090 284512.0000
    749    782   1      0.1090 284512.0000
    750    751   1      0.1449 282001.6000
    750    783   1      0.1090 284512.0000
    750    784   1      0.1090 284512.0000
    751    785   1      0.1010 363171.2000
    751    786   1      0.1335 410032.0000
    786    787   1      0.1229 476976.0000
    786    788   1      0.1522 265265.6000
    788    789   1      0.1529 224262.4000
    788    808   1      0.1090 284512.0000
    788    809   1      0.1090 284512.0000
    789    790   1      0.1529 224262.4000
    789    810   1      0.1090 284512.0000
    789    811   1      0.1090 284512.0000
    790    791   1      0.1529 224262.4000
    790    812   1      0.1090 284512.0000
    790    813   1      0.1090 284512.0000
    791    792   1      0.1529 224262.4000
    791    814   1      0.1090 284512.0000
    791    815   1      0.1090 284512.0000
    792    793   1      0.1529 224262.4000
    792    816   1      0.1090 284512.0000
    792    817   1      0.1090 284512.0000
    793    794   1      0.1529 224262.4000
    793    818   1      0.1090 284512.0000
    793    819   1      0.1090 284512.0000
    794    795   1      0.1529 224262.4000
    794    820   1      0.1090 284512.0000
    794    821   1      0.1090 284512.0000
    795    796   1      0.1529 224262.4000
    795    822   1      0.1090 284512.0000
    795    823   1      0.1090 284512.0000
    796    797   1      0.1529 224262.4000
    796    824   1      0.1090 284512.0000
    796    825   1      0.1090 284512.0000
    797    798   1      0.1522 265265.6000
    797    826   1      0.1090 284512.0000
    797    827   1      0.1090 284512.0000
    798    799   1      0.1229 476976.0000
    798    800   1      0.1335 410032.0000
    800    801   1      0.1449 282001.6000
    800    828   1      0.1010 363171.2000
    801    802   1      0.1529 224262.4000
    801    829   1      0.1090 284512.0000
    801    830   1      0.1090 284512.0000
    802    803   1      0.1529 224262.4000
    802    831   1      0.1090 284512.0000
    802    832   1      0.1090 284512.0000
    803    804   1      0.1529 224262.4000
    803    833   1      0.1090 284512.0000
    803    834   1      0.1090 284512.0000
    804    805   1      0.1529 224262.4000
    804    835   1      0.1090 284512.0000
    804    836   1      0.1090 284512.0000
    805    806   1      0.1529 224262.4000
    805    837   1      0.1090 284512.0000
    805    838   1      0.1090 284512.0000
    806    807   1      0.1449 282001.6000
    806    839   1      0.1090 284512.0000
    806    840   1      0.1090 284512.0000
    807    841   1      0.1010 363171.2000
    807    842   1      0.1335 410032.0000
    842    843   1      0.1229 476976.0000
    842    844   1      0.1522 265265.6000
    844    845   1      0.1529 224262.4000
    844    864   1      0.1090 284512.0000
    844    865   1      0.1090 284512.0000
    845    846   1      0.1529 224262.4000
    845    866   1      0.1090 284512.0000
    845    867   1      0.1090 284512.0000
    846    847   1      0.1529 224262.4000
    846    868   1      0.1090 284512.0000
    846    869   1      0.1090 284512.0000
    847    848   1      0.1529 224262.4000
    847    870   1      0.1090 284512.0000
    847    871   1      0.1090 284512.0000
    848    849   1      0.1529 224262.4000
    848    872   1      0.1090 284512.0000
    848    873   1      0.1090 284512.0000
    849    850   1      0.1529 224262.4000
    849    874   1      0.1090 284512.0000
    849    875   1      0.1090 284512.0000
    850    851   1      0.1529 224262.4000
    850    876   1      0.1090 284512.0000
    850    877   1      0.1090 284512.0000
    851    852   1      0.1529 224262.4000
    851    878   1      0.1090 284512.0000
    851    879   1      0.1090 284512.0000
    852    853   1      0.1529 224262.4000
    852    880   1      0.1090 284512.0000
    852    881   1      0.1090 284512.0000
    853    854   1      0.1522 265265.6000
    853    882   1      0.1090 284512.0000
    853    883   1      0.1090 284512.0000
    854    855   1      0.1229 476976.0000
    854    856   1      0.1335 410032.0000
    856    857   1      0.1449 282001.6000
    856    884   1      0.1010 363171.2000
    857    858   1      0.1529 224262.4000
    857    885   1      0.1090 284512.0000
    857    886   1      0.1090 284512.0000
    858    859   1      0.1529 224262.4000
    858    887   1      0.1090 284512.0000
    858    888   1      0.1090 284512.0000
    859    860   1      0.1529 224262.4000
    859    889   1      0.1090 284512.0000
    859    890   1      0.1090 284512.0000
    860    861   1      0.1529 224262.4000
    860    891   1      0.1090 284512.0000
    860    892   1      0.1090 284512.0000
    861    862   1      0.1529 224262.4000
    861    893   1      0.1090 284512.0000
    861    894   1      0.1090 284512.0000
    862    863   1      0.1449 282001.6000
    862    895   1      0.1090 284512.0000
    862    896   1      0.1090 284512.0000
    863    897   1      0.1010 363171.2000
    863    898   1      0.1335 410032.0000
    898    899   1      0.1229 476976.0000
    898    900   1      0.1522 265265.6000
    900    901   1      0.1529 224262.4000
    900    920   1      0.1090 284512.0000
    900    921   1      0.1090 284512.0000
    901    902   1      0.1529 224262.4000
    901    922   1      0.1090 284512.0000
    901    923   1      0.1090 284512.0000
    902    903   1      0.1529 224262.4000
    902    924   1      0.1090 284512.0000
    902    925   1      0.1090 284512.0000
    903    904   1      0.1529 224262.4000
    903    926   1      0.1090 284512.0000
    903    927   1      0.1090 284512.0000
    904    905   1      0.1529 224262.4000
    904    928   1      0.1090 284512.0000
    904    929   1      0.1090 284512.0000
    905    906   1      0.1529 224262.4000
    905    930   1      0.1090 284512.0000
    905    931   1      0.1090 284512.0000
    906    907   1      0.1529 224262.4000
    906    932   1      0.1090 284512.0000
    906    933   1      0.1090 284512.0000
    907    908   1      0.1529 224262.4000
    907    934   1      0.1090 284512.0000
    907    935   1      0.1090 284512.0000
    908    909   1      0.1529 224262.4000
    908    936   1      0.1090 284512.0000
    908    937   1      0.1090 284512.0000
    909    910   1      0.1522 265265.6000
    909    938   1      0.1090 284512.0000
    909    939   1      0.1090 284512.0000
    910    911   1      0.1229 476976.0000
    910    912   1      0.1335 410032.0000
    912    913   1      0.1449 282001.6000
    912    940   1      0.1010 363171.2000
    913    914   1      0.1529 224262.4000
    913    941   1      0.1090 284512.0000
    913    942   1      0.1090 284512.0000
    914    915   1      0.1529 224262.4000
    914    943   1      0.1090 284512.0000
    914    944   1      0.1090 284512.0000
    915    916   1      0.1529 224262.4000
    915    945   1      0.1090 284512.0000
    915    946   1      0.1090 284512.0000
    916    917   1      0.1529 224262.4000
    916    947   1      0.1090 284512.0000
    916    948   1      0.1090 284512.0000
    917    918   1      0.1529 224262.4000
    917    949   1      0.1090 284512.0000
    917    950   1      0.1090 284512.0000
    918    919   1      0.1449 282001.6000
    918    951   1      0.1090 284512.0000
    918    952   1      0.1090 284512.0000
    919    953   1      0.1010 363171.2000
    919    954   1      0.1335 410032.0000
    954    955   1      0.1229 476976.0000
    954    956   1      0.1522 265265.6000
    956    957   1      0.1529 224262.4000
    956    976   1      0.1090 284512.0000
    956    977   1      0.1090 284512.0000
    957    958   1      0.1529 224262.4000
    957    978   1      0.1090 284512.0000
    957    979   1      0.1090 284512.0000
    958    959   1      0.1529 224262.4000
    958    980   1      0.1090 284512.0000
    958    981   1      0.1090 284512.0000
    959    960   1      0.1529 224262.4000
    959    982   1      0.1090 284512.0000
    959    983   1      0.1090 284512.0000
    960    961   1      0.1529 224262.4000
    960    984   1      0.1090 284512.0000
    960    985   1      0.1090 284512.0000
    961    962   1      0.1529 224262.4000
    961    986   1      0.1090 284512.0000
    961    987   1      0.1090 284512.0000
    962    963   1      0.1529 224262.4000
    962    988   1      0.1090 284512.0000
    962    989   1      0.1090 284512.0000
    963    964   1      0.1529 224262.4000
    963    990   1      0.1090 284512.0000
    963    991   1      0.1090 284512.0000
    964    965   1      0.1529 224262.4000
    964    992   1      0.1090 284512.0000
    964    993   1      0.1090 284512.0000
    965    966   1      0.1522 265265.6000
    965    994   1      0.1090 284512.0000
    965    995   1      0.1090 284512.0000
    966    967   1      0.1229 476976.0000
    966    968   1      0.1335 410032.0000
    968    969   1      0.1449 282001.6000
    968    996   1      0.1010 363171.2000
    969    970   1      0.1529 224262.4000
    969    997   1      0.1090 284512.0000
    969    998   1      0.1090 284512.0000
    970    971   1      0.1529 224262.4000
    970    999   1      0.1090 284512.0000
    970   1000   1      0.1090 284512.0000
    971    972   1      0.1529 224262.4000
    971   1001   1      0.1090 284512.0000
    971   1002   1      0.1090 284512.0000
    972    973   1      0.1529 224262.4000
    972   1003   1      0.1090 284512.0000
    972   1004   1      0.1090 284512.0000
    973    974   1      0.1529 224262.4000
    973   1005   1      0.1090 284512.0000
    973   1006   1      0.1090 284512.0000
    974    975   1      0.1449 282001.6000
    974   1007   1      0.1090 284512.0000
    974   1008   1      0.1090 284512.0000
    975   1009   1      0.1010 363171.2000
    975   1010   1      0.1335 410032.0000
   1010   1011   1      0.1229 476976.0000
   1010   1012   1      0.1522 265265.6000
   1012   1013   1      0.1529 224262.4000
   1012   1032   1      0.1090 284512.0000
   1012   1033   1      0.1090 284512.0000
   1013   1014   1      0.1529 224262.4000
   1013   1034   1      0.1090 284512.0000
   1013   1035   1      0.1090 284512.0000
   1014   1015   1      0.1529 224262.4000
   1014   1036   1      0.1090 284512.0000
   1014   1037   1      0.1090 284512.0000
   1015   1016   1      0.1529 224262.4000
   1015   1038   1      0.1090 284512.0000
   1015   1039   1      0.1090 284512.0000
   1016   1017   1      0.1529 224262.4000
   1016   1040   1      0.1090 284512.0000
   1016   1041   1      0.1090 284512.0000
   1017   1018   1      0.1529 224262.4000
   1017   1042   1      0.1090 284512.0000
   1017   1043   1      0.1090 284512.0000
   1018   1019   1      0.1529 224262.4000
   1018   1044   1      0.1090 284512.0000
   1018   1045   1      0.1090 284512.0000
   1019   1020   1      0.1529 224262.4000
   1019   1046   1      0.1090 284512.0000
   1019   1047   1      0.1090 284512.0000
   1020   1021   1      0.1529 224262.4000
   1020   1048   1      0.1090 284512.0000
   1020   1049   1      0.1090 284512.0000
   1021   1022   1      0.1522 265265.6000
   1021   1050   1      0.1090 284512.0000
   1021   1051   1      0.1090 284512.0000
   1022   1023   1      0.1229 476976.0000
   1022   1024   1      0.1335 410032.0000
   1024   1025   1      0.1449 282001.6000
   1024   1052   1      0.1010 363171.2000
   1025   1026   1      0.1529 224262.4000
   1025   1053   1      0.1090 284512.0000
   1025   1054   1      0.1090 284512.0000
   1026   1027   1      0.1529 224262.4000
   1026   1055   1      0.1090 284512.0000
   1026   1056   1      0.1090 284512.0000
   1027   1028   1      0.1529 224262.4000
   1027   1057   1      0.1090 284512.0000
   1027   1058   1      0.1090 284512.0000
   1028   1029   1      0.1529 224262.4000
   1028   1059   1      0.1090 284512.0000
   1028   1060   1      0.1090 284512.0000
   1029   1030   1      0.1529 224262.4000
   1029   1061   1      0.1090 284512.0000
   1029   1062   1      0.1090 284512.0000
   1030   1031   1      0.1449 282001.6000
   1030   1063   1      0.1090 284512.0000
   1030   1064   1      0.1090 284512.0000
   1031   1065   1      0.1010 363171.2000
   1031   1066   1      0.1335 410032.0000
   1066   1067   1      0.1229 476976.0000
   1066   1068   1      0.1522 265265.6000
   1068   1069   1      0.1529 224262.4000
   1068   1088   1      0.1090 284512.0000
   1068   1089   1      0.1090 284512.0000
   1069   1070   1      0.1529 224262.4000
   1069   1090   1      0.1090 284512.0000
   1069   1091   1      0.1090 284512.0000
   1070   1071   1      0.1529 224262.4000
   1070   1092   1      0.1090 284512.0000
   1070   1093   1      0.1090 284512.0000
   1071   1072   1      0.1529 224262.4000
   1071   1094   1      0.1090 284512.0000
   1071   1095   1      0.1090 284512.0000
   1072   1073   1      0.1529 224262.4000
   1072   1096   1      0.1090 284512.0000
   1072   1097   1      0.1090 284512.0000
   1073   1074   1      0.1529 224262.4000
   1073   1098   1      0.1090 284512.0000
   1073   1099   1      0.1090 284512.0000
   1074   1075   1      0.1529 224262.4000
   1074   1100   1      0.1090 284512.0000
   1074   1101   1      0.1090 284512.0000
   1075   1076   1      0.1529 224262.4000
   1075   1102   1      0.1090 284512.0000
   1075   1103   1      0.1090 284512.0000
   1076   1077   1      0.1529 224262.4000
   1076   1104   1      0.1090 284512.0000
   1076   1105   1      0.1090 284512.0000
   1077   1078   1      0.1522 265265.6000
   1077   1106   1      0.1090 284512.0000
   1077   1107   1      0.1090 284512.0000
   1078   1079   1      0.1229 476976.0000
   1078   1080   1      0.1335 410032.0000
   1080   1081   1      0.1449 282001.6000
   1080   1108   1      0.1010 363171.2000
   1081   1082   1      0.1529 224262.4000
   1081   1109   1      0.1090 284512.0000
   1081   1110   1      0.1090 284512.0000
   1082   1083   1      0.1529 224262.4000
   1082   1111   1      0.1090 284512.0000
   1082   1112   1      0.1090 284512.0000
   1083   1084   1      0.1529 224262.4000
   1083   1113   1      0.1090 284512.0000
   1083   1114   1      0.1090 284512.0000
   1084   1085   1      0.1529 224262.4000
   1084   1115   1      0.1090 284512.0000
   1084   1116   1      0.1090 284512.0000
   1085   1086   1      0.1529 224262.4000
   1085   1117   1      0.1090 284512.0000
   1085   1118   1      0.1090 284512.0000
   1086   1087   1      0.1448 319657.6000
   1086   1119   1      0.1090 284512.0000
   1086   1120   1      0.1090 284512.0000
   1087   1121   1      0.1010 363171.2000
   1087   1122   1      0.1010 363171.2000

[ pairs ]
; ai   aj   funct   fudge_QQ  charge_i   charge_j   c6    c12
      2      4   2   0.50000    -0.4500000   -0.1200000   1.095425e-03  1.218041e-06
      2     23   2   0.50000    -0.4500000    0.0600000   1.726228e-04  6.344822e-08
      2     24   2   0.50000    -0.4500000    0.0600000   1.726228e-04  6.344822e-08
     57      4   2   0.50000     0.0000000   -0.1200000   1.599888e-04  9.721644e-08
     57     23   2   0.50000     0.0000000    0.0600000   2.521187e-05  5.064042e-09
     57     24   2   0.50000     0.0000000    0.0600000   2.521187e-05  5.064042e-09
      1      5   2   0.50000     0.4500000   -0.1200000   1.575021e-03  3.561100e-06
      1     25   2   0.50000     0.4500000    0.0600000   3.869820e-04  3.188634e-07
      1     26   2   0.50000     0.4500000    0.0600000   3.869820e-04  3.188634e-07
     23      5   2   0.50000     0.0600000   -0.1200000   1.599888e-04  9.721644e-08
     23     25   2   0.50000     0.0600000    0.0600000   3.930919e-05  8.704828e-09
     23     26   2   0.50000     0.0600000    0.0600000   3.930919e-05  8.704828e-09
     24      5   2   0.50000     0.0600000   -0.1200000   1.599888e-04  9.721644e-08
     24     25   2   0.50000     0.0600000    0.0600000   3.930919e-05  8.704828e-09
     24     26   2   0.50000     0.0600000    0.0600000   3.930919e-05  8.704828e-09
      3      6   2   0.50000    -0.1200000   -0.1200000   1.015252e-03  1.866303e-06
      3     27   2   0.50000    -0.1200000    0.0600000   2.494471e-04  1.671101e-07
      3     28   2   0.50000    -0.1200000    0.0600000   2.494471e-04  1.671101e-07
     25      6   2   0.50000     0.0600000   -0.1200000   2.494471e-04  1.671101e-07
     25     27   2   0.50000     0.0600000    0.0600000   6.128906e-05  1.496315e-08
     25     28   2   0.50000     0.0600000    0.0600000   6.128906e-05  1.496315e-08
     26      6   2   0.50000     0.0600000   -0.1200000   2.494471e-04  1.671101e-07
     26     27   2   0.50000     0.0600000    0.0600000   6.128906e-05  1.496315e-08
     26     28   2   0.50000     0.0600000    0.0600000   6.128906e-05  1.496315e-08
      4      7   2   0.50000    -0.1200000   -0.1200000   1.015252e-03  1.866303e-06
      4     29   2   0.50000    -0.1200000    0.0600000   2.494471e-04  1.671101e-07
      4     30   2   0.50000    -0.1200000    0.0600000   2.494471e-04  1.671101e-07
     27      7   2   0.50000     0.0600000   -0.1200000   2.494471e-04  1.671101e-07
     27     29   2   0.50000     0.0600000    0.0600000   6.128906e-05  1.496315e-08
     27     30   2   0.50000     0.0600000    0.0600000   6.128906e-05  1.496315e-08
     28      7   2   0.50000     0.0600000   -0.1200000   2.494471e-04  1.671101e-07
     28     29   2   0.50000     0.0600000    0.0600000   6.128906e-05  1.496315e-08
     28     30   2   0.50000     0.0600000    0.0600000   6.128906e-05  1.496315e-08
      5      8   2   0.50000    -0.1200000   -0.1200000   1.015252e-03  1.866303e-06
      5     31   2   0.50000    -0.1200000    0.0600000   2.494471e-04  1.671101e-07
      5     32   2   0.50000    -0.1200000    0.0600000   2.494471e-04  1.671101e-07
     29      8   2   0.50000     0.0600000   -0.1200000   2.494471e-04  1.671101e-07
     29     31   2   0.50000     0.0600000    0.0600000   6.128906e-05  1.496315e-08
     29     32   2   0.50000     0.0600000    0.0600000   6.128906e-05  1.496315e-08
     30      8   2   0.50000     0.0600000   -0.1200000   2.494471e-04  1.671101e-07
     30     31   2   0.50000     0.0600000    0.0600000   6.128906e-05  1.496315e-08
     30     32   2   0.50000     0.0600000    0.0600000   6.128906e-05  1.496315e-08
      6      9   2   0.50000    -0.1200000   -0.1200000   1.015252e-03  1.866303e-06
      6     33   2   0.50000    -0.1200000    0.0600000   2.494471e-04  1.671101e-07
      6     34   2   0.50000    -0.1200000    0.0600000   2.494471e-04  1.671101e-07
     31      9   2   0.50000     0.0600000   -0.1200000   2.494471e-04  1.671101e-07
     31     33   2   0.50000     0.0600000    0.0600000   6.128906e-05  1.496315e-08
     31     34   2   0.50000     0.0600000    0.0600000   6.128906e-05  1.496315e-08
     32      9   2   0.50000     0.0600000   -0.1200000   2.494471e-04  1.671101e-07
     32     33   2   0.50000     0.0600000    0.0600000   6.128906e-05  1.496315e-08
     32     34   2   0.50000     0.0600000    0.0600000   6.128906e-05  1.496315e-08
      7     10   2   0.50000    -0.1200000   -0.1200000   1.015252e-03  1.866303e-06
      7     35   2   0.50000    -0.1200000    0.0600000   2.494471e-04  1.671101e-07
      7     36   2   0.50000    -0.1200000    0.0600000   2.494471e-04  1.671101e-07
     33     10   2   0.50000     0.0600000   -0.1200000   2.494471e-04  1.671101e-07
     33     35   2   0.50000     0.0600000    0.0600000   6.128906e-05  1.496315e-08
     33     36   2   0.50000     0.0600000    0.0600000   6.128906e-05  1.496315e-08
     34     10   2   0.50000     0.0600000   -0.1200000   2.494471e-04  1.671101e-07
     34     35   2   0.50000     0.0600000    0.0600000   6.128906e-05  1.496315e-08
     34     36   2   0.50000     0.0600000    0.0600000   6.128906e-05  1.496315e-08
      8     11   2   0.50000    -0.1200000   -0.1200000   1.015252e-03  1.866303e-06
      8     37   2   0.50000    -0.1200000    0.0600000   2.494471e-04  1.671101e-07
      8     38   2   0.50000    -0.1200000    0.0600000   2.494471e-04  1.671101e-07
     35     11   2   0.50000     0.0600000   -0.1200000   2.494471e-04  1.671101e-07
     35     37   2   0.50000     0.0600000    0.0600000   6.128906e-05  1.496315e-08
     35     38   2   0.50000     0.0600000    0.0600000   6.128906e-05  1.496315e-08
     36     11   2   0.50000     0.0600000   -0.1200000   2.494471e-04  1.671101e-07
     36     37   2   0.50000     0.0600000    0.0600000   6.128906e-05  1.496315e-08
     36     38   2   0.50000     0.0600000    0.0600000   6.128906e-05  1.496315e-08
      9     12   2   0.50000    -0.1200000   -0.1200000   1.015252e-03  1.866303e-06
      9     39   2   0.50000    -0.1200000    0.0600000   2.494471e-04  1.671101e-07
      9     40   2   0.50000    -0.1200000    0.0600000   2.494471e-04  1.671101e-07
     37     12   2   0.50000     0.0600000   -0.1200000   2.494471e-04  1.671101e-07
     37     39   2   0.50000     0.0600000    0.0600000   6.128906e-05  1.496315e-08
     37     40   2   0.50000     0.0600000    0.0600000   6.128906e-05  1.496315e-08
     38     12   2   0.50000     0.0600000   -0.1200000   2.494471e-04  1.671101e-07
     38     39   2   0.50000     0.0600000    0.0600000   6.128906e-05  1.496315e-08
     38     40   2   0.50000     0.0600000    0.0600000   6.128906e-05  1.496315e-08
     10     13   2   0.50000    -0.1200000    0.5000000   1.575021e-03  3.561100e-06
     10     41   2   0.50000    -0.1200000    0.0600000   2.494471e-04  1.671101e-07
     10     42   2   0.50000    -0.1200000    0.0600000   2.494471e-04  1.671101e-07
     39     13   2   0.50000     0.0600000    0.5000000   3.869820e-04  3.188634e-07
     39     41   2   0.50000     0.0600000    0.0600000   6.128906e-05  1.496315e-08
     39     42   2   0.50000     0.0600000    0.0600000   6.128906e-05  1.496315e-08
     40     13   2   0.50000     0.0600000    0.5000000   3.869820e-04  3.188634e-07
     40     41   2   0.50000     0.0600000    0.0600000   6.128906e-05  1.496315e-08
     40     42   2   0.50000     0.0600000    0.0600000   6.128906e-05  1.496315e-08
     11     14   2   0.50000    -0.1200000   -0.5000000   1.095425e-03  1.218041e-06
     11     15   2   0.50000    -0.1200000   -0.5000000   1.304585e-03  1.920112e-06
     41     14   2   0.50000     0.0600000   -0.5000000   2.691455e-04  1.090642e-07
     41     15   2   0.50000     0.0600000   -0.5000000   3.205360e-04  1.719281e-07
     42     14   2   0.50000     0.0600000   -0.5000000   2.691455e-04  1.090642e-07
     42     15   2   0.50000     0.0600000   -0.5000000   3.205360e-04  1.719281e-07
     12     16   2   0.50000    -0.1200000    0.0800000   1.015252e-03  1.866303e-06
     12     43   2   0.50000    -0.1200000    0.3000000   1.995577e-06  1.069504e-11
     14     16   2   0.50000    -0.5000000    0.0800000   1.095425e-03  1.218041e-06
     14     43   2   0.50000    -0.5000000    0.3000000   2.153164e-06  6.980110e-12
     13     17   2   0.50000     0.5000000   -0.1200000   1.575021e-03  3.561100e-06
     13     44   2   0.50000     0.5000000    0.0600000   3.869820e-04  3.188634e-07
     13     45   2   0.50000     0.5000000    0.0600000   3.869820e-04  3.188634e-07
     43     17   2   0.50000     0.3000000   -0.1200000   1.995577e-06  1.069504e-11
     43     44   2   0.50000     0.3000000    0.0600000   4.903125e-07  9.576416e-13
     43     45   2   0.50000     0.3000000    0.0600000   4.903125e-07  9.576416e-13
     15     18   2   0.50000    -0.5000000   -0.1200000   1.304585e-03  1.920112e-06
     15     46   2   0.50000    -0.5000000    0.0600000   3.205360e-04  1.719281e-07
     15     47   2   0.50000    -0.5000000    0.0600000   3.205360e-04  1.719281e-07
     44     18   2   0.50000     0.0600000   -0.1200000   2.494471e-04  1.671101e-07
     44     46   2   0.50000     0.0600000    0.0600000   6.128906e-05  1.496315e-08
     44     47   2   0.50000     0.0600000    0.0600000   6.128906e-05  1.496315e-08
     45     18   2   0.50000     0.0600000   -0.1200000   2.494471e-04  1.671101e-07
     45     46   2   0.50000     0.0600000    0.0600000   6.128906e-05  1.496315e-08
     45     47   2   0.50000     0.0600000    0.0600000   6.128906e-05  1.496315e-08
     16     19   2   0.50000     0.0800000   -0.1200000   1.015252e-03  1.866303e-06
     16     48   2   0.50000     0.0800000    0.0600000   2.494471e-04  1.671101e-07
     16     49   2   0.50000     0.0800000    0.0600000   2.494471e-04  1.671101e-07
     46     19   2   0.50000     0.0600000   -0.1200000   2.494471e-04  1.671101e-07
     46     48   2   0.50000     0.0600000    0.0600000   6.128906e-05  1.496315e-08
     46     49   2   0.50000     0.0600000    0.0600000   6.128906e-05  1.496315e-08
     47     19   2   0.50000     0.0600000   -0.1200000   2.494471e-04  1.671101e-07
     47     48   2   0.50000     0.0600000    0.0600000   6.128906e-05  1.496315e-08
     47     49   2   0.50000     0.0600000    0.0600000   6.128906e-05  1.496315e-08
     17     20   2   0.50000    -0.1200000   -0.1200000   1.015252e-03  1.866303e-06
     17     50   2   0.50000    -0.1200000    0.0600000   2.494471e-04  1.671101e-07
     17     51   2   0.50000    -0.1200000    0.0600000   2.494471e-04  1.671101e-07
     48     20   2   0.50000     0.0600000   -0.1200000   2.494471e-04  1.671101e-07
     48     50   2   0.50000     0.0600000    0.0600000   6.128906e-05  1.496315e-08
     48     51   2   0.50000     0.0600000    0.0600000   6.128906e-05  1.496315e-08
     49     20   2   0.50000     0.0600000   -0.1200000   2.494471e-04  1.671101e-07
     49     50   2   0.50000     0.0600000    0.0600000   6.128906e-05  1.496315e-08
     49     51   2   0.50000     0.0600000    0.0600000   6.128906e-05  1.496315e-08
     18     21   2   0.50000    -0.1200000    0.0800000   1.015252e-03  1.866303e-06
     18     52   2   0.50000    -0.1200000    0.0600000   2.494471e-04  1.671101e-07
     18     53   2   0.50000    -0.1200000    0.0600000   2.494471e-04  1.671101e-07
     50     21   2   0.50000     0.0600000    0.0800000   2.494471e-04  1.671101e-07
     50     52   2   0.50000     0.0600000    0.0600000   6.128906e-05  1.496315e-08
     50     53   2   0.50000     0.0600000    0.0600000   6.128906e-05  1.496315e-08
     51     21   2   0.50000     0.0600000    0.0800000   2.494471e-04  1.671101e-07
     51     52   2   0.50000     0.0600000    0.0600000   6.128906e-05  1.496315e-08
     51     53   2   0.50000     0.0600000    0.0600000   6.128906e-05  1.496315e-08
     19     22   2   0.50000    -0.1200000   -0.5000000   1.304585e-03  1.920112e-06
     19     54   2   0.50000    -0.1200000    0.0600000   2.494471e-04  1.671101e-07
     19     55   2   0.50000    -0.1200000    0.0600000   2.494471e-04  1.671101e-07
     52     22   2   0.50000     0.0600000   -0.5000000   3.205360e-04  1.719281e-07
     52     54   2   0.50000     0.0600000    0.0600000   6.128906e-05  1.496315e-08
     52     55   2   0.50000     0.0600000    0.0600000   6.128906e-05  1.496315e-08
     53     22   2   0.50000     0.0600000   -0.5000000   3.205360e-04  1.719281e-07
     53     54   2   0.50000     0.0600000    0.0600000   6.128906e-05  1.496315e-08
     53     55   2   0.50000     0.0600000    0.0600000   6.128906e-05  1.496315e-08
     20     56   2   0.50000    -0.1200000    0.3000000   1.995577e-06  1.069504e-11
     20     58   2   0.50000    -0.1200000    0.5000000   1.575021e-03  3.561100e-06
     54     56   2   0.50000     0.0600000    0.3000000   4.903125e-07  9.576416e-13
     54     58   2   0.50000     0.0600000    0.5000000   3.869820e-04  3.188634e-07
     55     56   2   0.50000     0.0600000    0.3000000   4.903125e-07  9.576416e-13
     55     58   2   0.50000     0.0600000    0.5000000   3.869820e-04  3.188634e-07
     21     59   2   0.50000     0.0800000   -0.5000000   1.095425e-03  1.218041e-06
     21     60   2   0.50000     0.0800000   -0.1200000   1.015252e-03  1.866303e-06
     56     59   2   0.50000     0.3000000   -0.5000000   2.153164e-06  6.980110e-12
     56     60   2   0.50000     0.3000000   -0.1200000   1.995577e-06  1.069504e-11
     22     61   2   0.50000    -0.5000000   -0.1200000   1.304585e-03  1.920112e-06
     22     80   2   0.50000    -0.5000000    0.0600000   3.205360e-04  1.719281e-07
     22     81   2   0.50000    -0.5000000    0.0600000   3.205360e-04  1.719281e-07
     59     61   2   0.50000    -0.5000000   -0.1200000   1.095425e-03  1.218041e-06
     59     80   2   0.50000    -0.5000000    0.0600000   2.691455e-04  1.090642e-07
     59     81   2   0.50000    -0.5000000    0.0600000   2.691455e-04  1.090642e-07
     58     62   2   0.50000     0.5000000   -0.1200000   1.575021e-03  3.561100e-06
     58     82   2   0.50000     0.5000000    0.0600000   3.869820e-04  3.188634e-07
     58     83   2   0.50000     0.5000000    0.0600000   3.869820e-04  3.188634e-07
     80     62   2   0.50000     0.0600000   -0.1200000   2.494471e-04  1.671101e-07
     80     82   2   0.50000     0.0600000    0.0600000   6.128906e-05  1.496315e-08
     80     83   2   0.50000     0.0600000    0.0600000   6.128906e-05  1.496315e-08
     81     62   2   0.50000     0.0600000   -0.1200000   2.494471e-04  1.671101e-07
     81     82   2   0.50000     0.0600000    0.0600000   6.128906e-05  1.496315e-08
     81     83   2   0.50000     0.0600000    0.0600000   6.128906e-05  1.496315e-08
     60     63   2   0.50000    -0.1200000   -0.1200000   1.015252e-03  1.866303e-06
     60     84   2   0.50000    -0.1200000    0.0600000   2.494471e-04  1.671101e-07
     60     85   2   0.50000    -0.1200000    0.0600000   2.494471e-04  1.671101e-07
     82     63   2   0.50000     0.0600000   -0.1200000   2.494471e-04  1.671101e-07
     82     84   2   0.50000     0.0600000    0.0600000   6.128906e-05  1.496315e-08
     82     85   2   0.50000     0.0600000    0.0600000   6.128906e-05  1.496315e-08
     83     63   2   0.50000     0.0600000   -0.1200000   2.494471e-04  1.671101e-07
     83     84   2   0.50000     0.0600000    0.0600000   6.128906e-05  1.496315e-08
     83     85   2   0.50000     0.0600000    0.0600000   6.128906e-05  1.496315e-08
     61     64   2   0.50000    -0.1200000   -0.1200000   1.015252e-03  1.866303e-06
     61     86   2   0.50000    -0.1200000    0.0600000   2.494471e-04  1.671101e-07
     61     87   2   0.50000    -0.1200000    0.0600000   2.494471e-04  1.671101e-07
     84     64   2   0.50000     0.0600000   -0.1200000   2.494471e-04  1.671101e-07
     84     86   2   0.50000     0.0600000    0.0600000   6.128906e-05  1.496315e-08
     84     87   2   0.50000     0.0600000    0.0600000   6.128906e-05  1.496315e-08
     85     64   2   0.50000     0.0600000   -0.1200000   2.494471e-04  1.671101e-07
     85     86   2   0.50000     0.0600000    0.0600000   6.128906e-05  1.496315e-08
     85     87   2   0.50000     0.0600000    0.0600000   6.128906e-05  1.496315e-08
     62     65   2   0.50000    -0.1200000   -0.1200000   1.015252e-03  1.866303e-06
     62     88   2   0.50000    -0.1200000    0.0600000   2.494471e-04  1.671101e-07
     62     89   2   0.50000    -0.1200000    0.0600000   2.494471e-04  1.671101e-07
     86     65   2   0.50000     0.0600000   -0.1200000   2.494471e-04  1.671101e-07
     86     88   2   0.50000     0.0600000    0.0600000   6.128906e-05  1.496315e-08
     86     89   2   0.50000     0.0600000    0.0600000   6.128906e-05  1.496315e-08
     87     65   2   0.50000     0.0600000   -0.1200000   2.494471e-04  1.671101e-07
     87     88   2   0.50000     0.0600000    0.0600000   6.128906e-05  1.496315e-08
     87     89   2   0.50000     0.0600000    0.0600000   6.128906e-05  1.496315e-08
     63     66   2   0.50000    -0.1200000   -0.1200000   1.015252e-03  1.866303e-06
     63     90   2   0.50000    -0.1200000    0.0600000   2.494471e-04  1.671101e-07
     63     91   2   0.50000    -0.1200000    0.0600000   2.494471e-04  1.671101e-07
     88     66   2   0.50000     0.0600000   -0.1200000   2.494471e-04  1.671101e-07
     88     90   2   0.50000     0.0600000    0.0600000   6.128906e-05  1.496315e-08
     88     91   2   0.50000     0.0600000    0.0600000   6.128906e-05  1.496315e-08
     89     66   2   0.50000     0.0600000   -0.1200000   2.494471e-04  1.671101e-07
     89     90   2   0.50000     0.0600000    0.0600000   6.128906e-05  1.496315e-08
     89     91   2   0.50000     0.0600000    0.0600000   6.128906e-05  1.496315e-08
     64     67   2   0.50000    -0.1200000   -0.1200000   1.015252e-03  1.866303e-06
     64     92   2   0.50000    -0.1200000    0.0600000   2.494471e-04  1.671101e-07
     64     93   2   0.50000    -0.1200000    0.0600000   2.494471e-04  1.671101e-07
     90     67   2   0.50000     0.0600000   -0.1200000   2.494471e-04  1.671101e-07
     90     92   2   0.50000     0.0600000    0.0600000   6.128906e-05  1.496315e-08
     90     93   2   0.50000     0.0600000    0.0600000   6.128906e-05  1.496315e-08
     91     67   2   0.50000     0.0600000   -0.1200000   2.494471e-04  1.671101e-07
     91     92   2   0.50000     0.0600000    0.0600000   6.128906e-05  1.496315e-08
     91     93   2   0.50000     0.0600000    0.0600000   6.128906e-05  1.496315e-08
     65     68   2   0.50000    -0.1200000   -0.1200000   1.015252e-03  1.866303e-06
     65     94   2   0.50000    -0.1200000    0.0600000   2.494471e-04  1.671101e-07
     65     95   2   0.50000    -0.1200000    0.0600000   2.494471e-04  1.671101e-07
     92     68   2   0.50000     0.0600000   -0.1200000   2.494471e-04  1.671101e-07
     92     94   2   0.50000     0.0600000    0.0600000   6.128906e-05  1.496315e-08
     92     95   2   0.50000     0.0600000    0.0600000   6.128906e-05  1.496315e-08
     93     68   2   0.50000     0.0600000   -0.1200000   2.494471e-04  1.671101e-07
     93     94   2   0.50000     0.0600000    0.0600000   6.128906e-05  1.496315e-08
     93     95   2   0.50000     0.0600000    0.0600000   6.128906e-05  1.496315e-08
     66     69   2   0.50000    -0.1200000   -0.1200000   1.015252e-03  1.866303e-06
     66     96   2   0.50000    -0.1200000    0.0600000   2.494471e-04  1.671101e-07
     66     97   2   0.50000    -0.1200000    0.0600000   2.494471e-04  1.671101e-07
     94     69   2   0.50000     0.0600000   -0.1200000   2.494471e-04  1.671101e-07
     94     96   2   0.50000     0.0600000    0.0600000   6.128906e-05  1.496315e-08
     94     97   2   0.50000     0.0600000    0.0600000   6.128906e-05  1.496315e-08
     95     69   2   0.50000     0.0600000   -0.1200000   2.494471e-04  1.671101e-07
     95     96   2   0.50000     0.0600000    0.0600000   6.128906e-05  1.496315e-08
     95     97   2   0.50000     0.0600000    0.0600000   6.128906e-05  1.496315e-08
     67     70   2   0.50000    -0.1200000    0.5000000   1.575021e-03  3.561100e-06
     67     98   2   0.50000    -0.1200000    0.0600000   2.494471e-04  1.671101e-07
     67     99   2   0.50000    -0.1200000    0.0600000   2.494471e-04  1.671101e-07
     96     70   2   0.50000     0.0600000    0.5000000   3.869820e-04  3.188634e-07
     96     98   2   0.50000     0.0600000    0.0600000   6.128906e-05  1.496315e-08
     96     99   2   0.50000     0.0600000    0.0600000   6.128906e-05  1.496315e-08
     97     70   2   0.50000     0.0600000    0.5000000   3.869820e-04  3.188634e-07
     97     98   2   0.50000     0.0600000    0.0600000   6.128906e-05  1.496315e-08
     97     99   2   0.50000     0.0600000    0.0600000   6.128906e-05  1.496315e-08
     68     71   2   0.50000    -0.1200000   -0.5000000   1.095425e-03  1.218041e-06
     68     72   2   0.50000    -0.1200000   -0.5000000   1.304585e-03  1.920112e-06
     98     71   2   0.50000     0.0600000   -0.5000000   2.691455e-04  1.090642e-07
     98     72   2   0.50000     0.0600000   -0.5000000   3.205360e-04  1.719281e-07
     99     71   2   0.50000     0.0600000   -0.5000000   2.691455e-04  1.090642e-07
     99     72   2   0.50000     0.0600000   -0.5000000   3.205360e-04  1.719281e-07
     69     73   2   0.50000    -0.1200000    0.0800000   1.015252e-03  1.866303e-06
     69    100   2   0.50000    -0.1200000    0.3000000   1.995577e-06  1.069504e-11
     71     73   2   0.50000    -0.5000000    0.0800000   1.095425e-03  1.218041e-06
     71    100   2   0.50000    -0.5000000    0.3000000   2.153164e-06  6.980110e-12
     70     74   2   0.50000     0.5000000   -0.1200000   1.575021e-03  3.561100e-06
     70    101   2   0.50000     0.5000000    0.0600000   3.869820e-04  3.188634e-07
     70    102   2   0.50000     0.5000000    0.0600000   3.869820e-04  3.188634e-07
    100     74   2   0.50000     0.3000000   -0.1200000   1.995577e-06  1.069504e-11
    100    101   2   0.50000     0.3000000    0.0600000   4.903125e-07  9.576416e-13
    100    102   2   0.50000     0.3000000    0.0600000   4.903125e-07  9.576416e-13
     72     75   2   0.50000    -0.5000000   -0.1200000   1.304585e-03  1.920112e-06
     72    103   2   0.50000    -0.5000000    0.0600000   3.205360e-04  1.719281e-07
     72    104   2   0.50000    -0.5000000    0.0600000   3.205360e-04  1.719281e-07
    101     75   2   0.50000     0.0600000   -0.1200000   2.494471e-04  1.671101e-07
    101    103   2   0.50000     0.0600000    0.0600000   6.128906e-05  1.496315e-08
    101    104   2   0.50000     0.0600000    0.0600000   6.128906e-05  1.496315e-08
    102     75   2   0.50000     0.0600000   -0.1200000   2.494471e-04  1.671101e-07
    102    103   2   0.50000     0.0600000    0.0600000   6.128906e-05  1.496315e-08
    102    104   2   0.50000     0.0600000    0.0600000   6.128906e-05  1.496315e-08
     73     76   2   0.50000     0.0800000   -0.1200000   1.015252e-03  1.866303e-06
     73    105   2   0.50000     0.0800000    0.0600000   2.494471e-04  1.671101e-07
     73    106   2   0.50000     0.0800000    0.0600000   2.494471e-04  1.671101e-07
    103     76   2   0.50000     0.0600000   -0.1200000   2.494471e-04  1.671101e-07
    103    105   2   0.50000     0.0600000    0.0600000   6.128906e-05  1.496315e-08
    103    106   2   0.50000     0.0600000    0.0600000   6.128906e-05  1.496315e-08
    104     76   2   0.50000     0.0600000   -0.1200000   2.494471e-04  1.671101e-07
    104    105   2   0.50000     0.0600000    0.0600000   6.128906e-05  1.496315e-08
    104    106   2   0.50000     0.0600000    0.0600000   6.128906e-05  1.496315e-08
     74     77   2   0.50000    -0.1200000   -0.1200000   1.015252e-03  1.866303e-06
     74    107   2   0.50000    -0.1200000    0.0600000   2.494471e-04  1.671101e-07
     74    108   2   0.50000    -0.1200000    0.0600000   2.494471e-04  1.671101e-07
    105     77   2   0.50000     0.0600000   -0.1200000   2.494471e-04  1.671101e-07
    105    107   2   0.50000     0.0600000    0.0600000   6.128906e-05  1.496315e-08
    105    108   2   0.50000     0.0600000    0.0600000   6.128906e-05  1.496315e-08
    106     77   2   0.50000     0.0600000   -0.1200000   2.494471e-04  1.671101e-07
    106    107   2   0.50000     0.0600000    0.0600000   6.128906e-05  1.496315e-08
    106    108   2   0.50000     0.0600000    0.0600000   6.128906e-05  1.496315e-08
     75     78   2   0.50000    -0.1200000    0.0800000   1.015252e-03  1.866303e-06
     75    109   2   0.50000    -0.1200000    0.0600000   2.494471e-04  1.671101e-07
     75    110   2   0.50000    -0.1200000    0.0600000   2.494471e-04  1.671101e-07
    107     78   2   0.50000     0.0600000    0.0800000   2.494471e-04  1.671101e-07
    107    109   2   0.50000     0.0600000    0.0600000   6.128906e-05  1.496315e-08
    107    110   2   0.50000     0.0600000    0.0600000   6.128906e-05  1.496315e-08
    108     78   2   0.50000     0.0600000    0.0800000   2.494471e-04  1.671101e-07
    108    109   2   0.50000     0.0600000    0.0600000   6.128906e-05  1.496315e-08
    108    110   2   0.50000     0.0600000    0.0600000   6.128906e-05  1.496315e-08
     76     79   2   0.50000    -0.1200000   -0.5000000   1.304585e-03  1.920112e-06
     76    111   2   0.50000    -0.1200000    0.0600000   2.494471e-04  1.671101e-07
     76    112   2   0.50000    -0.1200000    0.0600000   2.494471e-04  1.671101e-07
    109     79   2   0.50000     0.0600000   -0.5000000   3.205360e-04  1.719281e-07
    109    111   2   0.50000     0.0600000    0.0600000   6.128906e-05  1.496315e-08
    109    112   2   0.50000     0.0600000    0.0600000   6.128906e-05  1.496315e-08
    110     79   2   0.50000     0.0600000   -0.5000000   3.205360e-04  1.719281e-07
    110    111   2   0.50000     0.0600000    0.0600000   6.128906e-05  1.496315e-08
    110    112   2   0.50000     0.0600000    0.0600000   6.128906e-05  1.496315e-08
     77    113   2   0.50000    -0.1200000    0.3000000   1.995577e-06  1.069504e-11
     77    114   2   0.50000    -0.1200000    0.5000000   1.575021e-03  3.561100e-06
    111    113   2   0.50000     0.0600000    0.3000000   4.903125e-07  9.576416e-13
    111    114   2   0.50000     0.0600000    0.5000000   3.869820e-04  3.188634e-07
    112    113   2   0.50000     0.0600000    0.3000000   4.903125e-07  9.576416e-13
    112    114   2   0.50000     0.0600000    0.5000000   3.869820e-04  3.188634e-07
     78    115   2   0.50000     0.0800000   -0.5000000   1.095425e-03  1.218041e-06
     78    116   2   0.50000     0.0800000   -0.1200000   1.015252e-03  1.866303e-06
    113    115   2   0.50000     0.3000000   -0.5000000   2.153164e-06  6.980110e-12
    113    116   2   0.50000     0.3000000   -0.1200000   1.995577e-06  1.069504e-11
     79    117   2   0.50000    -0.5000000   -0.1200000   1.304585e-03  1.920112e-06
     79    136   2   0.50000    -0.5000000    0.0600000   3.205360e-04  1.719281e-07
     79    137   2   0.50000    -0.5000000    0.0600000   3.205360e-04  1.719281e-07
    115    117   2   0.50000    -0.5000000   -0.1200000   1.095425e-03  1.218041e-06
    115    136   2   0.50000    -0.5000000    0.0600000   2.691455e-04  1.090642e-07
    115    137   2   0.50000    -0.5000000    0.0600000   2.691455e-04  1.090642e-07
    114    118   2   0.50000     0.5000000   -0.1200000   1.575021e-03  3.561100e-06
    114    138   2   0.50000     0.5000000    0.0600000   3.869820e-04  3.188634e-07
    114    139   2   0.50000     0.5000000    0.0600000   3.869820e-04  3.188634e-07
    136    118   2   0.50000     0.0600000   -0.1200000   2.494471e-04  1.671101e-07
    136    138   2   0.50000     0.0600000    0.0600000   6.128906e-05  1.496315e-08
    136    139   2   0.50000     0.0600000    0.0600000   6.128906e-05  1.496315e-08
    137    118   2   0.50000     0.0600000   -0.1200000   2.494471e-04  1.671101e-07
    137    138   2   0.50000     0.0600000    0.0600000   6.128906e-05  1.496315e-08
    137    139   2   0.50000     0.0600000    0.0600000   6.128906e-05  1.496315e-08
    116    119   2   0.50000    -0.1200000   -0.1200000   1.015252e-03  1.866303e-06
    116    140   2   0.50000    -0.1200000    0.0600000   2.494471e-04  1.671101e-07
    116    141   2   0.50000    -0.1200000    0.0600000   2.494471e-04  1.671101e-07
    138    119   2   0.50000     0.0600000   -0.1200000   2.494471e-04  1.671101e-07
    138    140   2   0.50000     0.0600000    0.0600000   6.128906e-05  1.496315e-08
    138    141   2   0.50000     0.0600000    0.0600000   6.128906e-05  1.496315e-08
    139    119   2   0.50000     0.0600000   -0.1200000   2.494471e-04  1.671101e-07
    139    140   2   0.50000     0.0600000    0.0600000   6.128906e-05  1.496315e-08
    139    141   2   0.50000     0.0600000    0.0600000   6.128906e-05  1.496315e-08
    117    120   2   0.50000    -0.1200000   -0.1200000   1.015252e-03  1.866303e-06
    117    142   2   0.50000    -0.1200000    0.0600000   2.494471e-04  1.671101e-07
    117    143   2   0.50000    -0.1200000    0.0600000   2.494471e-04  1.671101e-07
    140    120   2   0.50000     0.0600000   -0.1200000   2.494471e-04  1.671101e-07
    140    142   2   0.50000     0.0600000    0.0600000   6.128906e-05  1.496315e-08
    140    143   2   0.50000     0.0600000    0.0600000   6.128906e-05  1.496315e-08
    141    120   2   0.50000     0.0600000   -0.1200000   2.494471e-04  1.671101e-07
    141    142   2   0.50000     0.0600000    0.0600000   6.128906e-05  1.496315e-08
    141    143   2   0.50000     0.0600000    0.0600000   6.128906e-05  1.496315e-08
    118    121   2   0.50000    -0.1200000   -0.1200000   1.015252e-03  1.866303e-06
    118    144   2   0.50000    -0.1200000    0.0600000   2.494471e-04  1.671101e-07
    118    145   2   0.50000    -0.1200000    0.0600000   2.494471e-04  1.671101e-07
    142    121   2   0.50000     0.0600000   -0.1200000   2.494471e-04  1.671101e-07
    142    144   2   0.50000     0.0600000    0.0600000   6.128906e-05  1.496315e-08
    142    145   2   0.50000     0.0600000    0.0600000   6.128906e-05  1.496315e-08
    143    121   2   0.50000     0.0600000   -0.1200000   2.494471e-04  1.671101e-07
    143    144   2   0.50000     0.0600000    0.0600000   6.128906e-05  1.496315e-08
    143    145   2   0.50000     0.0600000    0.0600000   6.128906e-05  1.496315e-08
    119    122   2   0.50000    -0.1200000   -0.1200000   1.015252e-03  1.866303e-06
    119    146   2   0.50000    -0.1200000    0.0600000   2.494471e-04  1.671101e-07
    119    147   2   0.50000    -0.1200000    0.0600000   2.494471e-04  1.671101e-07
    144    122   2   0.50000     0.0600000   -0.1200000   2.494471e-04  1.671101e-07
    144    146   2   0.50000     0.0600000    0.0600000   6.128906e-05  1.496315e-08
    144    147   2   0.50000     0.0600000    0.0600000   6.128906e-05  1.496315e-08
    145    122   2   0.50000     0.0600000   -0.1200000   2.494471e-04  1.671101e-07
    145    146   2   0.50000     0.0600000    0.0600000   6.128906e-05  1.496315e-08
    145    147   2   0.50000     0.0600000    0.0600000   6.128906e-05  1.496315e-08
    120    123   2   0.50000    -0.1200000   -0.1200000   1.015252e-03  1.866303e-06
    120    148   2   0.50000    -0.1200000    0.0600000   2.494471e-04  1.671101e-07
    120    149   2   0.50000    -0.1200000    0.0600000   2.494471e-04  1.671101e-07
    146    123   2   0.50000     0.0600000   -0.1200000   2.494471e-04  1.671101e-07
    146    148   2   0.50000     0.0600000    0.0600000   6.128906e-05  1.496315e-08
    146    149   2   0.50000     0.0600000    0.0600000   6.128906e-05  1.496315e-08
    147    123   2   0.50000     0.0600000   -0.1200000   2.494471e-04  1.671101e-07
    147    148   2   0.50000     0.0600000    0.0600000   6.128906e-05  1.496315e-08
    147    149   2   0.50000     0.0600000    0.0600000   6.128906e-05  1.496315e-08
    121    124   2   0.50000    -0.1200000   -0.1200000   1.015252e-03  1.866303e-06
    121    150   2   0.50000    -0.1200000    0.0600000   2.494471e-04  1.671101e-07
    121    151   2   0.50000    -0.1200000    0.0600000   2.494471e-04  1.671101e-07
    148    124   2   0.50000     0.0600000   -0.1200000   2.494471e-04  1.671101e-07
    148    150   2   0.50000     0.0600000    0.0600000   6.128906e-05  1.496315e-08
    148    151   2   0.50000     0.0600000    0.0600000   6.128906e-05  1.496315e-08
    149    124   2   0.50000     0.0600000   -0.1200000   2.494471e-04  1.671101e-07
    149    150   2   0.50000     0.0600000    0.0600000   6.128906e-05  1.496315e-08
    149    151   2   0.50000     0.0600000    0.0600000   6.128906e-05  1.496315e-08
    122    125   2   0.50000    -0.1200000   -0.1200000   1.015252e-03  1.866303e-06
    122    152   2   0.50000    -0.1200000    0.0600000   2.494471e-04  1.671101e-07
    122    153   2   0.50000    -0.1200000    0.0600000   2.494471e-04  1.671101e-07
    150    125   2   0.50000     0.0600000   -0.1200000   2.494471e-04  1.671101e-07
    150    152   2   0.50000     0.0600000    0.0600000   6.128906e-05  1.496315e-08
    150    153   2   0.50000     0.0600000    0.0600000   6.128906e-05  1.496315e-08
    151    125   2   0.50000     0.0600000   -0.1200000   2.494471e-04  1.671101e-07
    151    152   2   0.50000     0.0600000    0.0600000   6.128906e-05  1.496315e-08
    151    153   2   0.50000     0.0600000    0.0600000   6.128906e-05  1.496315e-08
    123    126   2   0.50000    -0.1200000    0.5000000   1.575021e-03  3.561100e-06
    123    154   2   0.50000    -0.1200000    0.0600000   2.494471e-04  1.671101e-07
    123    155   2   0.50000    -0.1200000    0.0600000   2.494471e-04  1.671101e-07
    152    126   2   0.50000     0.0600000    0.5000000   3.869820e-04  3.188634e-07
    152    154   2   0.50000     0.0600000    0.0600000   6.128906e-05  1.496315e-08
    152    155   2   0.50000     0.0600000    0.0600000   6.128906e-05  1.496315e-08
    153    126   2   0.50000     0.0600000    0.5000000   3.869820e-04  3.188634e-07
    153    154   2   0.50000     0.0600000    0.0600000   6.128906e-05  1.496315e-08
    153    155   2   0.50000     0.0600000    0.0600000   6.128906e-05  1.496315e-08
    124    127   2   0.50000    -0.1200000   -0.5000000   1.095425e-03  1.218041e-06
    124    128   2   0.50000    -0.1200000   -0.5000000   1.304585e-03  1.920112e-06
    154    127   2   0.50000     0.0600000   -0.5000000   2.691455e-04  1.090642e-07
    154    128   2   0.50000     0.0600000   -0.5000000   3.205360e-04  1.719281e-07
    155    127   2   0.50000     0.0600000   -0.5000000   2.691455e-04  1.090642e-07
    155    128   2   0.50000     0.0600000   -0.5000000   3.205360e-04  1.719281e-07
    125    129   2   0.50000    -0.1200000    0.0800000   1.015252e-03  1.866303e-06
    125    156   2   0.50000    -0.1200000    0.3000000   1.995577e-06  1.069504e-11
    127    129   2   0.50000    -0.5000000    0.0800000   1.095425e-03  1.218041e-06
    127    156   2   0.50000    -0.5000000    0.3000000   2.153164e-06  6.980110e-12
    126    130   2   0.50000     0.5000000   -0.1200000   1.575021e-03  3.561100e-06
    126    157   2   0.50000     0.5000000    0.0600000   3.869820e-04  3.188634e-07
    126    158   2   0.50000     0.5000000    0.0600000   3.869820e-04  3.188634e-07
    156    130   2   0.50000     0.3000000   -0.1200000   1.995577e-06  1.069504e-11
    156    157   2   0.50000     0.3000000    0.0600000   4.903125e-07  9.576416e-13
    156    158   2   0.50000     0.3000000    0.0600000   4.903125e-07  9.576416e-13
    128    131   2   0.50000    -0.5000000   -0.1200000   1.304585e-03  1.920112e-06
    128    159   2   0.50000    -0.5000000    0.0600000   3.205360e-04  1.719281e-07
    128    160   2   0.50000    -0.5000000    0.0600000   3.205360e-04  1.719281e-07
    157    131   2   0.50000     0.0600000   -0.1200000   2.494471e-04  1.671101e-07
    157    159   2   0.50000     0.0600000    0.0600000   6.128906e-05  1.496315e-08
    157    160   2   0.50000     0.0600000    0.0600000   6.128906e-05  1.496315e-08
    158    131   2   0.50000     0.0600000   -0.1200000   2.494471e-04  1.671101e-07
    158    159   2   0.50000     0.0600000    0.0600000   6.128906e-05  1.496315e-08
    158    160   2   0.50000     0.0600000    0.0600000   6.128906e-05  1.496315e-08
    129    132   2   0.50000     0.0800000   -0.1200000   1.015252e-03  1.866303e-06
    129    161   2   0.50000     0.0800000    0.0600000   2.494471e-04  1.671101e-07
    129    162   2   0.50000     0.0800000    0.0600000   2.494471e-04  1.671101e-07
    159    132   2   0.50000     0.0600000   -0.1200000   2.494471e-04  1.671101e-07
    159    161   2   0.50000     0.0600000    0.0600000   6.128906e-05  1.496315e-08
    159    162   2   0.50000     0.0600000    0.0600000   6.128906e-05  1.496315e-08
    160    132   2   0.50000     0.0600000   -0.1200000   2.494471e-04  1.671101e-07
    160    161   2   0.50000     0.0600000    0.0600000   6.128906e-05  1.496315e-08
    160    162   2   0.50000     0.0600000    0.0600000   6.128906e-05  1.496315e-08
    130    133   2   0.50000    -0.1200000   -0.1200000   1.015252e-03  1.866303e-06
    130    163   2   0.50000    -0.1200000    0.0600000   2.494471e-04  1.671101e-07
    130    164   2   0.50000    -0.1200000    0.0600000   2.494471e-04  1.671101e-07
    161    133   2   0.50000     0.0600000   -0.1200000   2.494471e-04  1.671101e-07
    161    163   2   0.50000     0.0600000    0.0600000   6.128906e-05  1.496315e-08
    161    164   2   0.50000     0.0600000    0.0600000   6.128906e-05  1.496315e-08
    162    133   2   0.50000     0.0600000   -0.1200000   2.494471e-04  1.671101e-07
    162    163   2   0.50000     0.0600000    0.0600000   6.128906e-05  1.496315e-08
    162    164   2   0.50000     0.0600000    0.0600000   6.128906e-05  1.496315e-08
    131    134   2   0.50000    -0.1200000    0.0800000   1.015252e-03  1.866303e-06
    131    165   2   0.50000    -0.1200000    0.0600000   2.494471e-04  1.671101e-07
    131    166   2   0.50000    -0.1200000    0.0600000   2.494471e-04  1.671101e-07
    163    134   2   0.50000     0.0600000    0.0800000   2.494471e-04  1.671101e-07
    163    165   2   0.50000     0.0600000    0.0600000   6.128906e-05  1.496315e-08
    163    166   2   0.50000     0.0600000    0.0600000   6.128906e-05  1.496315e-08
    164    134   2   0.50000     0.0600000    0.0800000   2.494471e-04  1.671101e-07
    164    165   2   0.50000     0.0600000    0.0600000   6.128906e-05  1.496315e-08
    164    166   2   0.50000     0.0600000    0.0600000   6.128906e-05  1.496315e-08
    132    135   2   0.50000    -0.1200000   -0.5000000   1.304585e-03  1.920112e-06
    132    167   2   0.50000    -0.1200000    0.0600000   2.494471e-04  1.671101e-07
    132    168   2   0.50000    -0.1200000    0.0600000   2.494471e-04  1.671101e-07
    165    135   2   0.50000     0.0600000   -0.5000000   3.205360e-04  1.719281e-07
    165    167   2   0.50000     0.0600000    0.0600000   6.128906e-05  1.496315e-08
    165    168   2   0.50000     0.0600000    0.0600000   6.128906e-05  1.496315e-08
    166    135   2   0.50000     0.0600000   -0.5000000   3.205360e-04  1.719281e-07
    166    167   2   0.50000     0.0600000    0.0600000   6.128906e-05  1.496315e-08
    166    168   2   0.50000     0.0600000    0.0600000   6.128906e-05  1.496315e-08
    133    169   2   0.50000    -0.1200000    0.3000000   1.995577e-06  1.069504e-11
    133    170   2   0.50000    -0.1200000    0.5000000   1.575021e-03  3.561100e-06
    167    169   2   0.50000     0.0600000    0.3000000   4.903125e-07  9.576416e-13
    167    170   2   0.50000     0.0600000    0.5000000   3.869820e-04  3.188634e-07
    168    169   2   0.50000     0.0600000    0.3000000   4.903125e-07  9.576416e-13
    168    170   2   0.50000     0.0600000    0.5000000   3.869820e-04  3.188634e-07
    134    171   2   0.50000     0.0800000   -0.5000000   1.095425e-03  1.218041e-06
    134    172   2   0.50000     0.0800000   -0.1200000   1.015252e-03  1.866303e-06
    169    171   2   0.50000     0.3000000   -0.5000000   2.153164e-06  6.980110e-12
    169    172   2   0.50000     0.3000000   -0.1200000   1.995577e-06  1.069504e-11
    135    173   2   0.50000    -0.5000000   -0.1200000   1.304585e-03  1.920112e-06
    135    192   2   0.50000    -0.5000000    0.0600000   3.205360e-04  1.719281e-07
    135    193   2   0.50000    -0.5000000    0.0600000   3.205360e-04  1.719281e-07
    171    173   2   0.50000    -0.5000000   -0.1200000   1.095425e-03  1.218041e-06
    171    192   2   0.50000    -0.5000000    0.0600000   2.691455e-04  1.090642e-07
    171    193   2   0.50000    -0.5000000    0.0600000   2.691455e-04  1.090642e-07
    170    174   2   0.50000     0.5000000   -0.1200000   1.575021e-03  3.561100e-06
    170    194   2   0.50000     0.5000000    0.0600000   3.869820e-04  3.188634e-07
    170    195   2   0.50000     0.5000000    0.0600000   3.869820e-04  3.188634e-07
    192    174   2   0.50000     0.0600000   -0.1200000   2.494471e-04  1.671101e-07
    192    194   2   0.50000     0.0600000    0.0600000   6.128906e-05  1.496315e-08
    192    195   2   0.50000     0.0600000    0.0600000   6.128906e-05  1.496315e-08
    193    174   2   0.50000     0.0600000   -0.1200000   2.494471e-04  1.671101e-07
    193    194   2   0.50000     0.0600000    0.0600000   6.128906e-05  1.496315e-08
    193    195   2   0.50000     0.0600000    0.0600000   6.128906e-05  1.496315e-08
    172    175   2   0.50000    -0.1200000   -0.1200000   1.015252e-03  1.866303e-06
    172    196   2   0.50000    -0.1200000    0.0600000   2.494471e-04  1.671101e-07
    172    197   2   0.50000    -0.1200000    0.0600000   2.494471e-04  1.671101e-07
    194    175   2   0.50000     0.0600000   -0.1200000   2.494471e-04  1.671101e-07
    194    196   2   0.50000     0.0600000    0.0600000   6.128906e-05  1.496315e-08
    194    197   2   0.50000     0.0600000    0.0600000   6.128906e-05  1.496315e-08
    195    175   2   0.50000     0.0600000   -0.1200000   2.494471e-04  1.671101e-07
    195    196   2   0.50000     0.0600000    0.0600000   6.128906e-05  1.496315e-08
    195    197   2   0.50000     0.0600000    0.0600000   6.128906e-05  1.496315e-08
    173    176   2   0.50000    -0.1200000   -0.1200000   1.015252e-03  1.866303e-06
    173    198   2   0.50000    -0.1200000    0.0600000   2.494471e-04  1.671101e-07
    173    199   2   0.50000    -0.1200000    0.0600000   2.494471e-04  1.671101e-07
    196    176   2   0.50000     0.0600000   -0.1200000   2.494471e-04  1.671101e-07
    196    198   2   0.50000     0.0600000    0.0600000   6.128906e-05  1.496315e-08
    196    199   2   0.50000     0.0600000    0.0600000   6.128906e-05  1.496315e-08
    197    176   2   0.50000     0.0600000   -0.1200000   2.494471e-04  1.671101e-07
    197    198   2   0.50000     0.0600000    0.0600000   6.128906e-05  1.496315e-08
    197    199   2   0.50000     0.0600000    0.0600000   6.128906e-05  1.496315e-08
    174    177   2   0.50000    -0.1200000   -0.1200000   1.015252e-03  1.866303e-06
    174    200   2   0.50000    -0.1200000    0.0600000   2.494471e-04  1.671101e-07
    174    201   2   0.50000    -0.1200000    0.0600000   2.494471e-04  1.671101e-07
    198    177   2   0.50000     0.0600000   -0.1200000   2.494471e-04  1.671101e-07
    198    200   2   0.50000     0.0600000    0.0600000   6.128906e-05  1.496315e-08
    198    201   2   0.50000     0.0600000    0.0600000   6.128906e-05  1.496315e-08
    199    177   2   0.50000     0.0600000   -0.1200000   2.494471e-04  1.671101e-07
    199    200   2   0.50000     0.0600000    0.0600000   6.128906e-05  1.496315e-08
    199    201   2   0.50000     0.0600000    0.0600000   6.128906e-05  1.496315e-08
    175    178   2   0.50000    -0.1200000   -0.1200000   1.015252e-03  1.866303e-06
    175    202   2   0.50000    -0.1200000    0.0600000   2.494471e-04  1.671101e-07
    175    203   2   0.50000    -0.1200000    0.0600000   2.494471e-04  1.671101e-07
    200    178   2   0.50000     0.0600000   -0.1200000   2.494471e-04  1.671101e-07
    200    202   2   0.50000     0.0600000    0.0600000   6.128906e-05  1.496315e-08
    200    203   2   0.50000     0.0600000    0.0600000   6.128906e-05  1.496315e-08
    201    178   2   0.50000     0.0600000   -0.1200000   2.494471e-04  1.671101e-07
    201    202   2   0.50000     0.0600000    0.0600000   6.128906e-05  1.496315e-08
    201    203   2   0.50000     0.0600000    0.0600000   6.128906e-05  1.496315e-08
    176    179   2   0.50000    -0.1200000   -0.1200000   1.015252e-03  1.866303e-06
    176    204   2   0.50000    -0.1200000    0.0600000   2.494471e-04  1.671101e-07
    176    205   2   0.50000    -0.1200000    0.0600000   2.494471e-04  1.671101e-07
    202    179   2   0.50000     0.0600000   -0.1200000   2.494471e-04  1.671101e-07
    202    204   2   0.50000     0.0600000    0.0600000   6.128906e-05  1.496315e-08
    202    205   2   0.50000     0.0600000    0.0600000   6.128906e-05  1.496315e-08
    203    179   2   0.50000     0.0600000   -0.1200000   2.494471e-04  1.671101e-07
    203    204   2   0.50000     0.0600000    0.0600000   6.128906e-05  1.496315e-08
    203    205   2   0.50000     0.0600000    0.0600000   6.128906e-05  1.496315e-08
    177    180   2   0.50000    -0.1200000   -0.1200000   1.015252e-03  1.866303e-06
    177    206   2   0.50000    -0.1200000    0.0600000   2.494471e-04  1.671101e-07
    177    207   2   0.50000    -0.1200000    0.0600000   2.494471e-04  1.671101e-07
    204    180   2   0.50000     0.0600000   -0.1200000   2.494471e-04  1.671101e-07
    204    206   2   0.50000     0.0600000    0.0600000   6.128906e-05  1.496315e-08
    204    207   2   0.50000     0.0600000    0.0600000   6.128906e-05  1.496315e-08
    205    180   2   0.50000     0.0600000   -0.1200000   2.494471e-04  1.671101e-07
    205    206   2   0.50000     0.0600000    0.0600000   6.128906e-05  1.496315e-08
    205    207   2   0.50000     0.0600000    0.0600000   6.128906e-05  1.496315e-08
    178    181   2   0.50000    -0.1200000   -0.1200000   1.015252e-03  1.866303e-06
    178    208   2   0.50000    -0.1200000    0.0600000   2.494471e-04  1.671101e-07
    178    209   2   0.50000    -0.1200000    0.0600000   2.494471e-04  1.671101e-07
    206    181   2   0.50000     0.0600000   -0.1200000   2.494471e-04  1.671101e-07
    206    208   2   0.50000     0.0600000    0.0600000   6.128906e-05  1.496315e-08
    206    209   2   0.50000     0.0600000    0.0600000   6.128906e-05  1.496315e-08
    207    181   2   0.50000     0.0600000   -0.1200000   2.494471e-04  1.671101e-07
    207    208   2   0.50000     0.0600000    0.0600000   6.128906e-05  1.496315e-08
    207    209   2   0.50000     0.0600000    0.0600000   6.128906e-05  1.496315e-08
    179    182   2   0.50000    -0.1200000    0.5000000   1.575021e-03  3.561100e-06
    179    210   2   0.50000    -0.1200000    0.0600000   2.494471e-04  1.671101e-07
    179    211   2   0.50000    -0.1200000    0.0600000   2.494471e-04  1.671101e-07
    208    182   2   0.50000     0.0600000    0.5000000   3.869820e-04  3.188634e-07
    208    210   2   0.50000     0.0600000    0.0600000   6.128906e-05  1.496315e-08
    208    211   2   0.50000     0.0600000    0.0600000   6.128906e-05  1.496315e-08
    209    182   2   0.50000     0.0600000    0.5000000   3.869820e-04  3.188634e-07
    209    210   2   0.50000     0.0600000    0.0600000   6.128906e-05  1.496315e-08
    209    211   2   0.50000     0.0600000    0.0600000   6.128906e-05  1.496315e-08
    180    183   2   0.50000    -0.1200000   -0.5000000   1.095425e-03  1.218041e-06
    180    184   2   0.50000    -0.1200000   -0.5000000   1.304585e-03  1.920112e-06
    210    183   2   0.50000     0.0600000   -0.5000000   2.691455e-04  1.090642e-07
    210    184   2   0.50000     0.0600000   -0.5000000   3.205360e-04  1.719281e-07
    211    183   2   0.50000     0.0600000   -0.5000000   2.691455e-04  1.090642e-07
    211    184   2   0.50000     0.0600000   -0.5000000   3.205360e-04  1.719281e-07
    181    185   2   0.50000    -0.1200000    0.0800000   1.015252e-03  1.866303e-06
    181    212   2   0.50000    -0.1200000    0.3000000   1.995577e-06  1.069504e-11
    183    185   2   0.50000    -0.5000000    0.0800000   1.095425e-03  1.218041e-06
    183    212   2   0.50000    -0.5000000    0.3000000   2.153164e-06  6.980110e-12
    182    186   2   0.50000     0.5000000   -0.1200000   1.575021e-03  3.561100e-06
    182    213   2   0.50000     0.5000000    0.0600000   3.869820e-04  3.188634e-07
    182    214   2   0.50000     0.5000000    0.0600000   3.869820e-04  3.188634e-07
    212    186   2   0.50000     0.3000000   -0.1200000   1.995577e-06  1.069504e-11
    212    213   2   0.50000     0.3000000    0.0600000   4.903125e-07  9.576416e-13
    212    214   2   0.50000     0.3000000    0.0600000   4.903125e-07  9.576416e-13
    184    187   2   0.50000    -0.5000000   -0.1200000   1.304585e-03  1.920112e-06
    184    215   2   0.50000    -0.5000000    0.0600000   3.205360e-04  1.719281e-07
    184    216   2   0.50000    -0.5000000    0.0600000   3.205360e-04  1.719281e-07
    213    187   2   0.50000     0.0600000   -0.1200000   2.494471e-04  1.671101e-07
    213    215   2   0.50000     0.0600000    0.0600000   6.128906e-05  1.496315e-08
    213    216   2   0.50000     0.0600000    0.0600000   6.128906e-05  1.496315e-08
    214    187   2   0.50000     0.0600000   -0.1200000   2.494471e-04  1.671101e-07
    214    215   2   0.50000     0.0600000    0.0600000   6.128906e-05  1.496315e-08
    214    216   2   0.50000     0.0600000    0.0600000   6.128906e-05  1.496315e-08
    185    188   2   0.50000     0.0800000   -0.1200000   1.015252e-03  1.866303e-06
    185    217   2   0.50000     0.0800000    0.0600000   2.494471e-04  1.671101e-07
    185    218   2   0.50000     0.0800000    0.0600000   2.494471e-04  1.671101e-07
    215    188   2   0.50000     0.0600000   -0.1200000   2.494471e-04  1.671101e-07
    215    217   2   0.50000     0.0600000    0.0600000   6.128906e-05  1.496315e-08
    215    218   2   0.50000     0.0600000    0.0600000   6.128906e-05  1.496315e-08
    216    188   2   0.50000     0.0600000   -0.1200000   2.494471e-04  1.671101e-07
    216    217   2   0.50000     0.0600000    0.0600000   6.128906e-05  1.496315e-08
    216    218   2   0.50000     0.0600000    0.0600000   6.128906e-05  1.496315e-08
    186    189   2   0.50000    -0.1200000   -0.1200000   1.015252e-03  1.866303e-06
    186    219   2   0.50000    -0.1200000    0.0600000   2.494471e-04  1.671101e-07
    186    220   2   0.50000    -0.1200000    0.0600000   2.494471e-04  1.671101e-07
    217    189   2   0.50000     0.0600000   -0.1200000   2.494471e-04  1.671101e-07
    217    219   2   0.50000     0.0600000    0.0600000   6.128906e-05  1.496315e-08
    217    220   2   0.50000     0.0600000    0.0600000   6.128906e-05  1.496315e-08
    218    189   2   0.50000     0.0600000   -0.1200000   2.494471e-04  1.671101e-07
    218    219   2   0.50000     0.0600000    0.0600000   6.128906e-05  1.496315e-08
    218    220   2   0.50000     0.0600000    0.0600000   6.128906e-05  1.496315e-08
    187    190   2   0.50000    -0.1200000    0.0800000   1.015252e-03  1.866303e-06
    187    221   2   0.50000    -0.1200000    0.0600000   2.494471e-04  1.671101e-07
    187    222   2   0.50000    -0.1200000    0.0600000   2.494471e-04  1.671101e-07
    219    190   2   0.50000     0.0600000    0.0800000   2.494471e-04  1.671101e-07
    219    221   2   0.50000     0.0600000    0.0600000   6.128906e-05  1.496315e-08
    219    222   2   0.50000     0.0600000    0.0600000   6.128906e-05  1.496315e-08
    220    190   2   0.50000     0.0600000    0.0800000   2.494471e-04  1.671101e-07
    220    221   2   0.50000     0.0600000    0.0600000   6.128906e-05  1.496315e-08
    220    222   2   0.50000     0.0600000    0.0600000   6.128906e-05  1.496315e-08
    188    191   2   0.50000    -0.1200000   -0.5000000   1.304585e-03  1.920112e-06
    188    223   2   0.50000    -0.1200000    0.0600000   2.494471e-04  1.671101e-07
    188    224   2   0.50000    -0.1200000    0.0600000   2.494471e-04  1.671101e-07
    221    191   2   0.50000     0.0600000   -0.5000000   3.205360e-04  1.719281e-07
    221    223   2   0.50000     0.0600000    0.0600000   6.128906e-05  1.496315e-08
    221    224   2   0.50000     0.0600000    0.0600000   6.128906e-05  1.496315e-08
    222    191   2   0.50000     0.0600000   -0.5000000   3.205360e-04  1.719281e-07
    222    223   2   0.50000     0.0600000    0.0600000   6.128906e-05  1.496315e-08
    222    224   2   0.50000     0.0600000    0.0600000   6.128906e-05  1.496315e-08
    189    225   2   0.50000    -0.1200000    0.3000000   1.995577e-06  1.069504e-11
    189    226   2   0.50000    -0.1200000    0.5000000   1.575021e-03  3.561100e-06
    223    225   2   0.50000     0.0600000    0.3000000   4.903125e-07  9.576416e-13
    223    226   2   0.50000     0.0600000    0.5000000   3.869820e-04  3.188634e-07
    224    225   2   0.50000     0.0600000    0.3000000   4.903125e-07  9.576416e-13
    224    226   2   0.50000     0.0600000    0.5000000   3.869820e-04  3.188634e-07
    190    227   2   0.50000     0.0800000   -0.5000000   1.095425e-03  1.218041e-06
    190    228   2   0.50000     0.0800000   -0.1200000   1.015252e-03  1.866303e-06
    225    227   2   0.50000     0.3000000   -0.5000000   2.153164e-06  6.980110e-12
    225    228   2   0.50000     0.3000000   -0.1200000   1.995577e-06  1.069504e-11
    191    229   2   0.50000    -0.5000000   -0.1200000   1.304585e-03  1.920112e-06
    191    248   2   0.50000    -0.5000000    0.0600000   3.205360e-04  1.719281e-07
    191    249   2   0.50000    -0.5000000    0.0600000   3.205360e-04  1.719281e-07
    227    229   2   0.50000    -0.5000000   -0.1200000   1.095425e-03  1.218041e-06
    227    248   2   0.50000    -0.5000000    0.0600000   2.691455e-04  1.090642e-07
    227    249   2   0.50000    -0.5000000    0.0600000   2.691455e-04  1.090642e-07
    226    230   2   0.50000     0.5000000   -0.1200000   1.575021e-03  3.561100e-06
    226    250   2   0.50000     0.5000000    0.0600000   3.869820e-04  3.188634e-07
    226    251   2   0.50000     0.5000000    0.0600000   3.869820e-04  3.188634e-07
    248    230   2   0.50000     0.0600000   -0.1200000   2.494471e-04  1.671101e-07
    248    250   2   0.50000     0.0600000    0.0600000   6.128906e-05  1.496315e-08
    248    251   2   0.50000     0.0600000    0.0600000   6.128906e-05  1.496315e-08
    249    230   2   0.50000     0.0600000   -0.1200000   2.494471e-04  1.671101e-07
    249    250   2   0.50000     0.0600000    0.0600000   6.128906e-05  1.496315e-08
    249    251   2   0.50000     0.0600000    0.0600000   6.128906e-05  1.496315e-08
    228    231   2   0.50000    -0.1200000   -0.1200000   1.015252e-03  1.866303e-06
    228    252   2   0.50000    -0.1200000    0.0600000   2.494471e-04  1.671101e-07
    228    253   2   0.50000    -0.1200000    0.0600000   2.494471e-04  1.671101e-07
    250    231   2   0.50000     0.0600000   -0.1200000   2.494471e-04  1.671101e-07
    250    252   2   0.50000     0.0600000    0.0600000   6.128906e-05  1.496315e-08
    250    253   2   0.50000     0.0600000    0.0600000   6.128906e-05  1.496315e-08
    251    231   2   0.50000     0.0600000   -0.1200000   2.494471e-04  1.671101e-07
    251    252   2   0.50000     0.0600000    0.0600000   6.128906e-05  1.496315e-08
    251    253   2   0.50000     0.0600000    0.0600000   6.128906e-05  1.496315e-08
    229    232   2   0.50000    -0.1200000   -0.1200000   1.015252e-03  1.866303e-06
    229    254   2   0.50000    -0.1200000    0.0600000   2.494471e-04  1.671101e-07
    229    255   2   0.50000    -0.1200000    0.0600000   2.494471e-04  1.671101e-07
    252    232   2   0.50000     0.0600000   -0.1200000   2.494471e-04  1.671101e-07
    252    254   2   0.50000     0.0600000    0.0600000   6.128906e-05  1.496315e-08
    252    255   2   0.50000     0.0600000    0.0600000   6.128906e-05  1.496315e-08
    253    232   2   0.50000     0.0600000   -0.1200000   2.494471e-04  1.671101e-07
    253    254   2   0.50000     0.0600000    0.0600000   6.128906e-05  1.496315e-08
    253    255   2   0.50000     0.0600000    0.0600000   6.128906e-05  1.496315e-08
    230    233   2   0.50000    -0.1200000   -0.1200000   1.015252e-03  1.866303e-06
    230    256   2   0.50000    -0.1200000    0.0600000   2.494471e-04  1.671101e-07
    230    257   2   0.50000    -0.1200000    0.0600000   2.494471e-04  1.671101e-07
    254    233   2   0.50000     0.0600000   -0.1200000   2.494471e-04  1.671101e-07
    254    256   2   0.50000     0.0600000    0.0600000   6.128906e-05  1.496315e-08
    254    257   2   0.50000     0.0600000    0.0600000   6.128906e-05  1.496315e-08
    255    233   2   0.50000     0.0600000   -0.1200000   2.494471e-04  1.671101e-07
    255    256   2   0.50000     0.0600000    0.0600000   6.128906e-05  1.496315e-08
    255    257   2   0.50000     0.0600000    0.0600000   6.128906e-05  1.496315e-08
    231    234   2   0.50000    -0.1200000   -0.1200000   1.015252e-03  1.866303e-06
    231    258   2   0.50000    -0.1200000    0.0600000   2.494471e-04  1.671101e-07
    231    259   2   0.50000    -0.1200000    0.0600000   2.494471e-04  1.671101e-07
    256    234   2   0.50000     0.0600000   -0.1200000   2.494471e-04  1.671101e-07
    256    258   2   0.50000     0.0600000    0.0600000   6.128906e-05  1.496315e-08
    256    259   2   0.50000     0.0600000    0.0600000   6.128906e-05  1.496315e-08
    257    234   2   0.50000     0.0600000   -0.1200000   2.494471e-04  1.671101e-07
    257    258   2   0.50000     0.0600000    0.0600000   6.128906e-05  1.496315e-08
    257    259   2   0.50000     0.0600000    0.0600000   6.128906e-05  1.496315e-08
    232    235   2   0.50000    -0.1200000   -0.1200000   1.015252e-03  1.866303e-06
    232    260   2   0.50000    -0.1200000    0.0600000   2.494471e-04  1.671101e-07
    232    261   2   0.50000    -0.1200000    0.0600000   2.494471e-04  1.671101e-07
    258    235   2   0.50000     0.0600000   -0.1200000   2.494471e-04  1.671101e-07
    258    260   2   0.50000     0.0600000    0.0600000   6.128906e-05  1.496315e-08
    258    261   2   0.50000     0.0600000    0.0600000   6.128906e-05  1.496315e-08
    259    235   2   0.50000     0.0600000   -0.1200000   2.494471e-04  1.671101e-07
    259    260   2   0.50000     0.0600000    0.0600000   6.128906e-05  1.496315e-08
    259    261   2   0.50000     0.0600000    0.0600000   6.128906e-05  1.496315e-08
    233    236   2   0.50000    -0.1200000   -0.1200000   1.015252e-03  1.866303e-06
    233    262   2   0.50000    -0.1200000    0.0600000   2.494471e-04  1.671101e-07
    233    263   2   0.50000    -0.1200000    0.0600000   2.494471e-04  1.671101e-07
    260    236   2   0.50000     0.0600000   -0.1200000   2.494471e-04  1.671101e-07
    260    262   2   0.50000     0.0600000    0.0600000   6.128906e-05  1.496315e-08
    260    263   2   0.50000     0.0600000    0.0600000   6.128906e-05  1.496315e-08
    261    236   2   0.50000     0.0600000   -0.1200000   2.494471e-04  1.671101e-07
    261    262   2   0.50000     0.0600000    0.0600000   6.128906e-05  1.496315e-08
    261    263   2   0.50000     0.0600000    0.0600000   6.128906e-05  1.496315e-08
    234    237   2   0.50000    -0.1200000   -0.1200000   1.015252e-03  1.866303e-06
    234    264   2   0.50000    -0.1200000    0.0600000   2.494471e-04  1.671101e-07
    234    265   2   0.50000    -0.1200000    0.0600000   2.494471e-04  1.671101e-07
    262    237   2   0.50000     0.0600000   -0.1200000   2.494471e-04  1.671101e-07
    262    264   2   0.50000     0.0600000    0.0600000   6.128906e-05  1.496315e-08
    262    265   2   0.50000     0.0600000    0.0600000   6.128906e-05  1.496315e-08
    263    237   2   0.50000     0.0600000   -0.1200000   2.494471e-04  1.671101e-07
    263    264   2   0.50000     0.0600000    0.0600000   6.128906e-05  1.496315e-08
    263    265   2   0.50000     0.0600000    0.0600000   6.128906e-05  1.496315e-08
    235    238   2   0.50000    -0.1200000    0.5000000   1.575021e-03  3.561100e-06
    235    266   2   0.50000    -0.1200000    0.0600000   2.494471e-04  1.671101e-07
    235    267   2   0.50000    -0.1200000    0.0600000   2.494471e-04  1.671101e-07
    264    238   2   0.50000     0.0600000    0.5000000   3.869820e-04  3.188634e-07
    264    266   2   0.50000     0.0600000    0.0600000   6.128906e-05  1.496315e-08
    264    267   2   0.50000     0.0600000    0.0600000   6.128906e-05  1.496315e-08
    265    238   2   0.50000     0.0600000    0.5000000   3.869820e-04  3.188634e-07
    265    266   2   0.50000     0.0600000    0.0600000   6.128906e-05  1.496315e-08
    265    267   2   0.50000     0.0600000    0.0600000   6.128906e-05  1.496315e-08
    236    239   2   0.50000    -0.1200000   -0.5000000   1.095425e-03  1.218041e-06
    236    240   2   0.50000    -0.1200000   -0.5000000   1.304585e-03  1.920112e-06
    266    239   2   0.50000     0.0600000   -0.5000000   2.691455e-04  1.090642e-07
    266    240   2   0.50000     0.0600000   -0.5000000   3.205360e-04  1.719281e-07
    267    239   2   0.50000     0.0600000   -0.5000000   2.691455e-04  1.090642e-07
    267    240   2   0.50000     0.0600000   -0.5000000   3.205360e-04  1.719281e-07
    237    241   2   0.50000    -0.1200000    0.0800000   1.015252e-03  1.866303e-06
    237    268   2   0.50000    -0.1200000    0.3000000   1.995577e-06  1.069504e-11
    239    241   2   0.50000    -0.5000000    0.0800000   1.095425e-03  1.218041e-06
    239    268   2   0.50000    -0.5000000    0.3000000   2.153164e-06  6.980110e-12
    238    242   2   0.50000     0.5000000   -0.1200000   1.575021e-03  3.561100e-06
    238    269   2   0.50000     0.5000000    0.0600000   3.869820e-04  3.188634e-07
    238    270   2   0.50000     0.5000000    0.0600000   3.869820e-04  3.188634e-07
    268    242   2   0.50000     0.3000000   -0.1200000   1.995577e-06  1.069504e-11
    268    269   2   0.50000     0.3000000    0.0600000   4.903125e-07  9.576416e-13
    268    270   2   0.50000     0.3000000    0.0600000   4.903125e-07  9.576416e-13
    240    243   2   0.50000    -0.5000000   -0.1200000   1.304585e-03  1.920112e-06
    240    271   2   0.50000    -0.5000000    0.0600000   3.205360e-04  1.719281e-07
    240    272   2   0.50000    -0.5000000    0.0600000   3.205360e-04  1.719281e-07
    269    243   2   0.50000     0.0600000   -0.1200000   2.494471e-04  1.671101e-07
    269    271   2   0.50000     0.0600000    0.0600000   6.128906e-05  1.496315e-08
    269    272   2   0.50000     0.0600000    0.0600000   6.128906e-05  1.496315e-08
    270    243   2   0.50000     0.0600000   -0.1200000   2.494471e-04  1.671101e-07
    270    271   2   0.50000     0.0600000    0.0600000   6.128906e-05  1.496315e-08
    270    272   2   0.50000     0.0600000    0.0600000   6.128906e-05  1.496315e-08
    241    244   2   0.50000     0.0800000   -0.1200000   1.015252e-03  1.866303e-06
    241    273   2   0.50000     0.0800000    0.0600000   2.494471e-04  1.671101e-07
    241    274   2   0.50000     0.0800000    0.0600000   2.494471e-04  1.671101e-07
    271    244   2   0.50000     0.0600000   -0.1200000   2.494471e-04  1.671101e-07
    271    273   2   0.50000     0.0600000    0.0600000   6.128906e-05  1.496315e-08
    271    274   2   0.50000     0.0600000    0.0600000   6.128906e-05  1.496315e-08
    272    244   2   0.50000     0.0600000   -0.1200000   2.494471e-04  1.671101e-07
    272    273   2   0.50000     0.0600000    0.0600000   6.128906e-05  1.496315e-08
    272    274   2   0.50000     0.0600000    0.0600000   6.128906e-05  1.496315e-08
    242    245   2   0.50000    -0.1200000   -0.1200000   1.015252e-03  1.866303e-06
    242    275   2   0.50000    -0.1200000    0.0600000   2.494471e-04  1.671101e-07
    242    276   2   0.50000    -0.1200000    0.0600000   2.494471e-04  1.671101e-07
    273    245   2   0.50000     0.0600000   -0.1200000   2.494471e-04  1.671101e-07
    273    275   2   0.50000     0.0600000    0.0600000   6.128906e-05  1.496315e-08
    273    276   2   0.50000     0.0600000    0.0600000   6.128906e-05  1.496315e-08
    274    245   2   0.50000     0.0600000   -0.1200000   2.494471e-04  1.671101e-07
    274    275   2   0.50000     0.0600000    0.0600000   6.128906e-05  1.496315e-08
    274    276   2   0.50000     0.0600000    0.0600000   6.128906e-05  1.496315e-08
    243    246   2   0.50000    -0.1200000    0.0800000   1.015252e-03  1.866303e-06
    243    277   2   0.50000    -0.1200000    0.0600000   2.494471e-04  1.671101e-07
    243    278   2   0.50000    -0.1200000    0.0600000   2.494471e-04  1.671101e-07
    275    246   2   0.50000     0.0600000    0.0800000   2.494471e-04  1.671101e-07
    275    277   2   0.50000     0.0600000    0.0600000   6.128906e-05  1.496315e-08
    275    278   2   0.50000     0.0600000    0.0600000   6.128906e-05  1.496315e-08
    276    246   2   0.50000     0.0600000    0.0800000   2.494471e-04  1.671101e-07
    276    277   2   0.50000     0.0600000    0.0600000   6.128906e-05  1.496315e-08
    276    278   2   0.50000     0.0600000    0.0600000   6.128906e-05  1.496315e-08
    244    247   2   0.50000    -0.1200000   -0.5000000   1.304585e-03  1.920112e-06
    244    279   2   0.50000    -0.1200000    0.0600000   2.494471e-04  1.671101e-07
    244    280   2   0.50000    -0.1200000    0.0600000   2.494471e-04  1.671101e-07
    277    247   2   0.50000     0.0600000   -0.5000000   3.205360e-04  1.719281e-07
    277    279   2   0.50000     0.0600000    0.0600000   6.128906e-05  1.496315e-08
    277    280   2   0.50000     0.0600000    0.0600000   6.128906e-05  1.496315e-08
    278    247   2   0.50000     0.0600000   -0.5000000   3.205360e-04  1.719281e-07
    278    279   2   0.50000     0.0600000    0.0600000   6.128906e-05  1.496315e-08
    278    280   2   0.50000     0.0600000    0.0600000   6.128906e-05  1.496315e-08
    245    281   2   0.50000    -0.1200000    0.3000000   1.995577e-06  1.069504e-11
    245    282   2   0.50000    -0.1200000    0.5000000   1.575021e-03  3.561100e-06
    279    281   2   0.50000     0.0600000    0.3000000   4.903125e-07  9.576416e-13
    279    282   2   0.50000     0.0600000    0.5000000   3.869820e-04  3.188634e-07
    280    281   2   0.50000     0.0600000    0.3000000   4.903125e-07  9.576416e-13
    280    282   2   0.50000     0.0600000    0.5000000   3.869820e-04  3.188634e-07
    246    283   2   0.50000     0.0800000   -0.5000000   1.095425e-03  1.218041e-06
    246    284   2   0.50000     0.0800000   -0.1200000   1.015252e-03  1.866303e-06
    281    283   2   0.50000     0.3000000   -0.5000000   2.153164e-06  6.980110e-12
    281    284   2   0.50000     0.3000000   -0.1200000   1.995577e-06  1.069504e-11
    247    285   2   0.50000    -0.5000000   -0.1200000   1.304585e-03  1.920112e-06
    247    304   2   0.50000    -0.5000000    0.0600000   3.205360e-04  1.719281e-07
    247    305   2   0.50000    -0.5000000    0.0600000   3.205360e-04  1.719281e-07
    283    285   2   0.50000    -0.5000000   -0.1200000   1.095425e-03  1.218041e-06
    283    304   2   0.50000    -0.5000000    0.0600000   2.691455e-04  1.090642e-07
    283    305   2   0.50000    -0.5000000    0.0600000   2.691455e-04  1.090642e-07
    282    286   2   0.50000     0.5000000   -0.1200000   1.575021e-03  3.561100e-06
    282    306   2   0.50000     0.5000000    0.0600000   3.869820e-04  3.188634e-07
    282    307   2   0.50000     0.5000000    0.0600000   3.869820e-04  3.188634e-07
    304    286   2   0.50000     0.0600000   -0.1200000   2.494471e-04  1.671101e-07
    304    306   2   0.50000     0.0600000    0.0600000   6.128906e-05  1.496315e-08
    304    307   2   0.50000     0.0600000    0.0600000   6.128906e-05  1.496315e-08
    305    286   2   0.50000     0.0600000   -0.1200000   2.494471e-04  1.671101e-07
    305    306   2   0.50000     0.0600000    0.0600000   6.128906e-05  1.496315e-08
    305    307   2   0.50000     0.0600000    0.0600000   6.128906e-05  1.496315e-08
    284    287   2   0.50000    -0.1200000   -0.1200000   1.015252e-03  1.866303e-06
    284    308   2   0.50000    -0.1200000    0.0600000   2.494471e-04  1.671101e-07
    284    309   2   0.50000    -0.1200000    0.0600000   2.494471e-04  1.671101e-07
    306    287   2   0.50000     0.0600000   -0.1200000   2.494471e-04  1.671101e-07
    306    308   2   0.50000     0.0600000    0.0600000   6.128906e-05  1.496315e-08
    306    309   2   0.50000     0.0600000    0.0600000   6.128906e-05  1.496315e-08
    307    287   2   0.50000     0.0600000   -0.1200000   2.494471e-04  1.671101e-07
    307    308   2   0.50000     0.0600000    0.0600000   6.128906e-05  1.496315e-08
    307    309   2   0.50000     0.0600000    0.0600000   6.128906e-05  1.496315e-08
    285    288   2   0.50000    -0.1200000   -0.1200000   1.015252e-03  1.866303e-06
    285    310   2   0.50000    -0.1200000    0.0600000   2.494471e-04  1.671101e-07
    285    311   2   0.50000    -0.1200000    0.0600000   2.494471e-04  1.671101e-07
    308    288   2   0.50000     0.0600000   -0.1200000   2.494471e-04  1.671101e-07
    308    310   2   0.50000     0.0600000    0.0600000   6.128906e-05  1.496315e-08
    308    311   2   0.50000     0.0600000    0.0600000   6.128906e-05  1.496315e-08
    309    288   2   0.50000     0.0600000   -0.1200000   2.494471e-04  1.671101e-07
    309    310   2   0.50000     0.0600000    0.0600000   6.128906e-05  1.496315e-08
    309    311   2   0.50000     0.0600000    0.0600000   6.128906e-05  1.496315e-08
    286    289   2   0.50000    -0.1200000   -0.1200000   1.015252e-03  1.866303e-06
    286    312   2   0.50000    -0.1200000    0.0600000   2.494471e-04  1.671101e-07
    286    313   2   0.50000    -0.1200000    0.0600000   2.494471e-04  1.671101e-07
    310    289   2   0.50000     0.0600000   -0.1200000   2.494471e-04  1.671101e-07
    310    312   2   0.50000     0.0600000    0.0600000   6.128906e-05  1.496315e-08
    310    313   2   0.50000     0.0600000    0.0600000   6.128906e-05  1.496315e-08
    311    289   2   0.50000     0.0600000   -0.1200000   2.494471e-04  1.671101e-07
    311    312   2   0.50000     0.0600000    0.0600000   6.128906e-05  1.496315e-08
    311    313   2   0.50000     0.0600000    0.0600000   6.128906e-05  1.496315e-08
    287    290   2   0.50000    -0.1200000   -0.1200000   1.015252e-03  1.866303e-06
    287    314   2   0.50000    -0.1200000    0.0600000   2.494471e-04  1.671101e-07
    287    315   2   0.50000    -0.1200000    0.0600000   2.494471e-04  1.671101e-07
    312    290   2   0.50000     0.0600000   -0.1200000   2.494471e-04  1.671101e-07
    312    314   2   0.50000     0.0600000    0.0600000   6.128906e-05  1.496315e-08
    312    315   2   0.50000     0.0600000    0.0600000   6.128906e-05  1.496315e-08
    313    290   2   0.50000     0.0600000   -0.1200000   2.494471e-04  1.671101e-07
    313    314   2   0.50000     0.0600000    0.0600000   6.128906e-05  1.496315e-08
    313    315   2   0.50000     0.0600000    0.0600000   6.128906e-05  1.496315e-08
    288    291   2   0.50000    -0.1200000   -0.1200000   1.015252e-03  1.866303e-06
    288    316   2   0.50000    -0.1200000    0.0600000   2.494471e-04  1.671101e-07
    288    317   2   0.50000    -0.1200000    0.0600000   2.494471e-04  1.671101e-07
    314    291   2   0.50000     0.0600000   -0.1200000   2.494471e-04  1.671101e-07
    314    316   2   0.50000     0.0600000    0.0600000   6.128906e-05  1.496315e-08
    314    317   2   0.50000     0.0600000    0.0600000   6.128906e-05  1.496315e-08
    315    291   2   0.50000     0.0600000   -0.1200000   2.494471e-04  1.671101e-07
    315    316   2   0.50000     0.0600000    0.0600000   6.128906e-05  1.496315e-08
    315    317   2   0.50000     0.0600000    0.0600000   6.128906e-05  1.496315e-08
    289    292   2   0.50000    -0.1200000   -0.1200000   1.015252e-03  1.866303e-06
    289    318   2   0.50000    -0.1200000    0.0600000   2.494471e-04  1.671101e-07
    289    319   2   0.50000    -0.1200000    0.0600000   2.494471e-04  1.671101e-07
    316    292   2   0.50000     0.0600000   -0.1200000   2.494471e-04  1.671101e-07
    316    318   2   0.50000     0.0600000    0.0600000   6.128906e-05  1.496315e-08
    316    319   2   0.50000     0.0600000    0.0600000   6.128906e-05  1.496315e-08
    317    292   2   0.50000     0.0600000   -0.1200000   2.494471e-04  1.671101e-07
    317    318   2   0.50000     0.0600000    0.0600000   6.128906e-05  1.496315e-08
    317    319   2   0.50000     0.0600000    0.0600000   6.128906e-05  1.496315e-08
    290    293   2   0.50000    -0.1200000   -0.1200000   1.015252e-03  1.866303e-06
    290    320   2   0.50000    -0.1200000    0.0600000   2.494471e-04  1.671101e-07
    290    321   2   0.50000    -0.1200000    0.0600000   2.494471e-04  1.671101e-07
    318    293   2   0.50000     0.0600000   -0.1200000   2.494471e-04  1.671101e-07
    318    320   2   0.50000     0.0600000    0.0600000   6.128906e-05  1.496315e-08
    318    321   2   0.50000     0.0600000    0.0600000   6.128906e-05  1.496315e-08
    319    293   2   0.50000     0.0600000   -0.1200000   2.494471e-04  1.671101e-07
    319    320   2   0.50000     0.0600000    0.0600000   6.128906e-05  1.496315e-08
    319    321   2   0.50000     0.0600000    0.0600000   6.128906e-05  1.496315e-08
    291    294   2   0.50000    -0.1200000    0.5000000   1.575021e-03  3.561100e-06
    291    322   2   0.50000    -0.1200000    0.0600000   2.494471e-04  1.671101e-07
    291    323   2   0.50000    -0.1200000    0.0600000   2.494471e-04  1.671101e-07
    320    294   2   0.50000     0.0600000    0.5000000   3.869820e-04  3.188634e-07
    320    322   2   0.50000     0.0600000    0.0600000   6.128906e-05  1.496315e-08
    320    323   2   0.50000     0.0600000    0.0600000   6.128906e-05  1.496315e-08
    321    294   2   0.50000     0.0600000    0.5000000   3.869820e-04  3.188634e-07
    321    322   2   0.50000     0.0600000    0.0600000   6.128906e-05  1.496315e-08
    321    323   2   0.50000     0.0600000    0.0600000   6.128906e-05  1.496315e-08
    292    295   2   0.50000    -0.1200000   -0.5000000   1.095425e-03  1.218041e-06
    292    296   2   0.50000    -0.1200000   -0.5000000   1.304585e-03  1.920112e-06
    322    295   2   0.50000     0.0600000   -0.5000000   2.691455e-04  1.090642e-07
    322    296   2   0.50000     0.0600000   -0.5000000   3.205360e-04  1.719281e-07
    323    295   2   0.50000     0.0600000   -0.5000000   2.691455e-04  1.090642e-07
    323    296   2   0.50000     0.0600000   -0.5000000   3.205360e-04  1.719281e-07
    293    297   2   0.50000    -0.1200000    0.0800000   1.015252e-03  1.866303e-06
    293    324   2   0.50000    -0.1200000    0.3000000   1.995577e-06  1.069504e-11
    295    297   2   0.50000    -0.5000000    0.0800000   1.095425e-03  1.218041e-06
    295    324   2   0.50000    -0.5000000    0.3000000   2.153164e-06  6.980110e-12
    294    298   2   0.50000     0.5000000   -0.1200000   1.575021e-03  3.561100e-06
    294    325   2   0.50000     0.5000000    0.0600000   3.869820e-04  3.188634e-07
    294    326   2   0.50000     0.5000000    0.0600000   3.869820e-04  3.188634e-07
    324    298   2   0.50000     0.3000000   -0.1200000   1.995577e-06  1.069504e-11
    324    325   2   0.50000     0.3000000    0.0600000   4.903125e-07  9.576416e-13
    324    326   2   0.50000     0.3000000    0.0600000   4.903125e-07  9.576416e-13
    296    299   2   0.50000    -0.5000000   -0.1200000   1.304585e-03  1.920112e-06
    296    327   2   0.50000    -0.5000000    0.0600000   3.205360e-04  1.719281e-07
    296    328   2   0.50000    -0.5000000    0.0600000   3.205360e-04  1.719281e-07
    325    299   2   0.50000     0.0600000   -0.1200000   2.494471e-04  1.671101e-07
    325    327   2   0.50000     0.0600000    0.0600000   6.128906e-05  1.496315e-08
    325    328   2   0.50000     0.0600000    0.0600000   6.128906e-05  1.496315e-08
    326    299   2   0.50000     0.0600000   -0.1200000   2.494471e-04  1.671101e-07
    326    327   2   0.50000     0.0600000    0.0600000   6.128906e-05  1.496315e-08
    326    328   2   0.50000     0.0600000    0.0600000   6.128906e-05  1.496315e-08
    297    300   2   0.50000     0.0800000   -0.1200000   1.015252e-03  1.866303e-06
    297    329   2   0.50000     0.0800000    0.0600000   2.494471e-04  1.671101e-07
    297    330   2   0.50000     0.0800000    0.0600000   2.494471e-04  1.671101e-07
    327    300   2   0.50000     0.0600000   -0.1200000   2.494471e-04  1.671101e-07
    327    329   2   0.50000     0.0600000    0.0600000   6.128906e-05  1.496315e-08
    327    330   2   0.50000     0.0600000    0.0600000   6.128906e-05  1.496315e-08
    328    300   2   0.50000     0.0600000   -0.1200000   2.494471e-04  1.671101e-07
    328    329   2   0.50000     0.0600000    0.0600000   6.128906e-05  1.496315e-08
    328    330   2   0.50000     0.0600000    0.0600000   6.128906e-05  1.496315e-08
    298    301   2   0.50000    -0.1200000   -0.1200000   1.015252e-03  1.866303e-06
    298    331   2   0.50000    -0.1200000    0.0600000   2.494471e-04  1.671101e-07
    298    332   2   0.50000    -0.1200000    0.0600000   2.494471e-04  1.671101e-07
    329    301   2   0.50000     0.0600000   -0.1200000   2.494471e-04  1.671101e-07
    329    331   2   0.50000     0.0600000    0.0600000   6.128906e-05  1.496315e-08
    329    332   2   0.50000     0.0600000    0.0600000   6.128906e-05  1.496315e-08
    330    301   2   0.50000     0.0600000   -0.1200000   2.494471e-04  1.671101e-07
    330    331   2   0.50000     0.0600000    0.0600000   6.128906e-05  1.496315e-08
    330    332   2   0.50000     0.0600000    0.0600000   6.128906e-05  1.496315e-08
    299    302   2   0.50000    -0.1200000    0.0800000   1.015252e-03  1.866303e-06
    299    333   2   0.50000    -0.1200000    0.0600000   2.494471e-04  1.671101e-07
    299    334   2   0.50000    -0.1200000    0.0600000   2.494471e-04  1.671101e-07
    331    302   2   0.50000     0.0600000    0.0800000   2.494471e-04  1.671101e-07
    331    333   2   0.50000     0.0600000    0.0600000   6.128906e-05  1.496315e-08
    331    334   2   0.50000     0.0600000    0.0600000   6.128906e-05  1.496315e-08
    332    302   2   0.50000     0.0600000    0.0800000   2.494471e-04  1.671101e-07
    332    333   2   0.50000     0.0600000    0.0600000   6.128906e-05  1.496315e-08
    332    334   2   0.50000     0.0600000    0.0600000   6.128906e-05  1.496315e-08
    300    303   2   0.50000    -0.1200000   -0.5000000   1.304585e-03  1.920112e-06
    300    335   2   0.50000    -0.1200000    0.0600000   2.494471e-04  1.671101e-07
    300    336   2   0.50000    -0.1200000    0.0600000   2.494471e-04  1.671101e-07
    333    303   2   0.50000     0.0600000   -0.5000000   3.205360e-04  1.719281e-07
    333    335   2   0.50000     0.0600000    0.0600000   6.128906e-05  1.496315e-08
    333    336   2   0.50000     0.0600000    0.0600000   6.128906e-05  1.496315e-08
    334    303   2   0.50000     0.0600000   -0.5000000   3.205360e-04  1.719281e-07
    334    335   2   0.50000     0.0600000    0.0600000   6.128906e-05  1.496315e-08
    334    336   2   0.50000     0.0600000    0.0600000   6.128906e-05  1.496315e-08
    301    337   2   0.50000    -0.1200000    0.3000000   1.995577e-06  1.069504e-11
    301    338   2   0.50000    -0.1200000    0.5000000   1.575021e-03  3.561100e-06
    335    337   2   0.50000     0.0600000    0.3000000   4.903125e-07  9.576416e-13
    335    338   2   0.50000     0.0600000    0.5000000   3.869820e-04  3.188634e-07
    336    337   2   0.50000     0.0600000    0.3000000   4.903125e-07  9.576416e-13
    336    338   2   0.50000     0.0600000    0.5000000   3.869820e-04  3.188634e-07
    302    339   2   0.50000     0.0800000   -0.5000000   1.095425e-03  1.218041e-06
    302    340   2   0.50000     0.0800000   -0.1200000   1.015252e-03  1.866303e-06
    337    339   2   0.50000     0.3000000   -0.5000000   2.153164e-06  6.980110e-12
    337    340   2   0.50000     0.3000000   -0.1200000   1.995577e-06  1.069504e-11
    303    341   2   0.50000    -0.5000000   -0.1200000   1.304585e-03  1.920112e-06
    303    360   2   0.50000    -0.5000000    0.0600000   3.205360e-04  1.719281e-07
    303    361   2   0.50000    -0.5000000    0.0600000   3.205360e-04  1.719281e-07
    339    341   2   0.50000    -0.5000000   -0.1200000   1.095425e-03  1.218041e-06
    339    360   2   0.50000    -0.5000000    0.0600000   2.691455e-04  1.090642e-07
    339    361   2   0.50000    -0.5000000    0.0600000   2.691455e-04  1.090642e-07
    338    342   2   0.50000     0.5000000   -0.1200000   1.575021e-03  3.561100e-06
    338    362   2   0.50000     0.5000000    0.0600000   3.869820e-04  3.188634e-07
    338    363   2   0.50000     0.5000000    0.0600000   3.869820e-04  3.188634e-07
    360    342   2   0.50000     0.0600000   -0.1200000   2.494471e-04  1.671101e-07
    360    362   2   0.50000     0.0600000    0.0600000   6.128906e-05  1.496315e-08
    360    363   2   0.50000     0.0600000    0.0600000   6.128906e-05  1.496315e-08
    361    342   2   0.50000     0.0600000   -0.1200000   2.494471e-04  1.671101e-07
    361    362   2   0.50000     0.0600000    0.0600000   6.128906e-05  1.496315e-08
    361    363   2   0.50000     0.0600000    0.0600000   6.128906e-05  1.496315e-08
    340    343   2   0.50000    -0.1200000   -0.1200000   1.015252e-03  1.866303e-06
    340    364   2   0.50000    -0.1200000    0.0600000   2.494471e-04  1.671101e-07
    340    365   2   0.50000    -0.1200000    0.0600000   2.494471e-04  1.671101e-07
    362    343   2   0.50000     0.0600000   -0.1200000   2.494471e-04  1.671101e-07
    362    364   2   0.50000     0.0600000    0.0600000   6.128906e-05  1.496315e-08
    362    365   2   0.50000     0.0600000    0.0600000   6.128906e-05  1.496315e-08
    363    343   2   0.50000     0.0600000   -0.1200000   2.494471e-04  1.671101e-07
    363    364   2   0.50000     0.0600000    0.0600000   6.128906e-05  1.496315e-08
    363    365   2   0.50000     0.0600000    0.0600000   6.128906e-05  1.496315e-08
    341    344   2   0.50000    -0.1200000   -0.1200000   1.015252e-03  1.866303e-06
    341    366   2   0.50000    -0.1200000    0.0600000   2.494471e-04  1.671101e-07
    341    367   2   0.50000    -0.1200000    0.0600000   2.494471e-04  1.671101e-07
    364    344   2   0.50000     0.0600000   -0.1200000   2.494471e-04  1.671101e-07
    364    366   2   0.50000     0.0600000    0.0600000   6.128906e-05  1.496315e-08
    364    367   2   0.50000     0.0600000    0.0600000   6.128906e-05  1.496315e-08
    365    344   2   0.50000     0.0600000   -0.1200000   2.494471e-04  1.671101e-07
    365    366   2   0.50000     0.0600000    0.0600000   6.128906e-05  1.496315e-08
    365    367   2   0.50000     0.0600000    0.0600000   6.128906e-05  1.496315e-08
    342    345   2   0.50000    -0.1200000   -0.1200000   1.015252e-03  1.866303e-06
    342    368   2   0.50000    -0.1200000    0.0600000   2.494471e-04  1.671101e-07
    342    369   2   0.50000    -0.1200000    0.0600000   2.494471e-04  1.671101e-07
    366    345   2   0.50000     0.0600000   -0.1200000   2.494471e-04  1.671101e-07
    366    368   2   0.50000     0.0600000    0.0600000   6.128906e-05  1.496315e-08
    366    369   2   0.50000     0.0600000    0.0600000   6.128906e-05  1.496315e-08
    367    345   2   0.50000     0.0600000   -0.1200000   2.494471e-04  1.671101e-07
    367    368   2   0.50000     0.0600000    0.0600000   6.128906e-05  1.496315e-08
    367    369   2   0.50000     0.0600000    0.0600000   6.128906e-05  1.496315e-08
    343    346   2   0.50000    -0.1200000   -0.1200000   1.015252e-03  1.866303e-06
    343    370   2   0.50000    -0.1200000    0.0600000   2.494471e-04  1.671101e-07
    343    371   2   0.50000    -0.1200000    0.0600000   2.494471e-04  1.671101e-07
    368    346   2   0.50000     0.0600000   -0.1200000   2.494471e-04  1.671101e-07
    368    370   2   0.50000     0.0600000    0.0600000   6.128906e-05  1.496315e-08
    368    371   2   0.50000     0.0600000    0.0600000   6.128906e-05  1.496315e-08
    369    346   2   0.50000     0.0600000   -0.1200000   2.494471e-04  1.671101e-07
    369    370   2   0.50000     0.0600000    0.0600000   6.128906e-05  1.496315e-08
    369    371   2   0.50000     0.0600000    0.0600000   6.128906e-05  1.496315e-08
    344    347   2   0.50000    -0.1200000   -0.1200000   1.015252e-03  1.866303e-06
    344    372   2   0.50000    -0.1200000    0.0600000   2.494471e-04  1.671101e-07
    344    373   2   0.50000    -0.1200000    0.0600000   2.494471e-04  1.671101e-07
    370    347   2   0.50000     0.0600000   -0.1200000   2.494471e-04  1.671101e-07
    370    372   2   0.50000     0.0600000    0.0600000   6.128906e-05  1.496315e-08
    370    373   2   0.50000     0.0600000    0.0600000   6.128906e-05  1.496315e-08
    371    347   2   0.50000     0.0600000   -0.1200000   2.494471e-04  1.671101e-07
    371    372   2   0.50000     0.0600000    0.0600000   6.128906e-05  1.496315e-08
    371    373   2   0.50000     0.0600000    0.0600000   6.128906e-05  1.496315e-08
    345    348   2   0.50000    -0.1200000   -0.1200000   1.015252e-03  1.866303e-06
    345    374   2   0.50000    -0.1200000    0.0600000   2.494471e-04  1.671101e-07
    345    375   2   0.50000    -0.1200000    0.0600000   2.494471e-04  1.671101e-07
    372    348   2   0.50000     0.0600000   -0.1200000   2.494471e-04  1.671101e-07
    372    374   2   0.50000     0.0600000    0.0600000   6.128906e-05  1.496315e-08
    372    375   2   0.50000     0.0600000    0.0600000   6.128906e-05  1.496315e-08
    373    348   2   0.50000     0.0600000   -0.1200000   2.494471e-04  1.671101e-07
    373    374   2   0.50000     0.0600000    0.0600000   6.128906e-05  1.496315e-08
    373    375   2   0.50000     0.0600000    0.0600000   6.128906e-05  1.496315e-08
    346    349   2   0.50000    -0.1200000   -0.1200000   1.015252e-03  1.866303e-06
    346    376   2   0.50000    -0.1200000    0.0600000   2.494471e-04  1.671101e-07
    346    377   2   0.50000    -0.1200000    0.0600000   2.494471e-04  1.671101e-07
    374    349   2   0.50000     0.0600000   -0.1200000   2.494471e-04  1.671101e-07
    374    376   2   0.50000     0.0600000    0.0600000   6.128906e-05  1.496315e-08
    374    377   2   0.50000     0.0600000    0.0600000   6.128906e-05  1.496315e-08
    375    349   2   0.50000     0.0600000   -0.1200000   2.494471e-04  1.671101e-07
    375    376   2   0.50000     0.0600000    0.0600000   6.128906e-05  1.496315e-08
    375    377   2   0.50000     0.0600000    0.0600000   6.128906e-05  1.496315e-08
    347    350   2   0.50000    -0.1200000    0.5000000   1.575021e-03  3.561100e-06
    347    378   2   0.50000    -0.1200000    0.0600000   2.494471e-04  1.671101e-07
    347    379   2   0.50000    -0.1200000    0.0600000   2.494471e-04  1.671101e-07
    376    350   2   0.50000     0.0600000    0.5000000   3.869820e-04  3.188634e-07
    376    378   2   0.50000     0.0600000    0.0600000   6.128906e-05  1.496315e-08
    376    379   2   0.50000     0.0600000    0.0600000   6.128906e-05  1.496315e-08
    377    350   2   0.50000     0.0600000    0.5000000   3.869820e-04  3.188634e-07
    377    378   2   0.50000     0.0600000    0.0600000   6.128906e-05  1.496315e-08
    377    379   2   0.50000     0.0600000    0.0600000   6.128906e-05  1.496315e-08
    348    351   2   0.50000    -0.1200000   -0.5000000   1.095425e-03  1.218041e-06
    348    352   2   0.50000    -0.1200000   -0.5000000   1.304585e-03  1.920112e-06
    378    351   2   0.50000     0.0600000   -0.5000000   2.691455e-04  1.090642e-07
    378    352   2   0.50000     0.0600000   -0.5000000   3.205360e-04  1.719281e-07
    379    351   2   0.50000     0.0600000   -0.5000000   2.691455e-04  1.090642e-07
    379    352   2   0.50000     0.0600000   -0.5000000   3.205360e-04  1.719281e-07
    349    353   2   0.50000    -0.1200000    0.0800000   1.015252e-03  1.866303e-06
    349    380   2   0.50000    -0.1200000    0.3000000   1.995577e-06  1.069504e-11
    351    353   2   0.50000    -0.5000000    0.0800000   1.095425e-03  1.218041e-06
    351    380   2   0.50000    -0.5000000    0.3000000   2.153164e-06  6.980110e-12
    350    354   2   0.50000     0.5000000   -0.1200000   1.575021e-03  3.561100e-06
    350    381   2   0.50000     0.5000000    0.0600000   3.869820e-04  3.188634e-07
    350    382   2   0.50000     0.5000000    0.0600000   3.869820e-04  3.188634e-07
    380    354   2   0.50000     0.3000000   -0.1200000   1.995577e-06  1.069504e-11
    380    381   2   0.50000     0.3000000    0.0600000   4.903125e-07  9.576416e-13
    380    382   2   0.50000     0.3000000    0.0600000   4.903125e-07  9.576416e-13
    352    355   2   0.50000    -0.5000000   -0.1200000   1.304585e-03  1.920112e-06
    352    383   2   0.50000    -0.5000000    0.0600000   3.205360e-04  1.719281e-07
    352    384   2   0.50000    -0.5000000    0.0600000   3.205360e-04  1.719281e-07
    381    355   2   0.50000     0.0600000   -0.1200000   2.494471e-04  1.671101e-07
    381    383   2   0.50000     0.0600000    0.0600000   6.128906e-05  1.496315e-08
    381    384   2   0.50000     0.0600000    0.0600000   6.128906e-05  1.496315e-08
    382    355   2   0.50000     0.0600000   -0.1200000   2.494471e-04  1.671101e-07
    382    383   2   0.50000     0.0600000    0.0600000   6.128906e-05  1.496315e-08
    382    384   2   0.50000     0.0600000    0.0600000   6.128906e-05  1.496315e-08
    353    356   2   0.50000     0.0800000   -0.1200000   1.015252e-03  1.866303e-06
    353    385   2   0.50000     0.0800000    0.0600000   2.494471e-04  1.671101e-07
    353    386   2   0.50000     0.0800000    0.0600000   2.494471e-04  1.671101e-07
    383    356   2   0.50000     0.0600000   -0.1200000   2.494471e-04  1.671101e-07
    383    385   2   0.50000     0.0600000    0.0600000   6.128906e-05  1.496315e-08
    383    386   2   0.50000     0.0600000    0.0600000   6.128906e-05  1.496315e-08
    384    356   2   0.50000     0.0600000   -0.1200000   2.494471e-04  1.671101e-07
    384    385   2   0.50000     0.0600000    0.0600000   6.128906e-05  1.496315e-08
    384    386   2   0.50000     0.0600000    0.0600000   6.128906e-05  1.496315e-08
    354    357   2   0.50000    -0.1200000   -0.1200000   1.015252e-03  1.866303e-06
    354    387   2   0.50000    -0.1200000    0.0600000   2.494471e-04  1.671101e-07
    354    388   2   0.50000    -0.1200000    0.0600000   2.494471e-04  1.671101e-07
    385    357   2   0.50000     0.0600000   -0.1200000   2.494471e-04  1.671101e-07
    385    387   2   0.50000     0.0600000    0.0600000   6.128906e-05  1.496315e-08
    385    388   2   0.50000     0.0600000    0.0600000   6.128906e-05  1.496315e-08
    386    357   2   0.50000     0.0600000   -0.1200000   2.494471e-04  1.671101e-07
    386    387   2   0.50000     0.0600000    0.0600000   6.128906e-05  1.496315e-08
    386    388   2   0.50000     0.0600000    0.0600000   6.128906e-05  1.496315e-08
    355    358   2   0.50000    -0.1200000    0.0800000   1.015252e-03  1.866303e-06
    355    389   2   0.50000    -0.1200000    0.0600000   2.494471e-04  1.671101e-07
    355    390   2   0.50000    -0.1200000    0.0600000   2.494471e-04  1.671101e-07
    387    358   2   0.50000     0.0600000    0.0800000   2.494471e-04  1.671101e-07
    387    389   2   0.50000     0.0600000    0.0600000   6.128906e-05  1.496315e-08
    387    390   2   0.50000     0.0600000    0.0600000   6.128906e-05  1.496315e-08
    388    358   2   0.50000     0.0600000    0.0800000   2.494471e-04  1.671101e-07
    388    389   2   0.50000     0.0600000    0.0600000   6.128906e-05  1.496315e-08
    388    390   2   0.50000     0.0600000    0.0600000   6.128906e-05  1.496315e-08
    356    359   2   0.50000    -0.1200000   -0.5000000   1.304585e-03  1.920112e-06
    356    391   2   0.50000    -0.1200000    0.0600000   2.494471e-04  1.671101e-07
    356    392   2   0.50000    -0.1200000    0.0600000   2.494471e-04  1.671101e-07
    389    359   2   0.50000     0.0600000   -0.5000000   3.205360e-04  1.719281e-07
    389    391   2   0.50000     0.0600000    0.0600000   6.128906e-05  1.496315e-08
    389    392   2   0.50000     0.0600000    0.0600000   6.128906e-05  1.496315e-08
    390    359   2   0.50000     0.0600000   -0.5000000   3.205360e-04  1.719281e-07
    390    391   2   0.50000     0.0600000    0.0600000   6.128906e-05  1.496315e-08
    390    392   2   0.50000     0.0600000    0.0600000   6.128906e-05  1.496315e-08
    357    393   2   0.50000    -0.1200000    0.3000000   1.995577e-06  1.069504e-11
    357    394   2   0.50000    -0.1200000    0.5000000   1.575021e-03  3.561100e-06
    391    393   2   0.50000     0.0600000    0.3000000   4.903125e-07  9.576416e-13
    391    394   2   0.50000     0.0600000    0.5000000   3.869820e-04  3.188634e-07
    392    393   2   0.50000     0.0600000    0.3000000   4.903125e-07  9.576416e-13
    392    394   2   0.50000     0.0600000    0.5000000   3.869820e-04  3.188634e-07
    358    395   2   0.50000     0.0800000   -0.5000000   1.095425e-03  1.218041e-06
    358    396   2   0.50000     0.0800000   -0.1200000   1.015252e-03  1.866303e-06
    393    395   2   0.50000     0.3000000   -0.5000000   2.153164e-06  6.980110e-12
    393    396   2   0.50000     0.3000000   -0.1200000   1.995577e-06  1.069504e-11
    359    397   2   0.50000    -0.5000000   -0.1200000   1.304585e-03  1.920112e-06
    359    416   2   0.50000    -0.5000000    0.0600000   3.205360e-04  1.719281e-07
    359    417   2   0.50000    -0.5000000    0.0600000   3.205360e-04  1.719281e-07
    395    397   2   0.50000    -0.5000000   -0.1200000   1.095425e-03  1.218041e-06
    395    416   2   0.50000    -0.5000000    0.0600000   2.691455e-04  1.090642e-07
    395    417   2   0.50000    -0.5000000    0.0600000   2.691455e-04  1.090642e-07
    394    398   2   0.50000     0.5000000   -0.1200000   1.575021e-03  3.561100e-06
    394    418   2   0.50000     0.5000000    0.0600000   3.869820e-04  3.188634e-07
    394    419   2   0.50000     0.5000000    0.0600000   3.869820e-04  3.188634e-07
    416    398   2   0.50000     0.0600000   -0.1200000   2.494471e-04  1.671101e-07
    416    418   2   0.50000     0.0600000    0.0600000   6.128906e-05  1.496315e-08
    416    419   2   0.50000     0.0600000    0.0600000   6.128906e-05  1.496315e-08
    417    398   2   0.50000     0.0600000   -0.1200000   2.494471e-04  1.671101e-07
    417    418   2   0.50000     0.0600000    0.0600000   6.128906e-05  1.496315e-08
    417    419   2   0.50000     0.0600000    0.0600000   6.128906e-05  1.496315e-08
    396    399   2   0.50000    -0.1200000   -0.1200000   1.015252e-03  1.866303e-06
    396    420   2   0.50000    -0.1200000    0.0600000   2.494471e-04  1.671101e-07
    396    421   2   0.50000    -0.1200000    0.0600000   2.494471e-04  1.671101e-07
    418    399   2   0.50000     0.0600000   -0.1200000   2.494471e-04  1.671101e-07
    418    420   2   0.50000     0.0600000    0.0600000   6.128906e-05  1.496315e-08
    418    421   2   0.50000     0.0600000    0.0600000   6.128906e-05  1.496315e-08
    419    399   2   0.50000     0.0600000   -0.1200000   2.494471e-04  1.671101e-07
    419    420   2   0.50000     0.0600000    0.0600000   6.128906e-05  1.496315e-08
    419    421   2   0.50000     0.0600000    0.0600000   6.128906e-05  1.496315e-08
    397    400   2   0.50000    -0.1200000   -0.1200000   1.015252e-03  1.866303e-06
    397    422   2   0.50000    -0.1200000    0.0600000   2.494471e-04  1.671101e-07
    397    423   2   0.50000    -0.1200000    0.0600000   2.494471e-04  1.671101e-07
    420    400   2   0.50000     0.0600000   -0.1200000   2.494471e-04  1.671101e-07
    420    422   2   0.50000     0.0600000    0.0600000   6.128906e-05  1.496315e-08
    420    423   2   0.50000     0.0600000    0.0600000   6.128906e-05  1.496315e-08
    421    400   2   0.50000     0.0600000   -0.1200000   2.494471e-04  1.671101e-07
    421    422   2   0.50000     0.0600000    0.0600000   6.128906e-05  1.496315e-08
    421    423   2   0.50000     0.0600000    0.0600000   6.128906e-05  1.496315e-08
    398    401   2   0.50000    -0.1200000   -0.1200000   1.015252e-03  1.866303e-06
    398    424   2   0.50000    -0.1200000    0.0600000   2.494471e-04  1.671101e-07
    398    425   2   0.50000    -0.1200000    0.0600000   2.494471e-04  1.671101e-07
    422    401   2   0.50000     0.0600000   -0.1200000   2.494471e-04  1.671101e-07
    422    424   2   0.50000     0.0600000    0.0600000   6.128906e-05  1.496315e-08
    422    425   2   0.50000     0.0600000    0.0600000   6.128906e-05  1.496315e-08
    423    401   2   0.50000     0.0600000   -0.1200000   2.494471e-04  1.671101e-07
    423    424   2   0.50000     0.0600000    0.0600000   6.128906e-05  1.496315e-08
    423    425   2   0.50000     0.0600000    0.0600000   6.128906e-05  1.496315e-08
    399    402   2   0.50000    -0.1200000   -0.1200000   1.015252e-03  1.866303e-06
    399    426   2   0.50000    -0.1200000    0.0600000   2.494471e-04  1.671101e-07
    399    427   2   0.50000    -0.1200000    0.0600000   2.494471e-04  1.671101e-07
    424    402   2   0.50000     0.0600000   -0.1200000   2.494471e-04  1.671101e-07
    424    426   2   0.50000     0.0600000    0.0600000   6.128906e-05  1.496315e-08
    424    427   2   0.50000     0.0600000    0.0600000   6.128906e-05  1.496315e-08
    425    402   2   0.50000     0.0600000   -0.1200000   2.494471e-04  1.671101e-07
    425    426   2   0.50000     0.0600000    0.0600000   6.128906e-05  1.496315e-08
    425    427   2   0.50000     0.0600000    0.0600000   6.128906e-05  1.496315e-08
    400    403   2   0.50000    -0.1200000   -0.1200000   1.015252e-03  1.866303e-06
    400    428   2   0.50000    -0.1200000    0.0600000   2.494471e-04  1.671101e-07
    400    429   2   0.50000    -0.1200000    0.0600000   2.494471e-04  1.671101e-07
    426    403   2   0.50000     0.0600000   -0.1200000   2.494471e-04  1.671101e-07
    426    428   2   0.50000     0.0600000    0.0600000   6.128906e-05  1.496315e-08
    426    429   2   0.50000     0.0600000    0.0600000   6.128906e-05  1.496315e-08
    427    403   2   0.50000     0.0600000   -0.1200000   2.494471e-04  1.671101e-07
    427    428   2   0.50000     0.0600000    0.0600000   6.128906e-05  1.496315e-08
    427    429   2   0.50000     0.0600000    0.0600000   6.128906e-05  1.496315e-08
    401    404   2   0.50000    -0.1200000   -0.1200000   1.015252e-03  1.866303e-06
    401    430   2   0.50000    -0.1200000    0.0600000   2.494471e-04  1.671101e-07
    401    431   2   0.50000    -0.1200000    0.0600000   2.494471e-04  1.671101e-07
    428    404   2   0.50000     0.0600000   -0.1200000   2.494471e-04  1.671101e-07
    428    430   2   0.50000     0.0600000    0.0600000   6.128906e-05  1.496315e-08
    428    431   2   0.50000     0.0600000    0.0600000   6.128906e-05  1.496315e-08
    429    404   2   0.50000     0.0600000   -0.1200000   2.494471e-04  1.671101e-07
    429    430   2   0.50000     0.0600000    0.0600000   6.128906e-05  1.496315e-08
    429    431   2   0.50000     0.0600000    0.0600000   6.128906e-05  1.496315e-08
    402    405   2   0.50000    -0.1200000   -0.1200000   1.015252e-03  1.866303e-06
    402    432   2   0.50000    -0.1200000    0.0600000   2.494471e-04  1.671101e-07
    402    433   2   0.50000    -0.1200000    0.0600000   2.494471e-04  1.671101e-07
    430    405   2   0.50000     0.0600000   -0.1200000   2.494471e-04  1.671101e-07
    430    432   2   0.50000     0.0600000    0.0600000   6.128906e-05  1.496315e-08
    430    433   2   0.50000     0.0600000    0.0600000   6.128906e-05  1.496315e-08
    431    405   2   0.50000     0.0600000   -0.1200000   2.494471e-04  1.671101e-07
    431    432   2   0.50000     0.0600000    0.0600000   6.128906e-05  1.496315e-08
    431    433   2   0.50000     0.0600000    0.0600000   6.128906e-05  1.496315e-08
    403    406   2   0.50000    -0.1200000    0.5000000   1.575021e-03  3.561100e-06
    403    434   2   0.50000    -0.1200000    0.0600000   2.494471e-04  1.671101e-07
    403    435   2   0.50000    -0.1200000    0.0600000   2.494471e-04  1.671101e-07
    432    406   2   0.50000     0.0600000    0.5000000   3.869820e-04  3.188634e-07
    432    434   2   0.50000     0.0600000    0.0600000   6.128906e-05  1.496315e-08
    432    435   2   0.50000     0.0600000    0.0600000   6.128906e-05  1.496315e-08
    433    406   2   0.50000     0.0600000    0.5000000   3.869820e-04  3.188634e-07
    433    434   2   0.50000     0.0600000    0.0600000   6.128906e-05  1.496315e-08
    433    435   2   0.50000     0.0600000    0.0600000   6.128906e-05  1.496315e-08
    404    407   2   0.50000    -0.1200000   -0.5000000   1.095425e-03  1.218041e-06
    404    408   2   0.50000    -0.1200000   -0.5000000   1.304585e-03  1.920112e-06
    434    407   2   0.50000     0.0600000   -0.5000000   2.691455e-04  1.090642e-07
    434    408   2   0.50000     0.0600000   -0.5000000   3.205360e-04  1.719281e-07
    435    407   2   0.50000     0.0600000   -0.5000000   2.691455e-04  1.090642e-07
    435    408   2   0.50000     0.0600000   -0.5000000   3.205360e-04  1.719281e-07
    405    409   2   0.50000    -0.1200000    0.0800000   1.015252e-03  1.866303e-06
    405    436   2   0.50000    -0.1200000    0.3000000   1.995577e-06  1.069504e-11
    407    409   2   0.50000    -0.5000000    0.0800000   1.095425e-03  1.218041e-06
    407    436   2   0.50000    -0.5000000    0.3000000   2.153164e-06  6.980110e-12
    406    410   2   0.50000     0.5000000   -0.1200000   1.575021e-03  3.561100e-06
    406    437   2   0.50000     0.5000000    0.0600000   3.869820e-04  3.188634e-07
    406    438   2   0.50000     0.5000000    0.0600000   3.869820e-04  3.188634e-07
    436    410   2   0.50000     0.3000000   -0.1200000   1.995577e-06  1.069504e-11
    436    437   2   0.50000     0.3000000    0.0600000   4.903125e-07  9.576416e-13
    436    438   2   0.50000     0.3000000    0.0600000   4.903125e-07  9.576416e-13
    408    411   2   0.50000    -0.5000000   -0.1200000   1.304585e-03  1.920112e-06
    408    439   2   0.50000    -0.5000000    0.0600000   3.205360e-04  1.719281e-07
    408    440   2   0.50000    -0.5000000    0.0600000   3.205360e-04  1.719281e-07
    437    411   2   0.50000     0.0600000   -0.1200000   2.494471e-04  1.671101e-07
    437    439   2   0.50000     0.0600000    0.0600000   6.128906e-05  1.496315e-08
    437    440   2   0.50000     0.0600000    0.0600000   6.128906e-05  1.496315e-08
    438    411   2   0.50000     0.0600000   -0.1200000   2.494471e-04  1.671101e-07
    438    439   2   0.50000     0.0600000    0.0600000   6.128906e-05  1.496315e-08
    438    440   2   0.50000     0.0600000    0.0600000   6.128906e-05  1.496315e-08
    409    412   2   0.50000     0.0800000   -0.1200000   1.015252e-03  1.866303e-06
    409    441   2   0.50000     0.0800000    0.0600000   2.494471e-04  1.671101e-07
    409    442   2   0.50000     0.0800000    0.0600000   2.494471e-04  1.671101e-07
    439    412   2   0.50000     0.0600000   -0.1200000   2.494471e-04  1.671101e-07
    439    441   2   0.50000     0.0600000    0.0600000   6.128906e-05  1.496315e-08
    439    442   2   0.50000     0.0600000    0.0600000   6.128906e-05  1.496315e-08
    440    412   2   0.50000     0.0600000   -0.1200000   2.494471e-04  1.671101e-07
    440    441   2   0.50000     0.0600000    0.0600000   6.128906e-05  1.496315e-08
    440    442   2   0.50000     0.0600000    0.0600000   6.128906e-05  1.496315e-08
    410    413   2   0.50000    -0.1200000   -0.1200000   1.015252e-03  1.866303e-06
    410    443   2   0.50000    -0.1200000    0.0600000   2.494471e-04  1.671101e-07
    410    444   2   0.50000    -0.1200000    0.0600000   2.494471e-04  1.671101e-07
    441    413   2   0.50000     0.0600000   -0.1200000   2.494471e-04  1.671101e-07
    441    443   2   0.50000     0.0600000    0.0600000   6.128906e-05  1.496315e-08
    441    444   2   0.50000     0.0600000    0.0600000   6.128906e-05  1.496315e-08
    442    413   2   0.50000     0.0600000   -0.1200000   2.494471e-04  1.671101e-07
    442    443   2   0.50000     0.0600000    0.0600000   6.128906e-05  1.496315e-08
    442    444   2   0.50000     0.0600000    0.0600000   6.128906e-05  1.496315e-08
    411    414   2   0.50000    -0.1200000    0.0800000   1.015252e-03  1.866303e-06
    411    445   2   0.50000    -0.1200000    0.0600000   2.494471e-04  1.671101e-07
    411    446   2   0.50000    -0.1200000    0.0600000   2.494471e-04  1.671101e-07
    443    414   2   0.50000     0.0600000    0.0800000   2.494471e-04  1.671101e-07
    443    445   2   0.50000     0.0600000    0.0600000   6.128906e-05  1.496315e-08
    443    446   2   0.50000     0.0600000    0.0600000   6.128906e-05  1.496315e-08
    444    414   2   0.50000     0.0600000    0.0800000   2.494471e-04  1.671101e-07
    444    445   2   0.50000     0.0600000    0.0600000   6.128906e-05  1.496315e-08
    444    446   2   0.50000     0.0600000    0.0600000   6.128906e-05  1.496315e-08
    412    415   2   0.50000    -0.1200000   -0.5000000   1.304585e-03  1.920112e-06
    412    447   2   0.50000    -0.1200000    0.0600000   2.494471e-04  1.671101e-07
    412    448   2   0.50000    -0.1200000    0.0600000   2.494471e-04  1.671101e-07
    445    415   2   0.50000     0.0600000   -0.5000000   3.205360e-04  1.719281e-07
    445    447   2   0.50000     0.0600000    0.0600000   6.128906e-05  1.496315e-08
    445    448   2   0.50000     0.0600000    0.0600000   6.128906e-05  1.496315e-08
    446    415   2   0.50000     0.0600000   -0.5000000   3.205360e-04  1.719281e-07
    446    447   2   0.50000     0.0600000    0.0600000   6.128906e-05  1.496315e-08
    446    448   2   0.50000     0.0600000    0.0600000   6.128906e-05  1.496315e-08
    413    449   2   0.50000    -0.1200000    0.3000000   1.995577e-06  1.069504e-11
    413    450   2   0.50000    -0.1200000    0.5000000   1.575021e-03  3.561100e-06
    447    449   2   0.50000     0.0600000    0.3000000   4.903125e-07  9.576416e-13
    447    450   2   0.50000     0.0600000    0.5000000   3.869820e-04  3.188634e-07
    448    449   2   0.50000     0.0600000    0.3000000   4.903125e-07  9.576416e-13
    448    450   2   0.50000     0.0600000    0.5000000   3.869820e-04  3.188634e-07
    414    451   2   0.50000     0.0800000   -0.5000000   1.095425e-03  1.218041e-06
    414    452   2   0.50000     0.0800000   -0.1200000   1.015252e-03  1.866303e-06
    449    451   2   0.50000     0.3000000   -0.5000000   2.153164e-06  6.980110e-12
    449    452   2   0.50000     0.3000000   -0.1200000   1.995577e-06  1.069504e-11
    415    453   2   0.50000    -0.5000000   -0.1200000   1.304585e-03  1.920112e-06
    415    472   2   0.50000    -0.5000000    0.0600000   3.205360e-04  1.719281e-07
    415    473   2   0.50000    -0.5000000    0.0600000   3.205360e-04  1.719281e-07
    451    453   2   0.50000    -0.5000000   -0.1200000   1.095425e-03  1.218041e-06
    451    472   2   0.50000    -0.5000000    0.0600000   2.691455e-04  1.090642e-07
    451    473   2   0.50000    -0.5000000    0.0600000   2.691455e-04  1.090642e-07
    450    454   2   0.50000     0.5000000   -0.1200000   1.575021e-03  3.561100e-06
    450    474   2   0.50000     0.5000000    0.0600000   3.869820e-04  3.188634e-07
    450    475   2   0.50000     0.5000000    0.0600000   3.869820e-04  3.188634e-07
    472    454   2   0.50000     0.0600000   -0.1200000   2.494471e-04  1.671101e-07
    472    474   2   0.50000     0.0600000    0.0600000   6.128906e-05  1.496315e-08
    472    475   2   0.50000     0.0600000    0.0600000   6.128906e-05  1.496315e-08
    473    454   2   0.50000     0.0600000   -0.1200000   2.494471e-04  1.671101e-07
    473    474   2   0.50000     0.0600000    0.0600000   6.128906e-05  1.496315e-08
    473    475   2   0.50000     0.0600000    0.0600000   6.128906e-05  1.496315e-08
    452    455   2   0.50000    -0.1200000   -0.1200000   1.015252e-03  1.866303e-06
    452    476   2   0.50000    -0.1200000    0.0600000   2.494471e-04  1.671101e-07
    452    477   2   0.50000    -0.1200000    0.0600000   2.494471e-04  1.671101e-07
    474    455   2   0.50000     0.0600000   -0.1200000   2.494471e-04  1.671101e-07
    474    476   2   0.50000     0.0600000    0.0600000   6.128906e-05  1.496315e-08
    474    477   2   0.50000     0.0600000    0.0600000   6.128906e-05  1.496315e-08
    475    455   2   0.50000     0.0600000   -0.1200000   2.494471e-04  1.671101e-07
    475    476   2   0.50000     0.0600000    0.0600000   6.128906e-05  1.496315e-08
    475    477   2   0.50000     0.0600000    0.0600000   6.128906e-05  1.496315e-08
    453    456   2   0.50000    -0.1200000   -0.1200000   1.015252e-03  1.866303e-06
    453    478   2   0.50000    -0.1200000    0.0600000   2.494471e-04  1.671101e-07
    453    479   2   0.50000    -0.1200000    0.0600000   2.494471e-04  1.671101e-07
    476    456   2   0.50000     0.0600000   -0.1200000   2.494471e-04  1.671101e-07
    476    478   2   0.50000     0.0600000    0.0600000   6.128906e-05  1.496315e-08
    476    479   2   0.50000     0.0600000    0.0600000   6.128906e-05  1.496315e-08
    477    456   2   0.50000     0.0600000   -0.1200000   2.494471e-04  1.671101e-07
    477    478   2   0.50000     0.0600000    0.0600000   6.128906e-05  1.496315e-08
    477    479   2   0.50000     0.0600000    0.0600000   6.128906e-05  1.496315e-08
    454    457   2   0.50000    -0.1200000   -0.1200000   1.015252e-03  1.866303e-06
    454    480   2   0.50000    -0.1200000    0.0600000   2.494471e-04  1.671101e-07
    454    481   2   0.50000    -0.1200000    0.0600000   2.494471e-04  1.671101e-07
    478    457   2   0.50000     0.0600000   -0.1200000   2.494471e-04  1.671101e-07
    478    480   2   0.50000     0.0600000    0.0600000   6.128906e-05  1.496315e-08
    478    481   2   0.50000     0.0600000    0.0600000   6.128906e-05  1.496315e-08
    479    457   2   0.50000     0.0600000   -0.1200000   2.494471e-04  1.671101e-07
    479    480   2   0.50000     0.0600000    0.0600000   6.128906e-05  1.496315e-08
    479    481   2   0.50000     0.0600000    0.0600000   6.128906e-05  1.496315e-08
    455    458   2   0.50000    -0.1200000   -0.1200000   1.015252e-03  1.866303e-06
    455    482   2   0.50000    -0.1200000    0.0600000   2.494471e-04  1.671101e-07
    455    483   2   0.50000    -0.1200000    0.0600000   2.494471e-04  1.671101e-07
    480    458   2   0.50000     0.0600000   -0.1200000   2.494471e-04  1.671101e-07
    480    482   2   0.50000     0.0600000    0.0600000   6.128906e-05  1.496315e-08
    480    483   2   0.50000     0.0600000    0.0600000   6.128906e-05  1.496315e-08
    481    458   2   0.50000     0.0600000   -0.1200000   2.494471e-04  1.671101e-07
    481    482   2   0.50000     0.0600000    0.0600000   6.128906e-05  1.496315e-08
    481    483   2   0.50000     0.0600000    0.0600000   6.128906e-05  1.496315e-08
    456    459   2   0.50000    -0.1200000   -0.1200000   1.015252e-03  1.866303e-06
    456    484   2   0.50000    -0.1200000    0.0600000   2.494471e-04  1.671101e-07
    456    485   2   0.50000    -0.1200000    0.0600000   2.494471e-04  1.671101e-07
    482    459   2   0.50000     0.0600000   -0.1200000   2.494471e-04  1.671101e-07
    482    484   2   0.50000     0.0600000    0.0600000   6.128906e-05  1.496315e-08
    482    485   2   0.50000     0.0600000    0.0600000   6.128906e-05  1.496315e-08
    483    459   2   0.50000     0.0600000   -0.1200000   2.494471e-04  1.671101e-07
    483    484   2   0.50000     0.0600000    0.0600000   6.128906e-05  1.496315e-08
    483    485   2   0.50000     0.0600000    0.0600000   6.128906e-05  1.496315e-08
    457    460   2   0.50000    -0.1200000   -0.1200000   1.015252e-03  1.866303e-06
    457    486   2   0.50000    -0.1200000    0.0600000   2.494471e-04  1.671101e-07
    457    487   2   0.50000    -0.1200000    0.0600000   2.494471e-04  1.671101e-07
    484    460   2   0.50000     0.0600000   -0.1200000   2.494471e-04  1.671101e-07
    484    486   2   0.50000     0.0600000    0.0600000   6.128906e-05  1.496315e-08
    484    487   2   0.50000     0.0600000    0.0600000   6.128906e-05  1.496315e-08
    485    460   2   0.50000     0.0600000   -0.1200000   2.494471e-04  1.671101e-07
    485    486   2   0.50000     0.0600000    0.0600000   6.128906e-05  1.496315e-08
    485    487   2   0.50000     0.0600000    0.0600000   6.128906e-05  1.496315e-08
    458    461   2   0.50000    -0.1200000   -0.1200000   1.015252e-03  1.866303e-06
    458    488   2   0.50000    -0.1200000    0.0600000   2.494471e-04  1.671101e-07
    458    489   2   0.50000    -0.1200000    0.0600000   2.494471e-04  1.671101e-07
    486    461   2   0.50000     0.0600000   -0.1200000   2.494471e-04  1.671101e-07
    486    488   2   0.50000     0.0600000    0.0600000   6.128906e-05  1.496315e-08
    486    489   2   0.50000     0.0600000    0.0600000   6.128906e-05  1.496315e-08
    487    461   2   0.50000     0.0600000   -0.1200000   2.494471e-04  1.671101e-07
    487    488   2   0.50000     0.0600000    0.0600000   6.128906e-05  1.496315e-08
    487    489   2   0.50000     0.0600000    0.0600000   6.128906e-05  1.496315e-08
    459    462   2   0.50000    -0.1200000    0.5000000   1.575021e-03  3.561100e-06
    459    490   2   0.50000    -0.1200000    0.0600000   2.494471e-04  1.671101e-07
    459    491   2   0.50000    -0.1200000    0.0600000   2.494471e-04  1.671101e-07
    488    462   2   0.50000     0.0600000    0.5000000   3.869820e-04  3.188634e-07
    488    490   2   0.50000     0.0600000    0.0600000   6.128906e-05  1.496315e-08
    488    491   2   0.50000     0.0600000    0.0600000   6.128906e-05  1.496315e-08
    489    462   2   0.50000     0.0600000    0.5000000   3.869820e-04  3.188634e-07
    489    490   2   0.50000     0.0600000    0.0600000   6.128906e-05  1.496315e-08
    489    491   2   0.50000     0.0600000    0.0600000   6.128906e-05  1.496315e-08
    460    463   2   0.50000    -0.1200000   -0.5000000   1.095425e-03  1.218041e-06
    460    464   2   0.50000    -0.1200000   -0.5000000   1.304585e-03  1.920112e-06
    490    463   2   0.50000     0.0600000   -0.5000000   2.691455e-04  1.090642e-07
    490    464   2   0.50000     0.0600000   -0.5000000   3.205360e-04  1.719281e-07
    491    463   2   0.50000     0.0600000   -0.5000000   2.691455e-04  1.090642e-07
    491    464   2   0.50000     0.0600000   -0.5000000   3.205360e-04  1.719281e-07
    461    465   2   0.50000    -0.1200000    0.0800000   1.015252e-03  1.866303e-06
    461    492   2   0.50000    -0.1200000    0.3000000   1.995577e-06  1.069504e-11
    463    465   2   0.50000    -0.5000000    0.0800000   1.095425e-03  1.218041e-06
    463    492   2   0.50000    -0.5000000    0.3000000   2.153164e-06  6.980110e-12
    462    466   2   0.50000     0.5000000   -0.1200000   1.575021e-03  3.561100e-06
    462    493   2   0.50000     0.5000000    0.0600000   3.869820e-04  3.188634e-07
    462    494   2   0.50000     0.5000000    0.0600000   3.869820e-04  3.188634e-07
    492    466   2   0.50000     0.3000000   -0.1200000   1.995577e-06  1.069504e-11
    492    493   2   0.50000     0.3000000    0.0600000   4.903125e-07  9.576416e-13
    492    494   2   0.50000     0.3000000    0.0600000   4.903125e-07  9.576416e-13
    464    467   2   0.50000    -0.5000000   -0.1200000   1.304585e-03  1.920112e-06
    464    495   2   0.50000    -0.5000000    0.0600000   3.205360e-04  1.719281e-07
    464    496   2   0.50000    -0.5000000    0.0600000   3.205360e-04  1.719281e-07
    493    467   2   0.50000     0.0600000   -0.1200000   2.494471e-04  1.671101e-07
    493    495   2   0.50000     0.0600000    0.0600000   6.128906e-05  1.496315e-08
    493    496   2   0.50000     0.0600000    0.0600000   6.128906e-05  1.496315e-08
    494    467   2   0.50000     0.0600000   -0.1200000   2.494471e-04  1.671101e-07
    494    495   2   0.50000     0.0600000    0.0600000   6.128906e-05  1.496315e-08
    494    496   2   0.50000     0.0600000    0.0600000   6.128906e-05  1.496315e-08
    465    468   2   0.50000     0.0800000   -0.1200000   1.015252e-03  1.866303e-06
    465    497   2   0.50000     0.0800000    0.0600000   2.494471e-04  1.671101e-07
    465    498   2   0.50000     0.0800000    0.0600000   2.494471e-04  1.671101e-07
    495    468   2   0.50000     0.0600000   -0.1200000   2.494471e-04  1.671101e-07
    495    497   2   0.50000     0.0600000    0.0600000   6.128906e-05  1.496315e-08
    495    498   2   0.50000     0.0600000    0.0600000   6.128906e-05  1.496315e-08
    496    468   2   0.50000     0.0600000   -0.1200000   2.494471e-04  1.671101e-07
    496    497   2   0.50000     0.0600000    0.0600000   6.128906e-05  1.496315e-08
    496    498   2   0.50000     0.0600000    0.0600000   6.128906e-05  1.496315e-08
    466    469   2   0.50000    -0.1200000   -0.1200000   1.015252e-03  1.866303e-06
    466    499   2   0.50000    -0.1200000    0.0600000   2.494471e-04  1.671101e-07
    466    500   2   0.50000    -0.1200000    0.0600000   2.494471e-04  1.671101e-07
    497    469   2   0.50000     0.0600000   -0.1200000   2.494471e-04  1.671101e-07
    497    499   2   0.50000     0.0600000    0.0600000   6.128906e-05  1.496315e-08
    497    500   2   0.50000     0.0600000    0.0600000   6.128906e-05  1.496315e-08
    498    469   2   0.50000     0.0600000   -0.1200000   2.494471e-04  1.671101e-07
    498    499   2   0.50000     0.0600000    0.0600000   6.128906e-05  1.496315e-08
    498    500   2   0.50000     0.0600000    0.0600000   6.128906e-05  1.496315e-08
    467    470   2   0.50000    -0.1200000    0.0800000   1.015252e-03  1.866303e-06
    467    501   2   0.50000    -0.1200000    0.0600000   2.494471e-04  1.671101e-07
    467    502   2   0.50000    -0.1200000    0.0600000   2.494471e-04  1.671101e-07
    499    470   2   0.50000     0.0600000    0.0800000   2.494471e-04  1.671101e-07
    499    501   2   0.50000     0.0600000    0.0600000   6.128906e-05  1.496315e-08
    499    502   2   0.50000     0.0600000    0.0600000   6.128906e-05  1.496315e-08
    500    470   2   0.50000     0.0600000    0.0800000   2.494471e-04  1.671101e-07
    500    501   2   0.50000     0.0600000    0.0600000   6.128906e-05  1.496315e-08
    500    502   2   0.50000     0.0600000    0.0600000   6.128906e-05  1.496315e-08
    468    471   2   0.50000    -0.1200000   -0.5000000   1.304585e-03  1.920112e-06
    468    503   2   0.50000    -0.1200000    0.0600000   2.494471e-04  1.671101e-07
    468    504   2   0.50000    -0.1200000    0.0600000   2.494471e-04  1.671101e-07
    501    471   2   0.50000     0.0600000   -0.5000000   3.205360e-04  1.719281e-07
    501    503   2   0.50000     0.0600000    0.0600000   6.128906e-05  1.496315e-08
    501    504   2   0.50000     0.0600000    0.0600000   6.128906e-05  1.496315e-08
    502    471   2   0.50000     0.0600000   -0.5000000   3.205360e-04  1.719281e-07
    502    503   2   0.50000     0.0600000    0.0600000   6.128906e-05  1.496315e-08
    502    504   2   0.50000     0.0600000    0.0600000   6.128906e-05  1.496315e-08
    469    505   2   0.50000    -0.1200000    0.3000000   1.995577e-06  1.069504e-11
    469    506   2   0.50000    -0.1200000    0.5000000   1.575021e-03  3.561100e-06
    503    505   2   0.50000     0.0600000    0.3000000   4.903125e-07  9.576416e-13
    503    506   2   0.50000     0.0600000    0.5000000   3.869820e-04  3.188634e-07
    504    505   2   0.50000     0.0600000    0.3000000   4.903125e-07  9.576416e-13
    504    506   2   0.50000     0.0600000    0.5000000   3.869820e-04  3.188634e-07
    470    507   2   0.50000     0.0800000   -0.5000000   1.095425e-03  1.218041e-06
    470    508   2   0.50000     0.0800000   -0.1200000   1.015252e-03  1.866303e-06
    505    507   2   0.50000     0.3000000   -0.5000000   2.153164e-06  6.980110e-12
    505    508   2   0.50000     0.3000000   -0.1200000   1.995577e-06  1.069504e-11
    471    509   2   0.50000    -0.5000000   -0.1200000   1.304585e-03  1.920112e-06
    471    528   2   0.50000    -0.5000000    0.0600000   3.205360e-04  1.719281e-07
    471    529   2   0.50000    -0.5000000    0.0600000   3.205360e-04  1.719281e-07
    507    509   2   0.50000    -0.5000000   -0.1200000   1.095425e-03  1.218041e-06
    507    528   2   0.50000    -0.5000000    0.0600000   2.691455e-04  1.090642e-07
    507    529   2   0.50000    -0.5000000    0.0600000   2.691455e-04  1.090642e-07
    506    510   2   0.50000     0.5000000   -0.1200000   1.575021e-03  3.561100e-06
    506    530   2   0.50000     0.5000000    0.0600000   3.869820e-04  3.188634e-07
    506    531   2   0.50000     0.5000000    0.0600000   3.869820e-04  3.188634e-07
    528    510   2   0.50000     0.0600000   -0.1200000   2.494471e-04  1.671101e-07
    528    530   2   0.50000     0.0600000    0.0600000   6.128906e-05  1.496315e-08
    528    531   2   0.50000     0.0600000    0.0600000   6.128906e-05  1.496315e-08
    529    510   2   0.50000     0.0600000   -0.1200000   2.494471e-04  1.671101e-07
    529    530   2   0.50000     0.0600000    0.0600000   6.128906e-05  1.496315e-08
    529    531   2   0.50000     0.0600000    0.0600000   6.128906e-05  1.496315e-08
    508    511   2   0.50000    -0.1200000   -0.1200000   1.015252e-03  1.866303e-06
    508    532   2   0.50000    -0.1200000    0.0600000   2.494471e-04  1.671101e-07
    508    533   2   0.50000    -0.1200000    0.0600000   2.494471e-04  1.671101e-07
    530    511   2   0.50000     0.0600000   -0.1200000   2.494471e-04  1.671101e-07
    530    532   2   0.50000     0.0600000    0.0600000   6.128906e-05  1.496315e-08
    530    533   2   0.50000     0.0600000    0.0600000   6.128906e-05  1.496315e-08
    531    511   2   0.50000     0.0600000   -0.1200000   2.494471e-04  1.671101e-07
    531    532   2   0.50000     0.0600000    0.0600000   6.128906e-05  1.496315e-08
    531    533   2   0.50000     0.0600000    0.0600000   6.128906e-05  1.496315e-08
    509    512   2   0.50000    -0.1200000   -0.1200000   1.015252e-03  1.866303e-06
    509    534   2   0.50000    -0.1200000    0.0600000   2.494471e-04  1.671101e-07
    509    535   2   0.50000    -0.1200000    0.0600000   2.494471e-04  1.671101e-07
    532    512   2   0.50000     0.0600000   -0.1200000   2.494471e-04  1.671101e-07
    532    534   2   0.50000     0.0600000    0.0600000   6.128906e-05  1.496315e-08
    532    535   2   0.50000     0.0600000    0.0600000   6.128906e-05  1.496315e-08
    533    512   2   0.50000     0.0600000   -0.1200000   2.494471e-04  1.671101e-07
    533    534   2   0.50000     0.0600000    0.0600000   6.128906e-05  1.496315e-08
    533    535   2   0.50000     0.0600000    0.0600000   6.128906e-05  1.496315e-08
    510    513   2   0.50000    -0.1200000   -0.1200000   1.015252e-03  1.866303e-06
    510    536   2   0.50000    -0.1200000    0.0600000   2.494471e-04  1.671101e-07
    510    537   2   0.50000    -0.1200000    0.0600000   2.494471e-04  1.671101e-07
    534    513   2   0.50000     0.0600000   -0.1200000   2.494471e-04  1.671101e-07
    534    536   2   0.50000     0.0600000    0.0600000   6.128906e-05  1.496315e-08
    534    537   2   0.50000     0.0600000    0.0600000   6.128906e-05  1.496315e-08
    535    513   2   0.50000     0.0600000   -0.1200000   2.494471e-04  1.671101e-07
    535    536   2   0.50000     0.0600000    0.0600000   6.128906e-05  1.496315e-08
    535    537   2   0.50000     0.0600000    0.0600000   6.128906e-05  1.496315e-08
    511    514   2   0.50000    -0.1200000   -0.1200000   1.015252e-03  1.866303e-06
    511    538   2   0.50000    -0.1200000    0.0600000   2.494471e-04  1.671101e-07
    511    539   2   0.50000    -0.1200000    0.0600000   2.494471e-04  1.671101e-07
    536    514   2   0.50000     0.0600000   -0.1200000   2.494471e-04  1.671101e-07
    536    538   2   0.50000     0.0600000    0.0600000   6.128906e-05  1.496315e-08
    536    539   2   0.50000     0.0600000    0.0600000   6.128906e-05  1.496315e-08
    537    514   2   0.50000     0.0600000   -0.1200000   2.494471e-04  1.671101e-07
    537    538   2   0.50000     0.0600000    0.0600000   6.128906e-05  1.496315e-08
    537    539   2   0.50000     0.0600000    0.0600000   6.128906e-05  1.496315e-08
    512    515   2   0.50000    -0.1200000   -0.1200000   1.015252e-03  1.866303e-06
    512    540   2   0.50000    -0.1200000    0.0600000   2.494471e-04  1.671101e-07
    512    541   2   0.50000    -0.1200000    0.0600000   2.494471e-04  1.671101e-07
    538    515   2   0.50000     0.0600000   -0.1200000   2.494471e-04  1.671101e-07
    538    540   2   0.50000     0.0600000    0.0600000   6.128906e-05  1.496315e-08
    538    541   2   0.50000     0.0600000    0.0600000   6.128906e-05  1.496315e-08
    539    515   2   0.50000     0.0600000   -0.1200000   2.494471e-04  1.671101e-07
    539    540   2   0.50000     0.0600000    0.0600000   6.128906e-05  1.496315e-08
    539    541   2   0.50000     0.0600000    0.0600000   6.128906e-05  1.496315e-08
    513    516   2   0.50000    -0.1200000   -0.1200000   1.015252e-03  1.866303e-06
    513    542   2   0.50000    -0.1200000    0.0600000   2.494471e-04  1.671101e-07
    513    543   2   0.50000    -0.1200000    0.0600000   2.494471e-04  1.671101e-07
    540    516   2   0.50000     0.0600000   -0.1200000   2.494471e-04  1.671101e-07
    540    542   2   0.50000     0.0600000    0.0600000   6.128906e-05  1.496315e-08
    540    543   2   0.50000     0.0600000    0.0600000   6.128906e-05  1.496315e-08
    541    516   2   0.50000     0.0600000   -0.1200000   2.494471e-04  1.671101e-07
    541    542   2   0.50000     0.0600000    0.0600000   6.128906e-05  1.496315e-08
    541    543   2   0.50000     0.0600000    0.0600000   6.128906e-05  1.496315e-08
    514    517   2   0.50000    -0.1200000   -0.1200000   1.015252e-03  1.866303e-06
    514    544   2   0.50000    -0.1200000    0.0600000   2.494471e-04  1.671101e-07
    514    545   2   0.50000    -0.1200000    0.0600000   2.494471e-04  1.671101e-07
    542    517   2   0.50000     0.0600000   -0.1200000   2.494471e-04  1.671101e-07
    542    544   2   0.50000     0.0600000    0.0600000   6.128906e-05  1.496315e-08
    542    545   2   0.50000     0.0600000    0.0600000   6.128906e-05  1.496315e-08
    543    517   2   0.50000     0.0600000   -0.1200000   2.494471e-04  1.671101e-07
    543    544   2   0.50000     0.0600000    0.0600000   6.128906e-05  1.496315e-08
    543    545   2   0.50000     0.0600000    0.0600000   6.128906e-05  1.496315e-08
    515    518   2   0.50000    -0.1200000    0.5000000   1.575021e-03  3.561100e-06
    515    546   2   0.50000    -0.1200000    0.0600000   2.494471e-04  1.671101e-07
    515    547   2   0.50000    -0.1200000    0.0600000   2.494471e-04  1.671101e-07
    544    518   2   0.50000     0.0600000    0.5000000   3.869820e-04  3.188634e-07
    544    546   2   0.50000     0.0600000    0.0600000   6.128906e-05  1.496315e-08
    544    547   2   0.50000     0.0600000    0.0600000   6.128906e-05  1.496315e-08
    545    518   2   0.50000     0.0600000    0.5000000   3.869820e-04  3.188634e-07
    545    546   2   0.50000     0.0600000    0.0600000   6.128906e-05  1.496315e-08
    545    547   2   0.50000     0.0600000    0.0600000   6.128906e-05  1.496315e-08
    516    519   2   0.50000    -0.1200000   -0.5000000   1.095425e-03  1.218041e-06
    516    520   2   0.50000    -0.1200000   -0.5000000   1.304585e-03  1.920112e-06
    546    519   2   0.50000     0.0600000   -0.5000000   2.691455e-04  1.090642e-07
    546    520   2   0.50000     0.0600000   -0.5000000   3.205360e-04  1.719281e-07
    547    519   2   0.50000     0.0600000   -0.5000000   2.691455e-04  1.090642e-07
    547    520   2   0.50000     0.0600000   -0.5000000   3.205360e-04  1.719281e-07
    517    521   2   0.50000    -0.1200000    0.0800000   1.015252e-03  1.866303e-06
    517    548   2   0.50000    -0.1200000    0.3000000   1.995577e-06  1.069504e-11
    519    521   2   0.50000    -0.5000000    0.0800000   1.095425e-03  1.218041e-06
    519    548   2   0.50000    -0.5000000    0.3000000   2.153164e-06  6.980110e-12
    518    522   2   0.50000     0.5000000   -0.1200000   1.575021e-03  3.561100e-06
    518    549   2   0.50000     0.5000000    0.0600000   3.869820e-04  3.188634e-07
    518    550   2   0.50000     0.5000000    0.0600000   3.869820e-04  3.188634e-07
    548    522   2   0.50000     0.3000000   -0.1200000   1.995577e-06  1.069504e-11
    548    549   2   0.50000     0.3000000    0.0600000   4.903125e-07  9.576416e-13
    548    550   2   0.50000     0.3000000    0.0600000   4.903125e-07  9.576416e-13
    520    523   2   0.50000    -0.5000000   -0.1200000   1.304585e-03  1.920112e-06
    520    551   2   0.50000    -0.5000000    0.0600000   3.205360e-04  1.719281e-07
    520    552   2   0.50000    -0.5000000    0.0600000   3.205360e-04  1.719281e-07
    549    523   2   0.50000     0.0600000   -0.1200000   2.494471e-04  1.671101e-07
    549    551   2   0.50000     0.0600000    0.0600000   6.128906e-05  1.496315e-08
    549    552   2   0.50000     0.0600000    0.0600000   6.128906e-05  1.496315e-08
    550    523   2   0.50000     0.0600000   -0.1200000   2.494471e-04  1.671101e-07
    550    551   2   0.50000     0.0600000    0.0600000   6.128906e-05  1.496315e-08
    550    552   2   0.50000     0.0600000    0.0600000   6.128906e-05  1.496315e-08
    521    524   2   0.50000     0.0800000   -0.1200000   1.015252e-03  1.866303e-06
    521    553   2   0.50000     0.0800000    0.0600000   2.494471e-04  1.671101e-07
    521    554   2   0.50000     0.0800000    0.0600000   2.494471e-04  1.671101e-07
    551    524   2   0.50000     0.0600000   -0.1200000   2.494471e-04  1.671101e-07
    551    553   2   0.50000     0.0600000    0.0600000   6.128906e-05  1.496315e-08
    551    554   2   0.50000     0.0600000    0.0600000   6.128906e-05  1.496315e-08
    552    524   2   0.50000     0.0600000   -0.1200000   2.494471e-04  1.671101e-07
    552    553   2   0.50000     0.0600000    0.0600000   6.128906e-05  1.496315e-08
    552    554   2   0.50000     0.0600000    0.0600000   6.128906e-05  1.496315e-08
    522    525   2   0.50000    -0.1200000   -0.1200000   1.015252e-03  1.866303e-06
    522    555   2   0.50000    -0.1200000    0.0600000   2.494471e-04  1.671101e-07
    522    556   2   0.50000    -0.1200000    0.0600000   2.494471e-04  1.671101e-07
    553    525   2   0.50000     0.0600000   -0.1200000   2.494471e-04  1.671101e-07
    553    555   2   0.50000     0.0600000    0.0600000   6.128906e-05  1.496315e-08
    553    556   2   0.50000     0.0600000    0.0600000   6.128906e-05  1.496315e-08
    554    525   2   0.50000     0.0600000   -0.1200000   2.494471e-04  1.671101e-07
    554    555   2   0.50000     0.0600000    0.0600000   6.128906e-05  1.496315e-08
    554    556   2   0.50000     0.0600000    0.0600000   6.128906e-05  1.496315e-08
    523    526   2   0.50000    -0.1200000    0.0800000   1.015252e-03  1.866303e-06
    523    557   2   0.50000    -0.1200000    0.0600000   2.494471e-04  1.671101e-07
    523    558   2   0.50000    -0.1200000    0.0600000   2.494471e-04  1.671101e-07
    555    526   2   0.50000     0.0600000    0.0800000   2.494471e-04  1.671101e-07
    555    557   2   0.50000     0.0600000    0.0600000   6.128906e-05  1.496315e-08
    555    558   2   0.50000     0.0600000    0.0600000   6.128906e-05  1.496315e-08
    556    526   2   0.50000     0.0600000    0.0800000   2.494471e-04  1.671101e-07
    556    557   2   0.50000     0.0600000    0.0600000   6.128906e-05  1.496315e-08
    556    558   2   0.50000     0.0600000    0.0600000   6.128906e-05  1.496315e-08
    524    527   2   0.50000    -0.1200000   -0.5000000   1.304585e-03  1.920112e-06
    524    559   2   0.50000    -0.1200000    0.0600000   2.494471e-04  1.671101e-07
    524    560   2   0.50000    -0.1200000    0.0600000   2.494471e-04  1.671101e-07
    557    527   2   0.50000     0.0600000   -0.5000000   3.205360e-04  1.719281e-07
    557    559   2   0.50000     0.0600000    0.0600000   6.128906e-05  1.496315e-08
    557    560   2   0.50000     0.0600000    0.0600000   6.128906e-05  1.496315e-08
    558    527   2   0.50000     0.0600000   -0.5000000   3.205360e-04  1.719281e-07
    558    559   2   0.50000     0.0600000    0.0600000   6.128906e-05  1.496315e-08
    558    560   2   0.50000     0.0600000    0.0600000   6.128906e-05  1.496315e-08
    525    561   2   0.50000    -0.1200000    0.3000000   1.995577e-06  1.069504e-11
    525    562   2   0.50000    -0.1200000    0.5000000   1.575021e-03  3.561100e-06
    559    561   2   0.50000     0.0600000    0.3000000   4.903125e-07  9.576416e-13
    559    562   2   0.50000     0.0600000    0.5000000   3.869820e-04  3.188634e-07
    560    561   2   0.50000     0.0600000    0.3000000   4.903125e-07  9.576416e-13
    560    562   2   0.50000     0.0600000    0.5000000   3.869820e-04  3.188634e-07
    526    563   2   0.50000     0.0800000   -0.5000000   1.095425e-03  1.218041e-06
    526    564   2   0.50000     0.0800000   -0.1200000   1.015252e-03  1.866303e-06
    561    563   2   0.50000     0.3000000   -0.5000000   2.153164e-06  6.980110e-12
    561    564   2   0.50000     0.3000000   -0.1200000   1.995577e-06  1.069504e-11
    527    565   2   0.50000    -0.5000000   -0.1200000   1.304585e-03  1.920112e-06
    527    584   2   0.50000    -0.5000000    0.0600000   3.205360e-04  1.719281e-07
    527    585   2   0.50000    -0.5000000    0.0600000   3.205360e-04  1.719281e-07
    563    565   2   0.50000    -0.5000000   -0.1200000   1.095425e-03  1.218041e-06
    563    584   2   0.50000    -0.5000000    0.0600000   2.691455e-04  1.090642e-07
    563    585   2   0.50000    -0.5000000    0.0600000   2.691455e-04  1.090642e-07
    562    566   2   0.50000     0.5000000   -0.1200000   1.575021e-03  3.561100e-06
    562    586   2   0.50000     0.5000000    0.0600000   3.869820e-04  3.188634e-07
    562    587   2   0.50000     0.5000000    0.0600000   3.869820e-04  3.188634e-07
    584    566   2   0.50000     0.0600000   -0.1200000   2.494471e-04  1.671101e-07
    584    586   2   0.50000     0.0600000    0.0600000   6.128906e-05  1.496315e-08
    584    587   2   0.50000     0.0600000    0.0600000   6.128906e-05  1.496315e-08
    585    566   2   0.50000     0.0600000   -0.1200000   2.494471e-04  1.671101e-07
    585    586   2   0.50000     0.0600000    0.0600000   6.128906e-05  1.496315e-08
    585    587   2   0.50000     0.0600000    0.0600000   6.128906e-05  1.496315e-08
    564    567   2   0.50000    -0.1200000   -0.1200000   1.015252e-03  1.866303e-06
    564    588   2   0.50000    -0.1200000    0.0600000   2.494471e-04  1.671101e-07
    564    589   2   0.50000    -0.1200000    0.0600000   2.494471e-04  1.671101e-07
    586    567   2   0.50000     0.0600000   -0.1200000   2.494471e-04  1.671101e-07
    586    588   2   0.50000     0.0600000    0.0600000   6.128906e-05  1.496315e-08
    586    589   2   0.50000     0.0600000    0.0600000   6.128906e-05  1.496315e-08
    587    567   2   0.50000     0.0600000   -0.1200000   2.494471e-04  1.671101e-07
    587    588   2   0.50000     0.0600000    0.0600000   6.128906e-05  1.496315e-08
    587    589   2   0.50000     0.0600000    0.0600000   6.128906e-05  1.496315e-08
    565    568   2   0.50000    -0.1200000   -0.1200000   1.015252e-03  1.866303e-06
    565    590   2   0.50000    -0.1200000    0.0600000   2.494471e-04  1.671101e-07
    565    591   2   0.50000    -0.1200000    0.0600000   2.494471e-04  1.671101e-07
    588    568   2   0.50000     0.0600000   -0.1200000   2.494471e-04  1.671101e-07
    588    590   2   0.50000     0.0600000    0.0600000   6.128906e-05  1.496315e-08
    588    591   2   0.50000     0.0600000    0.0600000   6.128906e-05  1.496315e-08
    589    568   2   0.50000     0.0600000   -0.1200000   2.494471e-04  1.671101e-07
    589    590   2   0.50000     0.0600000    0.0600000   6.128906e-05  1.496315e-08
    589    591   2   0.50000     0.0600000    0.0600000   6.128906e-05  1.496315e-08
    566    569   2   0.50000    -0.1200000   -0.1200000   1.015252e-03  1.866303e-06
    566    592   2   0.50000    -0.1200000    0.0600000   2.494471e-04  1.671101e-07
    566    593   2   0.50000    -0.1200000    0.0600000   2.494471e-04  1.671101e-07
    590    569   2   0.50000     0.0600000   -0.1200000   2.494471e-04  1.671101e-07
    590    592   2   0.50000     0.0600000    0.0600000   6.128906e-05  1.496315e-08
    590    593   2   0.50000     0.0600000    0.0600000   6.128906e-05  1.496315e-08
    591    569   2   0.50000     0.0600000   -0.1200000   2.494471e-04  1.671101e-07
    591    592   2   0.50000     0.0600000    0.0600000   6.128906e-05  1.496315e-08
    591    593   2   0.50000     0.0600000    0.0600000   6.128906e-05  1.496315e-08
    567    570   2   0.50000    -0.1200000   -0.1200000   1.015252e-03  1.866303e-06
    567    594   2   0.50000    -0.1200000    0.0600000   2.494471e-04  1.671101e-07
    567    595   2   0.50000    -0.1200000    0.0600000   2.494471e-04  1.671101e-07
    592    570   2   0.50000     0.0600000   -0.1200000   2.494471e-04  1.671101e-07
    592    594   2   0.50000     0.0600000    0.0600000   6.128906e-05  1.496315e-08
    592    595   2   0.50000     0.0600000    0.0600000   6.128906e-05  1.496315e-08
    593    570   2   0.50000     0.0600000   -0.1200000   2.494471e-04  1.671101e-07
    593    594   2   0.50000     0.0600000    0.0600000   6.128906e-05  1.496315e-08
    593    595   2   0.50000     0.0600000    0.0600000   6.128906e-05  1.496315e-08
    568    571   2   0.50000    -0.1200000   -0.1200000   1.015252e-03  1.866303e-06
    568    596   2   0.50000    -0.1200000    0.0600000   2.494471e-04  1.671101e-07
    568    597   2   0.50000    -0.1200000    0.0600000   2.494471e-04  1.671101e-07
    594    571   2   0.50000     0.0600000   -0.1200000   2.494471e-04  1.671101e-07
    594    596   2   0.50000     0.0600000    0.0600000   6.128906e-05  1.496315e-08
    594    597   2   0.50000     0.0600000    0.0600000   6.128906e-05  1.496315e-08
    595    571   2   0.50000     0.0600000   -0.1200000   2.494471e-04  1.671101e-07
    595    596   2   0.50000     0.0600000    0.0600000   6.128906e-05  1.496315e-08
    595    597   2   0.50000     0.0600000    0.0600000   6.128906e-05  1.496315e-08
    569    572   2   0.50000    -0.1200000   -0.1200000   1.015252e-03  1.866303e-06
    569    598   2   0.50000    -0.1200000    0.0600000   2.494471e-04  1.671101e-07
    569    599   2   0.50000    -0.1200000    0.0600000   2.494471e-04  1.671101e-07
    596    572   2   0.50000     0.0600000   -0.1200000   2.494471e-04  1.671101e-07
    596    598   2   0.50000     0.0600000    0.0600000   6.128906e-05  1.496315e-08
    596    599   2   0.50000     0.0600000    0.0600000   6.128906e-05  1.496315e-08
    597    572   2   0.50000     0.0600000   -0.1200000   2.494471e-04  1.671101e-07
    597    598   2   0.50000     0.0600000    0.0600000   6.128906e-05  1.496315e-08
    597    599   2   0.50000     0.0600000    0.0600000   6.128906e-05  1.496315e-08
    570    573   2   0.50000    -0.1200000   -0.1200000   1.015252e-03  1.866303e-06
    570    600   2   0.50000    -0.1200000    0.0600000   2.494471e-04  1.671101e-07
    570    601   2   0.50000    -0.1200000    0.0600000   2.494471e-04  1.671101e-07
    598    573   2   0.50000     0.0600000   -0.1200000   2.494471e-04  1.671101e-07
    598    600   2   0.50000     0.0600000    0.0600000   6.128906e-05  1.496315e-08
    598    601   2   0.50000     0.0600000    0.0600000   6.128906e-05  1.496315e-08
    599    573   2   0.50000     0.0600000   -0.1200000   2.494471e-04  1.671101e-07
    599    600   2   0.50000     0.0600000    0.0600000   6.128906e-05  1.496315e-08
    599    601   2   0.50000     0.0600000    0.0600000   6.128906e-05  1.496315e-08
    571    574   2   0.50000    -0.1200000    0.5000000   1.575021e-03  3.561100e-06
    571    602   2   0.50000    -0.1200000    0.0600000   2.494471e-04  1.671101e-07
    571    603   2   0.50000    -0.1200000    0.0600000   2.494471e-04  1.671101e-07
    600    574   2   0.50000     0.0600000    0.5000000   3.869820e-04  3.188634e-07
    600    602   2   0.50000     0.0600000    0.0600000   6.128906e-05  1.496315e-08
    600    603   2   0.50000     0.0600000    0.0600000   6.128906e-05  1.496315e-08
    601    574   2   0.50000     0.0600000    0.5000000   3.869820e-04  3.188634e-07
    601    602   2   0.50000     0.0600000    0.0600000   6.128906e-05  1.496315e-08
    601    603   2   0.50000     0.0600000    0.0600000   6.128906e-05  1.496315e-08
    572    575   2   0.50000    -0.1200000   -0.5000000   1.095425e-03  1.218041e-06
    572    576   2   0.50000    -0.1200000   -0.5000000   1.304585e-03  1.920112e-06
    602    575   2   0.50000     0.0600000   -0.5000000   2.691455e-04  1.090642e-07
    602    576   2   0.50000     0.0600000   -0.5000000   3.205360e-04  1.719281e-07
    603    575   2   0.50000     0.0600000   -0.5000000   2.691455e-04  1.090642e-07
    603    576   2   0.50000     0.0600000   -0.5000000   3.205360e-04  1.719281e-07
    573    577   2   0.50000    -0.1200000    0.0800000   1.015252e-03  1.866303e-06
    573    604   2   0.50000    -0.1200000    0.3000000   1.995577e-06  1.069504e-11
    575    577   2   0.50000    -0.5000000    0.0800000   1.095425e-03  1.218041e-06
    575    604   2   0.50000    -0.5000000    0.3000000   2.153164e-06  6.980110e-12
    574    578   2   0.50000     0.5000000   -0.1200000   1.575021e-03  3.561100e-06
    574    605   2   0.50000     0.5000000    0.0600000   3.869820e-04  3.188634e-07
    574    606   2   0.50000     0.5000000    0.0600000   3.869820e-04  3.188634e-07
    604    578   2   0.50000     0.3000000   -0.1200000   1.995577e-06  1.069504e-11
    604    605   2   0.50000     0.3000000    0.0600000   4.903125e-07  9.576416e-13
    604    606   2   0.50000     0.3000000    0.0600000   4.903125e-07  9.576416e-13
    576    579   2   0.50000    -0.5000000   -0.1200000   1.304585e-03  1.920112e-06
    576    607   2   0.50000    -0.5000000    0.0600000   3.205360e-04  1.719281e-07
    576    608   2   0.50000    -0.5000000    0.0600000   3.205360e-04  1.719281e-07
    605    579   2   0.50000     0.0600000   -0.1200000   2.494471e-04  1.671101e-07
    605    607   2   0.50000     0.0600000    0.0600000   6.128906e-05  1.496315e-08
    605    608   2   0.50000     0.0600000    0.0600000   6.128906e-05  1.496315e-08
    606    579   2   0.50000     0.0600000   -0.1200000   2.494471e-04  1.671101e-07
    606    607   2   0.50000     0.0600000    0.0600000   6.128906e-05  1.496315e-08
    606    608   2   0.50000     0.0600000    0.0600000   6.128906e-05  1.496315e-08
    577    580   2   0.50000     0.0800000   -0.1200000   1.015252e-03  1.866303e-06
    577    609   2   0.50000     0.0800000    0.0600000   2.494471e-04  1.671101e-07
    577    610   2   0.50000     0.0800000    0.0600000   2.494471e-04  1.671101e-07
    607    580   2   0.50000     0.0600000   -0.1200000   2.494471e-04  1.671101e-07
    607    609   2   0.50000     0.0600000    0.0600000   6.128906e-05  1.496315e-08
    607    610   2   0.50000     0.0600000    0.0600000   6.128906e-05  1.496315e-08
    608    580   2   0.50000     0.0600000   -0.1200000   2.494471e-04  1.671101e-07
    608    609   2   0.50000     0.0600000    0.0600000   6.128906e-05  1.496315e-08
    608    610   2   0.50000     0.0600000    0.0600000   6.128906e-05  1.496315e-08
    578    581   2   0.50000    -0.1200000   -0.1200000   1.015252e-03  1.866303e-06
    578    611   2   0.50000    -0.1200000    0.0600000   2.494471e-04  1.671101e-07
    578    612   2   0.50000    -0.1200000    0.0600000   2.494471e-04  1.671101e-07
    609    581   2   0.50000     0.0600000   -0.1200000   2.494471e-04  1.671101e-07
    609    611   2   0.50000     0.0600000    0.0600000   6.128906e-05  1.496315e-08
    609    612   2   0.50000     0.0600000    0.0600000   6.128906e-05  1.496315e-08
    610    581   2   0.50000     0.0600000   -0.1200000   2.494471e-04  1.671101e-07
    610    611   2   0.50000     0.0600000    0.0600000   6.128906e-05  1.496315e-08
    610    612   2   0.50000     0.0600000    0.0600000   6.128906e-05  1.496315e-08
    579    582   2   0.50000    -0.1200000    0.0800000   1.015252e-03  1.866303e-06
    579    613   2   0.50000    -0.1200000    0.0600000   2.494471e-04  1.671101e-07
    579    614   2   0.50000    -0.1200000    0.0600000   2.494471e-04  1.671101e-07
    611    582   2   0.50000     0.0600000    0.0800000   2.494471e-04  1.671101e-07
    611    613   2   0.50000     0.0600000    0.0600000   6.128906e-05  1.496315e-08
    611    614   2   0.50000     0.0600000    0.0600000   6.128906e-05  1.496315e-08
    612    582   2   0.50000     0.0600000    0.0800000   2.494471e-04  1.671101e-07
    612    613   2   0.50000     0.0600000    0.0600000   6.128906e-05  1.496315e-08
    612    614   2   0.50000     0.0600000    0.0600000   6.128906e-05  1.496315e-08
    580    583   2   0.50000    -0.1200000   -0.5000000   1.304585e-03  1.920112e-06
    580    615   2   0.50000    -0.1200000    0.0600000   2.494471e-04  1.671101e-07
    580    616   2   0.50000    -0.1200000    0.0600000   2.494471e-04  1.671101e-07
    613    583   2   0.50000     0.0600000   -0.5000000   3.205360e-04  1.719281e-07
    613    615   2   0.50000     0.0600000    0.0600000   6.128906e-05  1.496315e-08
    613    616   2   0.50000     0.0600000    0.0600000   6.128906e-05  1.496315e-08
    614    583   2   0.50000     0.0600000   -0.5000000   3.205360e-04  1.719281e-07
    614    615   2   0.50000     0.0600000    0.0600000   6.128906e-05  1.496315e-08
    614    616   2   0.50000     0.0600000    0.0600000   6.128906e-05  1.496315e-08
    581    617   2   0.50000    -0.1200000    0.3000000   1.995577e-06  1.069504e-11
    581    618   2   0.50000    -0.1200000    0.5000000   1.575021e-03  3.561100e-06
    615    617   2   0.50000     0.0600000    0.3000000   4.903125e-07  9.576416e-13
    615    618   2   0.50000     0.0600000    0.5000000   3.869820e-04  3.188634e-07
    616    617   2   0.50000     0.0600000    0.3000000   4.903125e-07  9.576416e-13
    616    618   2   0.50000     0.0600000    0.5000000   3.869820e-04  3.188634e-07
    582    619   2   0.50000     0.0800000   -0.5000000   1.095425e-03  1.218041e-06
    582    620   2   0.50000     0.0800000   -0.1200000   1.015252e-03  1.866303e-06
    617    619   2   0.50000     0.3000000   -0.5000000   2.153164e-06  6.980110e-12
    617    620   2   0.50000     0.3000000   -0.1200000   1.995577e-06  1.069504e-11
    583    621   2   0.50000    -0.5000000   -0.1200000   1.304585e-03  1.920112e-06
    583    640   2   0.50000    -0.5000000    0.0600000   3.205360e-04  1.719281e-07
    583    641   2   0.50000    -0.5000000    0.0600000   3.205360e-04  1.719281e-07
    619    621   2   0.50000    -0.5000000   -0.1200000   1.095425e-03  1.218041e-06
    619    640   2   0.50000    -0.5000000    0.0600000   2.691455e-04  1.090642e-07
    619    641   2   0.50000    -0.5000000    0.0600000   2.691455e-04  1.090642e-07
    618    622   2   0.50000     0.5000000   -0.1200000   1.575021e-03  3.561100e-06
    618    642   2   0.50000     0.5000000    0.0600000   3.869820e-04  3.188634e-07
    618    643   2   0.50000     0.5000000    0.0600000   3.869820e-04  3.188634e-07
    640    622   2   0.50000     0.0600000   -0.1200000   2.494471e-04  1.671101e-07
    640    642   2   0.50000     0.0600000    0.0600000   6.128906e-05  1.496315e-08
    640    643   2   0.50000     0.0600000    0.0600000   6.128906e-05  1.496315e-08
    641    622   2   0.50000     0.0600000   -0.1200000   2.494471e-04  1.671101e-07
    641    642   2   0.50000     0.0600000    0.0600000   6.128906e-05  1.496315e-08
    641    643   2   0.50000     0.0600000    0.0600000   6.128906e-05  1.496315e-08
    620    623   2   0.50000    -0.1200000   -0.1200000   1.015252e-03  1.866303e-06
    620    644   2   0.50000    -0.1200000    0.0600000   2.494471e-04  1.671101e-07
    620    645   2   0.50000    -0.1200000    0.0600000   2.494471e-04  1.671101e-07
    642    623   2   0.50000     0.0600000   -0.1200000   2.494471e-04  1.671101e-07
    642    644   2   0.50000     0.0600000    0.0600000   6.128906e-05  1.496315e-08
    642    645   2   0.50000     0.0600000    0.0600000   6.128906e-05  1.496315e-08
    643    623   2   0.50000     0.0600000   -0.1200000   2.494471e-04  1.671101e-07
    643    644   2   0.50000     0.0600000    0.0600000   6.128906e-05  1.496315e-08
    643    645   2   0.50000     0.0600000    0.0600000   6.128906e-05  1.496315e-08
    621    624   2   0.50000    -0.1200000   -0.1200000   1.015252e-03  1.866303e-06
    621    646   2   0.50000    -0.1200000    0.0600000   2.494471e-04  1.671101e-07
    621    647   2   0.50000    -0.1200000    0.0600000   2.494471e-04  1.671101e-07
    644    624   2   0.50000     0.0600000   -0.1200000   2.494471e-04  1.671101e-07
    644    646   2   0.50000     0.0600000    0.0600000   6.128906e-05  1.496315e-08
    644    647   2   0.50000     0.0600000    0.0600000   6.128906e-05  1.496315e-08
    645    624   2   0.50000     0.0600000   -0.1200000   2.494471e-04  1.671101e-07
    645    646   2   0.50000     0.0600000    0.0600000   6.128906e-05  1.496315e-08
    645    647   2   0.50000     0.0600000    0.0600000   6.128906e-05  1.496315e-08
    622    625   2   0.50000    -0.1200000   -0.1200000   1.015252e-03  1.866303e-06
    622    648   2   0.50000    -0.1200000    0.0600000   2.494471e-04  1.671101e-07
    622    649   2   0.50000    -0.1200000    0.0600000   2.494471e-04  1.671101e-07
    646    625   2   0.50000     0.0600000   -0.1200000   2.494471e-04  1.671101e-07
    646    648   2   0.50000     0.0600000    0.0600000   6.128906e-05  1.496315e-08
    646    649   2   0.50000     0.0600000    0.0600000   6.128906e-05  1.496315e-08
    647    625   2   0.50000     0.0600000   -0.1200000   2.494471e-04  1.671101e-07
    647    648   2   0.50000     0.0600000    0.0600000   6.128906e-05  1.496315e-08
    647    649   2   0.50000     0.0600000    0.0600000   6.128906e-05  1.496315e-08
    623    626   2   0.50000    -0.1200000   -0.1200000   1.015252e-03  1.866303e-06
    623    650   2   0.50000    -0.1200000    0.0600000   2.494471e-04  1.671101e-07
    623    651   2   0.50000    -0.1200000    0.0600000   2.494471e-04  1.671101e-07
    648    626   2   0.50000     0.0600000   -0.1200000   2.494471e-04  1.671101e-07
    648    650   2   0.50000     0.0600000    0.0600000   6.128906e-05  1.496315e-08
    648    651   2   0.50000     0.0600000    0.0600000   6.128906e-05  1.496315e-08
    649    626   2   0.50000     0.0600000   -0.1200000   2.494471e-04  1.671101e-07
    649    650   2   0.50000     0.0600000    0.0600000   6.128906e-05  1.496315e-08
    649    651   2   0.50000     0.0600000    0.0600000   6.128906e-05  1.496315e-08
    624    627   2   0.50000    -0.1200000   -0.1200000   1.015252e-03  1.866303e-06
    624    652   2   0.50000    -0.1200000    0.0600000   2.494471e-04  1.671101e-07
    624    653   2   0.50000    -0.1200000    0.0600000   2.494471e-04  1.671101e-07
    650    627   2   0.50000     0.0600000   -0.1200000   2.494471e-04  1.671101e-07
    650    652   2   0.50000     0.0600000    0.0600000   6.128906e-05  1.496315e-08
    650    653   2   0.50000     0.0600000    0.0600000   6.128906e-05  1.496315e-08
    651    627   2   0.50000     0.0600000   -0.1200000   2.494471e-04  1.671101e-07
    651    652   2   0.50000     0.0600000    0.0600000   6.128906e-05  1.496315e-08
    651    653   2   0.50000     0.0600000    0.0600000   6.128906e-05  1.496315e-08
    625    628   2   0.50000    -0.1200000   -0.1200000   1.015252e-03  1.866303e-06
    625    654   2   0.50000    -0.1200000    0.0600000   2.494471e-04  1.671101e-07
    625    655   2   0.50000    -0.1200000    0.0600000   2.494471e-04  1.671101e-07
    652    628   2   0.50000     0.0600000   -0.1200000   2.494471e-04  1.671101e-07
    652    654   2   0.50000     0.0600000    0.0600000   6.128906e-05  1.496315e-08
    652    655   2   0.50000     0.0600000    0.0600000   6.128906e-05  1.496315e-08
    653    628   2   0.50000     0.0600000   -0.1200000   2.494471e-04  1.671101e-07
    653    654   2   0.50000     0.0600000    0.0600000   6.128906e-05  1.496315e-08
    653    655   2   0.50000     0.0600000    0.0600000   6.128906e-05  1.496315e-08
    626    629   2   0.50000    -0.1200000   -0.1200000   1.015252e-03  1.866303e-06
    626    656   2   0.50000    -0.1200000    0.0600000   2.494471e-04  1.671101e-07
    626    657   2   0.50000    -0.1200000    0.0600000   2.494471e-04  1.671101e-07
    654    629   2   0.50000     0.0600000   -0.1200000   2.494471e-04  1.671101e-07
    654    656   2   0.50000     0.0600000    0.0600000   6.128906e-05  1.496315e-08
    654    657   2   0.50000     0.0600000    0.0600000   6.128906e-05  1.496315e-08
    655    629   2   0.50000     0.0600000   -0.1200000   2.494471e-04  1.671101e-07
    655    656   2   0.50000     0.0600000    0.0600000   6.128906e-05  1.496315e-08
    655    657   2   0.50000     0.0600000    0.0600000   6.128906e-05  1.496315e-08
    627    630   2   0.50000    -0.1200000    0.5000000   1.575021e-03  3.561100e-06
    627    658   2   0.50000    -0.1200000    0.0600000   2.494471e-04  1.671101e-07
    627    659   2   0.50000    -0.1200000    0.0600000   2.494471e-04  1.671101e-07
    656    630   2   0.50000     0.0600000    0.5000000   3.869820e-04  3.188634e-07
    656    658   2   0.50000     0.0600000    0.0600000   6.128906e-05  1.496315e-08
    656    659   2   0.50000     0.0600000    0.0600000   6.128906e-05  1.496315e-08
    657    630   2   0.50000     0.0600000    0.5000000   3.869820e-04  3.188634e-07
    657    658   2   0.50000     0.0600000    0.0600000   6.128906e-05  1.496315e-08
    657    659   2   0.50000     0.0600000    0.0600000   6.128906e-05  1.496315e-08
    628    631   2   0.50000    -0.1200000   -0.5000000   1.095425e-03  1.218041e-06
    628    632   2   0.50000    -0.1200000   -0.5000000   1.304585e-03  1.920112e-06
    658    631   2   0.50000     0.0600000   -0.5000000   2.691455e-04  1.090642e-07
    658    632   2   0.50000     0.0600000   -0.5000000   3.205360e-04  1.719281e-07
    659    631   2   0.50000     0.0600000   -0.5000000   2.691455e-04  1.090642e-07
    659    632   2   0.50000     0.0600000   -0.5000000   3.205360e-04  1.719281e-07
    629    633   2   0.50000    -0.1200000    0.0800000   1.015252e-03  1.866303e-06
    629    660   2   0.50000    -0.1200000    0.3000000   1.995577e-06  1.069504e-11
    631    633   2   0.50000    -0.5000000    0.0800000   1.095425e-03  1.218041e-06
    631    660   2   0.50000    -0.5000000    0.3000000   2.153164e-06  6.980110e-12
    630    634   2   0.50000     0.5000000   -0.1200000   1.575021e-03  3.561100e-06
    630    661   2   0.50000     0.5000000    0.0600000   3.869820e-04  3.188634e-07
    630    662   2   0.50000     0.5000000    0.0600000   3.869820e-04  3.188634e-07
    660    634   2   0.50000     0.3000000   -0.1200000   1.995577e-06  1.069504e-11
    660    661   2   0.50000     0.3000000    0.0600000   4.903125e-07  9.576416e-13
    660    662   2   0.50000     0.3000000    0.0600000   4.903125e-07  9.576416e-13
    632    635   2   0.50000    -0.5000000   -0.1200000   1.304585e-03  1.920112e-06
    632    663   2   0.50000    -0.5000000    0.0600000   3.205360e-04  1.719281e-07
    632    664   2   0.50000    -0.5000000    0.0600000   3.205360e-04  1.719281e-07
    661    635   2   0.50000     0.0600000   -0.1200000   2.494471e-04  1.671101e-07
    661    663   2   0.50000     0.0600000    0.0600000   6.128906e-05  1.496315e-08
    661    664   2   0.50000     0.0600000    0.0600000   6.128906e-05  1.496315e-08
    662    635   2   0.50000     0.0600000   -0.1200000   2.494471e-04  1.671101e-07
    662    663   2   0.50000     0.0600000    0.0600000   6.128906e-05  1.496315e-08
    662    664   2   0.50000     0.0600000    0.0600000   6.128906e-05  1.496315e-08
    633    636   2   0.50000     0.0800000   -0.1200000   1.015252e-03  1.866303e-06
    633    665   2   0.50000     0.0800000    0.0600000   2.494471e-04  1.671101e-07
    633    666   2   0.50000     0.0800000    0.0600000   2.494471e-04  1.671101e-07
    663    636   2   0.50000     0.0600000   -0.1200000   2.494471e-04  1.671101e-07
    663    665   2   0.50000     0.0600000    0.0600000   6.128906e-05  1.496315e-08
    663    666   2   0.50000     0.0600000    0.0600000   6.128906e-05  1.496315e-08
    664    636   2   0.50000     0.0600000   -0.1200000   2.494471e-04  1.671101e-07
    664    665   2   0.50000     0.0600000    0.0600000   6.128906e-05  1.496315e-08
    664    666   2   0.50000     0.0600000    0.0600000   6.128906e-05  1.496315e-08
    634    637   2   0.50000    -0.1200000   -0.1200000   1.015252e-03  1.866303e-06
    634    667   2   0.50000    -0.1200000    0.0600000   2.494471e-04  1.671101e-07
    634    668   2   0.50000    -0.1200000    0.0600000   2.494471e-04  1.671101e-07
    665    637   2   0.50000     0.0600000   -0.1200000   2.494471e-04  1.671101e-07
    665    667   2   0.50000     0.0600000    0.0600000   6.128906e-05  1.496315e-08
    665    668   2   0.50000     0.0600000    0.0600000   6.128906e-05  1.496315e-08
    666    637   2   0.50000     0.0600000   -0.1200000   2.494471e-04  1.671101e-07
    666    667   2   0.50000     0.0600000    0.0600000   6.128906e-05  1.496315e-08
    666    668   2   0.50000     0.0600000    0.0600000   6.128906e-05  1.496315e-08
    635    638   2   0.50000    -0.1200000    0.0800000   1.015252e-03  1.866303e-06
    635    669   2   0.50000    -0.1200000    0.0600000   2.494471e-04  1.671101e-07
    635    670   2   0.50000    -0.1200000    0.0600000   2.494471e-04  1.671101e-07
    667    638   2   0.50000     0.0600000    0.0800000   2.494471e-04  1.671101e-07
    667    669   2   0.50000     0.0600000    0.0600000   6.128906e-05  1.496315e-08
    667    670   2   0.50000     0.0600000    0.0600000   6.128906e-05  1.496315e-08
    668    638   2   0.50000     0.0600000    0.0800000   2.494471e-04  1.671101e-07
    668    669   2   0.50000     0.0600000    0.0600000   6.128906e-05  1.496315e-08
    668    670   2   0.50000     0.0600000    0.0600000   6.128906e-05  1.496315e-08
    636    639   2   0.50000    -0.1200000   -0.5000000   1.304585e-03  1.920112e-06
    636    671   2   0.50000    -0.1200000    0.0600000   2.494471e-04  1.671101e-07
    636    672   2   0.50000    -0.1200000    0.0600000   2.494471e-04  1.671101e-07
    669    639   2   0.50000     0.0600000   -0.5000000   3.205360e-04  1.719281e-07
    669    671   2   0.50000     0.0600000    0.0600000   6.128906e-05  1.496315e-08
    669    672   2   0.50000     0.0600000    0.0600000   6.128906e-05  1.496315e-08
    670    639   2   0.50000     0.0600000   -0.5000000   3.205360e-04  1.719281e-07
    670    671   2   0.50000     0.0600000    0.0600000   6.128906e-05  1.496315e-08
    670    672   2   0.50000     0.0600000    0.0600000   6.128906e-05  1.496315e-08
    637    673   2   0.50000    -0.1200000    0.3000000   1.995577e-06  1.069504e-11
    637    674   2   0.50000    -0.1200000    0.5000000   1.575021e-03  3.561100e-06
    671    673   2   0.50000     0.0600000    0.3000000   4.903125e-07  9.576416e-13
    671    674   2   0.50000     0.0600000    0.5000000   3.869820e-04  3.188634e-07
    672    673   2   0.50000     0.0600000    0.3000000   4.903125e-07  9.576416e-13
    672    674   2   0.50000     0.0600000    0.5000000   3.869820e-04  3.188634e-07
    638    675   2   0.50000     0.0800000   -0.5000000   1.095425e-03  1.218041e-06
    638    676   2   0.50000     0.0800000   -0.1200000   1.015252e-03  1.866303e-06
    673    675   2   0.50000     0.3000000   -0.5000000   2.153164e-06  6.980110e-12
    673    676   2   0.50000     0.3000000   -0.1200000   1.995577e-06  1.069504e-11
    639    677   2   0.50000    -0.5000000   -0.1200000   1.304585e-03  1.920112e-06
    639    696   2   0.50000    -0.5000000    0.0600000   3.205360e-04  1.719281e-07
    639    697   2   0.50000    -0.5000000    0.0600000   3.205360e-04  1.719281e-07
    675    677   2   0.50000    -0.5000000   -0.1200000   1.095425e-03  1.218041e-06
    675    696   2   0.50000    -0.5000000    0.0600000   2.691455e-04  1.090642e-07
    675    697   2   0.50000    -0.5000000    0.0600000   2.691455e-04  1.090642e-07
    674    678   2   0.50000     0.5000000   -0.1200000   1.575021e-03  3.561100e-06
    674    698   2   0.50000     0.5000000    0.0600000   3.869820e-04  3.188634e-07
    674    699   2   0.50000     0.5000000    0.0600000   3.869820e-04  3.188634e-07
    696    678   2   0.50000     0.0600000   -0.1200000   2.494471e-04  1.671101e-07
    696    698   2   0.50000     0.0600000    0.0600000   6.128906e-05  1.496315e-08
    696    699   2   0.50000     0.0600000    0.0600000   6.128906e-05  1.496315e-08
    697    678   2   0.50000     0.0600000   -0.1200000   2.494471e-04  1.671101e-07
    697    698   2   0.50000     0.0600000    0.0600000   6.128906e-05  1.496315e-08
    697    699   2   0.50000     0.0600000    0.0600000   6.128906e-05  1.496315e-08
    676    679   2   0.50000    -0.1200000   -0.1200000   1.015252e-03  1.866303e-06
    676    700   2   0.50000    -0.1200000    0.0600000   2.494471e-04  1.671101e-07
    676    701   2   0.50000    -0.1200000    0.0600000   2.494471e-04  1.671101e-07
    698    679   2   0.50000     0.0600000   -0.1200000   2.494471e-04  1.671101e-07
    698    700   2   0.50000     0.0600000    0.0600000   6.128906e-05  1.496315e-08
    698    701   2   0.50000     0.0600000    0.0600000   6.128906e-05  1.496315e-08
    699    679   2   0.50000     0.0600000   -0.1200000   2.494471e-04  1.671101e-07
    699    700   2   0.50000     0.0600000    0.0600000   6.128906e-05  1.496315e-08
    699    701   2   0.50000     0.0600000    0.0600000   6.128906e-05  1.496315e-08
    677    680   2   0.50000    -0.1200000   -0.1200000   1.015252e-03  1.866303e-06
    677    702   2   0.50000    -0.1200000    0.0600000   2.494471e-04  1.671101e-07
    677    703   2   0.50000    -0.1200000    0.0600000   2.494471e-04  1.671101e-07
    700    680   2   0.50000     0.0600000   -0.1200000   2.494471e-04  1.671101e-07
    700    702   2   0.50000     0.0600000    0.0600000   6.128906e-05  1.496315e-08
    700    703   2   0.50000     0.0600000    0.0600000   6.128906e-05  1.496315e-08
    701    680   2   0.50000     0.0600000   -0.1200000   2.494471e-04  1.671101e-07
    701    702   2   0.50000     0.0600000    0.0600000   6.128906e-05  1.496315e-08
    701    703   2   0.50000     0.0600000    0.0600000   6.128906e-05  1.496315e-08
    678    681   2   0.50000    -0.1200000   -0.1200000   1.015252e-03  1.866303e-06
    678    704   2   0.50000    -0.1200000    0.0600000   2.494471e-04  1.671101e-07
    678    705   2   0.50000    -0.1200000    0.0600000   2.494471e-04  1.671101e-07
    702    681   2   0.50000     0.0600000   -0.1200000   2.494471e-04  1.671101e-07
    702    704   2   0.50000     0.0600000    0.0600000   6.128906e-05  1.496315e-08
    702    705   2   0.50000     0.0600000    0.0600000   6.128906e-05  1.496315e-08
    703    681   2   0.50000     0.0600000   -0.1200000   2.494471e-04  1.671101e-07
    703    704   2   0.50000     0.0600000    0.0600000   6.128906e-05  1.496315e-08
    703    705   2   0.50000     0.0600000    0.0600000   6.128906e-05  1.496315e-08
    679    682   2   0.50000    -0.1200000   -0.1200000   1.015252e-03  1.866303e-06
    679    706   2   0.50000    -0.1200000    0.0600000   2.494471e-04  1.671101e-07
    679    707   2   0.50000    -0.1200000    0.0600000   2.494471e-04  1.671101e-07
    704    682   2   0.50000     0.0600000   -0.1200000   2.494471e-04  1.671101e-07
    704    706   2   0.50000     0.0600000    0.0600000   6.128906e-05  1.496315e-08
    704    707   2   0.50000     0.0600000    0.0600000   6.128906e-05  1.496315e-08
    705    682   2   0.50000     0.0600000   -0.1200000   2.494471e-04  1.671101e-07
    705    706   2   0.50000     0.0600000    0.0600000   6.128906e-05  1.496315e-08
    705    707   2   0.50000     0.0600000    0.0600000   6.128906e-05  1.496315e-08
    680    683   2   0.50000    -0.1200000   -0.1200000   1.015252e-03  1.866303e-06
    680    708   2   0.50000    -0.1200000    0.0600000   2.494471e-04  1.671101e-07
    680    709   2   0.50000    -0.1200000    0.0600000   2.494471e-04  1.671101e-07
    706    683   2   0.50000     0.0600000   -0.1200000   2.494471e-04  1.671101e-07
    706    708   2   0.50000     0.0600000    0.0600000   6.128906e-05  1.496315e-08
    706    709   2   0.50000     0.0600000    0.0600000   6.128906e-05  1.496315e-08
    707    683   2   0.50000     0.0600000   -0.1200000   2.494471e-04  1.671101e-07
    707    708   2   0.50000     0.0600000    0.0600000   6.128906e-05  1.496315e-08
    707    709   2   0.50000     0.0600000    0.0600000   6.128906e-05  1.496315e-08
    681    684   2   0.50000    -0.1200000   -0.1200000   1.015252e-03  1.866303e-06
    681    710   2   0.50000    -0.1200000    0.0600000   2.494471e-04  1.671101e-07
    681    711   2   0.50000    -0.1200000    0.0600000   2.494471e-04  1.671101e-07
    708    684   2   0.50000     0.0600000   -0.1200000   2.494471e-04  1.671101e-07
    708    710   2   0.50000     0.0600000    0.0600000   6.128906e-05  1.496315e-08
    708    711   2   0.50000     0.0600000    0.0600000   6.128906e-05  1.496315e-08
    709    684   2   0.50000     0.0600000   -0.1200000   2.494471e-04  1.671101e-07
    709    710   2   0.50000     0.0600000    0.0600000   6.128906e-05  1.496315e-08
    709    711   2   0.50000     0.0600000    0.0600000   6.128906e-05  1.496315e-08
    682    685   2   0.50000    -0.1200000   -0.1200000   1.015252e-03  1.866303e-06
    682    712   2   0.50000    -0.1200000    0.0600000   2.494471e-04  1.671101e-07
    682    713   2   0.50000    -0.1200000    0.0600000   2.494471e-04  1.671101e-07
    710    685   2   0.50000     0.0600000   -0.1200000   2.494471e-04  1.671101e-07
    710    712   2   0.50000     0.0600000    0.0600000   6.128906e-05  1.496315e-08
    710    713   2   0.50000     0.0600000    0.0600000   6.128906e-05  1.496315e-08
    711    685   2   0.50000     0.0600000   -0.1200000   2.494471e-04  1.671101e-07
    711    712   2   0.50000     0.0600000    0.0600000   6.128906e-05  1.496315e-08
    711    713   2   0.50000     0.0600000    0.0600000   6.128906e-05  1.496315e-08
    683    686   2   0.50000    -0.1200000    0.5000000   1.575021e-03  3.561100e-06
    683    714   2   0.50000    -0.1200000    0.0600000   2.494471e-04  1.671101e-07
    683    715   2   0.50000    -0.1200000    0.0600000   2.494471e-04  1.671101e-07
    712    686   2   0.50000     0.0600000    0.5000000   3.869820e-04  3.188634e-07
    712    714   2   0.50000     0.0600000    0.0600000   6.128906e-05  1.496315e-08
    712    715   2   0.50000     0.0600000    0.0600000   6.128906e-05  1.496315e-08
    713    686   2   0.50000     0.0600000    0.5000000   3.869820e-04  3.188634e-07
    713    714   2   0.50000     0.0600000    0.0600000   6.128906e-05  1.496315e-08
    713    715   2   0.50000     0.0600000    0.0600000   6.128906e-05  1.496315e-08
    684    687   2   0.50000    -0.1200000   -0.5000000   1.095425e-03  1.218041e-06
    684    688   2   0.50000    -0.1200000   -0.5000000   1.304585e-03  1.920112e-06
    714    687   2   0.50000     0.0600000   -0.5000000   2.691455e-04  1.090642e-07
    714    688   2   0.50000     0.0600000   -0.5000000   3.205360e-04  1.719281e-07
    715    687   2   0.50000     0.0600000   -0.5000000   2.691455e-04  1.090642e-07
    715    688   2   0.50000     0.0600000   -0.5000000   3.205360e-04  1.719281e-07
    685    689   2   0.50000    -0.1200000    0.0800000   1.015252e-03  1.866303e-06
    685    716   2   0.50000    -0.1200000    0.3000000   1.995577e-06  1.069504e-11
    687    689   2   0.50000    -0.5000000    0.0800000   1.095425e-03  1.218041e-06
    687    716   2   0.50000    -0.5000000    0.3000000   2.153164e-06  6.980110e-12
    686    690   2   0.50000     0.5000000   -0.1200000   1.575021e-03  3.561100e-06
    686    717   2   0.50000     0.5000000    0.0600000   3.869820e-04  3.188634e-07
    686    718   2   0.50000     0.5000000    0.0600000   3.869820e-04  3.188634e-07
    716    690   2   0.50000     0.3000000   -0.1200000   1.995577e-06  1.069504e-11
    716    717   2   0.50000     0.3000000    0.0600000   4.903125e-07  9.576416e-13
    716    718   2   0.50000     0.3000000    0.0600000   4.903125e-07  9.576416e-13
    688    691   2   0.50000    -0.5000000   -0.1200000   1.304585e-03  1.920112e-06
    688    719   2   0.50000    -0.5000000    0.0600000   3.205360e-04  1.719281e-07
    688    720   2   0.50000    -0.5000000    0.0600000   3.205360e-04  1.719281e-07
    717    691   2   0.50000     0.0600000   -0.1200000   2.494471e-04  1.671101e-07
    717    719   2   0.50000     0.0600000    0.0600000   6.128906e-05  1.496315e-08
    717    720   2   0.50000     0.0600000    0.0600000   6.128906e-05  1.496315e-08
    718    691   2   0.50000     0.0600000   -0.1200000   2.494471e-04  1.671101e-07
    718    719   2   0.50000     0.0600000    0.0600000   6.128906e-05  1.496315e-08
    718    720   2   0.50000     0.0600000    0.0600000   6.128906e-05  1.496315e-08
    689    692   2   0.50000     0.0800000   -0.1200000   1.015252e-03  1.866303e-06
    689    721   2   0.50000     0.0800000    0.0600000   2.494471e-04  1.671101e-07
    689    722   2   0.50000     0.0800000    0.0600000   2.494471e-04  1.671101e-07
    719    692   2   0.50000     0.0600000   -0.1200000   2.494471e-04  1.671101e-07
    719    721   2   0.50000     0.0600000    0.0600000   6.128906e-05  1.496315e-08
    719    722   2   0.50000     0.0600000    0.0600000   6.128906e-05  1.496315e-08
    720    692   2   0.50000     0.0600000   -0.1200000   2.494471e-04  1.671101e-07
    720    721   2   0.50000     0.0600000    0.0600000   6.128906e-05  1.496315e-08
    720    722   2   0.50000     0.0600000    0.0600000   6.128906e-05  1.496315e-08
    690    693   2   0.50000    -0.1200000   -0.1200000   1.015252e-03  1.866303e-06
    690    723   2   0.50000    -0.1200000    0.0600000   2.494471e-04  1.671101e-07
    690    724   2   0.50000    -0.1200000    0.0600000   2.494471e-04  1.671101e-07
    721    693   2   0.50000     0.0600000   -0.1200000   2.494471e-04  1.671101e-07
    721    723   2   0.50000     0.0600000    0.0600000   6.128906e-05  1.496315e-08
    721    724   2   0.50000     0.0600000    0.0600000   6.128906e-05  1.496315e-08
    722    693   2   0.50000     0.0600000   -0.1200000   2.494471e-04  1.671101e-07
    722    723   2   0.50000     0.0600000    0.0600000   6.128906e-05  1.496315e-08
    722    724   2   0.50000     0.0600000    0.0600000   6.128906e-05  1.496315e-08
    691    694   2   0.50000    -0.1200000    0.0800000   1.015252e-03  1.866303e-06
    691    725   2   0.50000    -0.1200000    0.0600000   2.494471e-04  1.671101e-07
    691    726   2   0.50000    -0.1200000    0.0600000   2.494471e-04  1.671101e-07
    723    694   2   0.50000     0.0600000    0.0800000   2.494471e-04  1.671101e-07
    723    725   2   0.50000     0.0600000    0.0600000   6.128906e-05  1.496315e-08
    723    726   2   0.50000     0.0600000    0.0600000   6.128906e-05  1.496315e-08
    724    694   2   0.50000     0.0600000    0.0800000   2.494471e-04  1.671101e-07
    724    725   2   0.50000     0.0600000    0.0600000   6.128906e-05  1.496315e-08
    724    726   2   0.50000     0.0600000    0.0600000   6.128906e-05  1.496315e-08
    692    695   2   0.50000    -0.1200000   -0.5000000   1.304585e-03  1.920112e-06
    692    727   2   0.50000    -0.1200000    0.0600000   2.494471e-04  1.671101e-07
    692    728   2   0.50000    -0.1200000    0.0600000   2.494471e-04  1.671101e-07
    725    695   2   0.50000     0.0600000   -0.5000000   3.205360e-04  1.719281e-07
    725    727   2   0.50000     0.0600000    0.0600000   6.128906e-05  1.496315e-08
    725    728   2   0.50000     0.0600000    0.0600000   6.128906e-05  1.496315e-08
    726    695   2   0.50000     0.0600000   -0.5000000   3.205360e-04  1.719281e-07
    726    727   2   0.50000     0.0600000    0.0600000   6.128906e-05  1.496315e-08
    726    728   2   0.50000     0.0600000    0.0600000   6.128906e-05  1.496315e-08
    693    729   2   0.50000    -0.1200000    0.3000000   1.995577e-06  1.069504e-11
    693    730   2   0.50000    -0.1200000    0.5000000   1.575021e-03  3.561100e-06
    727    729   2   0.50000     0.0600000    0.3000000   4.903125e-07  9.576416e-13
    727    730   2   0.50000     0.0600000    0.5000000   3.869820e-04  3.188634e-07
    728    729   2   0.50000     0.0600000    0.3000000   4.903125e-07  9.576416e-13
    728    730   2   0.50000     0.0600000    0.5000000   3.869820e-04  3.188634e-07
    694    731   2   0.50000     0.0800000   -0.5000000   1.095425e-03  1.218041e-06
    694    732   2   0.50000     0.0800000   -0.1200000   1.015252e-03  1.866303e-06
    729    731   2   0.50000     0.3000000   -0.5000000   2.153164e-06  6.980110e-12
    729    732   2   0.50000     0.3000000   -0.1200000   1.995577e-06  1.069504e-11
    695    733   2   0.50000    -0.5000000   -0.1200000   1.304585e-03  1.920112e-06
    695    752   2   0.50000    -0.5000000    0.0600000   3.205360e-04  1.719281e-07
    695    753   2   0.50000    -0.5000000    0.0600000   3.205360e-04  1.719281e-07
    731    733   2   0.50000    -0.5000000   -0.1200000   1.095425e-03  1.218041e-06
    731    752   2   0.50000    -0.5000000    0.0600000   2.691455e-04  1.090642e-07
    731    753   2   0.50000    -0.5000000    0.0600000   2.691455e-04  1.090642e-07
    730    734   2   0.50000     0.5000000   -0.1200000   1.575021e-03  3.561100e-06
    730    754   2   0.50000     0.5000000    0.0600000   3.869820e-04  3.188634e-07
    730    755   2   0.50000     0.5000000    0.0600000   3.869820e-04  3.188634e-07
    752    734   2   0.50000     0.0600000   -0.1200000   2.494471e-04  1.671101e-07
    752    754   2   0.50000     0.0600000    0.0600000   6.128906e-05  1.496315e-08
    752    755   2   0.50000     0.0600000    0.0600000   6.128906e-05  1.496315e-08
    753    734   2   0.50000     0.0600000   -0.1200000   2.494471e-04  1.671101e-07
    753    754   2   0.50000     0.0600000    0.0600000   6.128906e-05  1.496315e-08
    753    755   2   0.50000     0.0600000    0.0600000   6.128906e-05  1.496315e-08
    732    735   2   0.50000    -0.1200000   -0.1200000   1.015252e-03  1.866303e-06
    732    756   2   0.50000    -0.1200000    0.0600000   2.494471e-04  1.671101e-07
    732    757   2   0.50000    -0.1200000    0.0600000   2.494471e-04  1.671101e-07
    754    735   2   0.50000     0.0600000   -0.1200000   2.494471e-04  1.671101e-07
    754    756   2   0.50000     0.0600000    0.0600000   6.128906e-05  1.496315e-08
    754    757   2   0.50000     0.0600000    0.0600000   6.128906e-05  1.496315e-08
    755    735   2   0.50000     0.0600000   -0.1200000   2.494471e-04  1.671101e-07
    755    756   2   0.50000     0.0600000    0.0600000   6.128906e-05  1.496315e-08
    755    757   2   0.50000     0.0600000    0.0600000   6.128906e-05  1.496315e-08
    733    736   2   0.50000    -0.1200000   -0.1200000   1.015252e-03  1.866303e-06
    733    758   2   0.50000    -0.1200000    0.0600000   2.494471e-04  1.671101e-07
    733    759   2   0.50000    -0.1200000    0.0600000   2.494471e-04  1.671101e-07
    756    736   2   0.50000     0.0600000   -0.1200000   2.494471e-04  1.671101e-07
    756    758   2   0.50000     0.0600000    0.0600000   6.128906e-05  1.496315e-08
    756    759   2   0.50000     0.0600000    0.0600000   6.128906e-05  1.496315e-08
    757    736   2   0.50000     0.0600000   -0.1200000   2.494471e-04  1.671101e-07
    757    758   2   0.50000     0.0600000    0.0600000   6.128906e-05  1.496315e-08
    757    759   2   0.50000     0.0600000    0.0600000   6.128906e-05  1.496315e-08
    734    737   2   0.50000    -0.1200000   -0.1200000   1.015252e-03  1.866303e-06
    734    760   2   0.50000    -0.1200000    0.0600000   2.494471e-04  1.671101e-07
    734    761   2   0.50000    -0.1200000    0.0600000   2.494471e-04  1.671101e-07
    758    737   2   0.50000     0.0600000   -0.1200000   2.494471e-04  1.671101e-07
    758    760   2   0.50000     0.0600000    0.0600000   6.128906e-05  1.496315e-08
    758    761   2   0.50000     0.0600000    0.0600000   6.128906e-05  1.496315e-08
    759    737   2   0.50000     0.0600000   -0.1200000   2.494471e-04  1.671101e-07
    759    760   2   0.50000     0.0600000    0.0600000   6.128906e-05  1.496315e-08
    759    761   2   0.50000     0.0600000    0.0600000   6.128906e-05  1.496315e-08
    735    738   2   0.50000    -0.1200000   -0.1200000   1.015252e-03  1.866303e-06
    735    762   2   0.50000    -0.1200000    0.0600000   2.494471e-04  1.671101e-07
    735    763   2   0.50000    -0.1200000    0.0600000   2.494471e-04  1.671101e-07
    760    738   2   0.50000     0.0600000   -0.1200000   2.494471e-04  1.671101e-07
    760    762   2   0.50000     0.0600000    0.0600000   6.128906e-05  1.496315e-08
    760    763   2   0.50000     0.0600000    0.0600000   6.128906e-05  1.496315e-08
    761    738   2   0.50000     0.0600000   -0.1200000   2.494471e-04  1.671101e-07
    761    762   2   0.50000     0.0600000    0.0600000   6.128906e-05  1.496315e-08
    761    763   2   0.50000     0.0600000    0.0600000   6.128906e-05  1.496315e-08
    736    739   2   0.50000    -0.1200000   -0.1200000   1.015252e-03  1.866303e-06
    736    764   2   0.50000    -0.1200000    0.0600000   2.494471e-04  1.671101e-07
    736    765   2   0.50000    -0.1200000    0.0600000   2.494471e-04  1.671101e-07
    762    739   2   0.50000     0.0600000   -0.1200000   2.494471e-04  1.671101e-07
    762    764   2   0.50000     0.0600000    0.0600000   6.128906e-05  1.496315e-08
    762    765   2   0.50000     0.0600000    0.0600000   6.128906e-05  1.496315e-08
    763    739   2   0.50000     0.0600000   -0.1200000   2.494471e-04  1.671101e-07
    763    764   2   0.50000     0.0600000    0.0600000   6.128906e-05  1.496315e-08
    763    765   2   0.50000     0.0600000    0.0600000   6.128906e-05  1.496315e-08
    737    740   2   0.50000    -0.1200000   -0.1200000   1.015252e-03  1.866303e-06
    737    766   2   0.50000    -0.1200000    0.0600000   2.494471e-04  1.671101e-07
    737    767   2   0.50000    -0.1200000    0.0600000   2.494471e-04  1.671101e-07
    764    740   2   0.50000     0.0600000   -0.1200000   2.494471e-04  1.671101e-07
    764    766   2   0.50000     0.0600000    0.0600000   6.128906e-05  1.496315e-08
    764    767   2   0.50000     0.0600000    0.0600000   6.128906e-05  1.496315e-08
    765    740   2   0.50000     0.0600000   -0.1200000   2.494471e-04  1.671101e-07
    765    766   2   0.50000     0.0600000    0.0600000   6.128906e-05  1.496315e-08
    765    767   2   0.50000     0.0600000    0.0600000   6.128906e-05  1.496315e-08
    738    741   2   0.50000    -0.1200000   -0.1200000   1.015252e-03  1.866303e-06
    738    768   2   0.50000    -0.1200000    0.0600000   2.494471e-04  1.671101e-07
    738    769   2   0.50000    -0.1200000    0.0600000   2.494471e-04  1.671101e-07
    766    741   2   0.50000     0.0600000   -0.1200000   2.494471e-04  1.671101e-07
    766    768   2   0.50000     0.0600000    0.0600000   6.128906e-05  1.496315e-08
    766    769   2   0.50000     0.0600000    0.0600000   6.128906e-05  1.496315e-08
    767    741   2   0.50000     0.0600000   -0.1200000   2.494471e-04  1.671101e-07
    767    768   2   0.50000     0.0600000    0.0600000   6.128906e-05  1.496315e-08
    767    769   2   0.50000     0.0600000    0.0600000   6.128906e-05  1.496315e-08
    739    742   2   0.50000    -0.1200000    0.5000000   1.575021e-03  3.561100e-06
    739    770   2   0.50000    -0.1200000    0.0600000   2.494471e-04  1.671101e-07
    739    771   2   0.50000    -0.1200000    0.0600000   2.494471e-04  1.671101e-07
    768    742   2   0.50000     0.0600000    0.5000000   3.869820e-04  3.188634e-07
    768    770   2   0.50000     0.0600000    0.0600000   6.128906e-05  1.496315e-08
    768    771   2   0.50000     0.0600000    0.0600000   6.128906e-05  1.496315e-08
    769    742   2   0.50000     0.0600000    0.5000000   3.869820e-04  3.188634e-07
    769    770   2   0.50000     0.0600000    0.0600000   6.128906e-05  1.496315e-08
    769    771   2   0.50000     0.0600000    0.0600000   6.128906e-05  1.496315e-08
    740    743   2   0.50000    -0.1200000   -0.5000000   1.095425e-03  1.218041e-06
    740    744   2   0.50000    -0.1200000   -0.5000000   1.304585e-03  1.920112e-06
    770    743   2   0.50000     0.0600000   -0.5000000   2.691455e-04  1.090642e-07
    770    744   2   0.50000     0.0600000   -0.5000000   3.205360e-04  1.719281e-07
    771    743   2   0.50000     0.0600000   -0.5000000   2.691455e-04  1.090642e-07
    771    744   2   0.50000     0.0600000   -0.5000000   3.205360e-04  1.719281e-07
    741    745   2   0.50000    -0.1200000    0.0800000   1.015252e-03  1.866303e-06
    741    772   2   0.50000    -0.1200000    0.3000000   1.995577e-06  1.069504e-11
    743    745   2   0.50000    -0.5000000    0.0800000   1.095425e-03  1.218041e-06
    743    772   2   0.50000    -0.5000000    0.3000000   2.153164e-06  6.980110e-12
    742    746   2   0.50000     0.5000000   -0.1200000   1.575021e-03  3.561100e-06
    742    773   2   0.50000     0.5000000    0.0600000   3.869820e-04  3.188634e-07
    742    774   2   0.50000     0.5000000    0.0600000   3.869820e-04  3.188634e-07
    772    746   2   0.50000     0.3000000   -0.1200000   1.995577e-06  1.069504e-11
    772    773   2   0.50000     0.3000000    0.0600000   4.903125e-07  9.576416e-13
    772    774   2   0.50000     0.3000000    0.0600000   4.903125e-07  9.576416e-13
    744    747   2   0.50000    -0.5000000   -0.1200000   1.304585e-03  1.920112e-06
    744    775   2   0.50000    -0.5000000    0.0600000   3.205360e-04  1.719281e-07
    744    776   2   0.50000    -0.5000000    0.0600000   3.205360e-04  1.719281e-07
    773    747   2   0.50000     0.0600000   -0.1200000   2.494471e-04  1.671101e-07
    773    775   2   0.50000     0.0600000    0.0600000   6.128906e-05  1.496315e-08
    773    776   2   0.50000     0.0600000    0.0600000   6.128906e-05  1.496315e-08
    774    747   2   0.50000     0.0600000   -0.1200000   2.494471e-04  1.671101e-07
    774    775   2   0.50000     0.0600000    0.0600000   6.128906e-05  1.496315e-08
    774    776   2   0.50000     0.0600000    0.0600000   6.128906e-05  1.496315e-08
    745    748   2   0.50000     0.0800000   -0.1200000   1.015252e-03  1.866303e-06
    745    777   2   0.50000     0.0800000    0.0600000   2.494471e-04  1.671101e-07
    745    778   2   0.50000     0.0800000    0.0600000   2.494471e-04  1.671101e-07
    775    748   2   0.50000     0.0600000   -0.1200000   2.494471e-04  1.671101e-07
    775    777   2   0.50000     0.0600000    0.0600000   6.128906e-05  1.496315e-08
    775    778   2   0.50000     0.0600000    0.0600000   6.128906e-05  1.496315e-08
    776    748   2   0.50000     0.0600000   -0.1200000   2.494471e-04  1.671101e-07
    776    777   2   0.50000     0.0600000    0.0600000   6.128906e-05  1.496315e-08
    776    778   2   0.50000     0.0600000    0.0600000   6.128906e-05  1.496315e-08
    746    749   2   0.50000    -0.1200000   -0.1200000   1.015252e-03  1.866303e-06
    746    779   2   0.50000    -0.1200000    0.0600000   2.494471e-04  1.671101e-07
    746    780   2   0.50000    -0.1200000    0.0600000   2.494471e-04  1.671101e-07
    777    749   2   0.50000     0.0600000   -0.1200000   2.494471e-04  1.671101e-07
    777    779   2   0.50000     0.0600000    0.0600000   6.128906e-05  1.496315e-08
    777    780   2   0.50000     0.0600000    0.0600000   6.128906e-05  1.496315e-08
    778    749   2   0.50000     0.0600000   -0.1200000   2.494471e-04  1.671101e-07
    778    779   2   0.50000     0.0600000    0.0600000   6.128906e-05  1.496315e-08
    778    780   2   0.50000     0.0600000    0.0600000   6.128906e-05  1.496315e-08
    747    750   2   0.50000    -0.1200000    0.0800000   1.015252e-03  1.866303e-06
    747    781   2   0.50000    -0.1200000    0.0600000   2.494471e-04  1.671101e-07
    747    782   2   0.50000    -0.1200000    0.0600000   2.494471e-04  1.671101e-07
    779    750   2   0.50000     0.0600000    0.0800000   2.494471e-04  1.671101e-07
    779    781   2   0.50000     0.0600000    0.0600000   6.128906e-05  1.496315e-08
    779    782   2   0.50000     0.0600000    0.0600000   6.128906e-05  1.496315e-08
    780    750   2   0.50000     0.0600000    0.0800000   2.494471e-04  1.671101e-07
    780    781   2   0.50000     0.0600000    0.0600000   6.128906e-05  1.496315e-08
    780    782   2   0.50000     0.0600000    0.0600000   6.128906e-05  1.496315e-08
    748    751   2   0.50000    -0.1200000   -0.5000000   1.304585e-03  1.920112e-06
    748    783   2   0.50000    -0.1200000    0.0600000   2.494471e-04  1.671101e-07
    748    784   2   0.50000    -0.1200000    0.0600000   2.494471e-04  1.671101e-07
    781    751   2   0.50000     0.0600000   -0.5000000   3.205360e-04  1.719281e-07
    781    783   2   0.50000     0.0600000    0.0600000   6.128906e-05  1.496315e-08
    781    784   2   0.50000     0.0600000    0.0600000   6.128906e-05  1.496315e-08
    782    751   2   0.50000     0.0600000   -0.5000000   3.205360e-04  1.719281e-07
    782    783   2   0.50000     0.0600000    0.0600000   6.128906e-05  1.496315e-08
    782    784   2   0.50000     0.0600000    0.0600000   6.128906e-05  1.496315e-08
    749    785   2   0.50000    -0.1200000    0.3000000   1.995577e-06  1.069504e-11
    749    786   2   0.50000    -0.1200000    0.5000000   1.575021e-03  3.561100e-06
    783    785   2   0.50000     0.0600000    0.3000000   4.903125e-07  9.576416e-13
    783    786   2   0.50000     0.0600000    0.5000000   3.869820e-04  3.188634e-07
    784    785   2   0.50000     0.0600000    0.3000000   4.903125e-07  9.576416e-13
    784    786   2   0.50000     0.0600000    0.5000000   3.869820e-04  3.188634e-07
    750    787   2   0.50000     0.0800000   -0.5000000   1.095425e-03  1.218041e-06
    750    788   2   0.50000     0.0800000   -0.1200000   1.015252e-03  1.866303e-06
    785    787   2   0.50000     0.3000000   -0.5000000   2.153164e-06  6.980110e-12
    785    788   2   0.50000     0.3000000   -0.1200000   1.995577e-06  1.069504e-11
    751    789   2   0.50000    -0.5000000   -0.1200000   1.304585e-03  1.920112e-06
    751    808   2   0.50000    -0.5000000    0.0600000   3.205360e-04  1.719281e-07
    751    809   2   0.50000    -0.5000000    0.0600000   3.205360e-04  1.719281e-07
    787    789   2   0.50000    -0.5000000   -0.1200000   1.095425e-03  1.218041e-06
    787    808   2   0.50000    -0.5000000    0.0600000   2.691455e-04  1.090642e-07
    787    809   2   0.50000    -0.5000000    0.0600000   2.691455e-04  1.090642e-07
    786    790   2   0.50000     0.5000000   -0.1200000   1.575021e-03  3.561100e-06
    786    810   2   0.50000     0.5000000    0.0600000   3.869820e-04  3.188634e-07
    786    811   2   0.50000     0.5000000    0.0600000   3.869820e-04  3.188634e-07
    808    790   2   0.50000     0.0600000   -0.1200000   2.494471e-04  1.671101e-07
    808    810   2   0.50000     0.0600000    0.0600000   6.128906e-05  1.496315e-08
    808    811   2   0.50000     0.0600000    0.0600000   6.128906e-05  1.496315e-08
    809    790   2   0.50000     0.0600000   -0.1200000   2.494471e-04  1.671101e-07
    809    810   2   0.50000     0.0600000    0.0600000   6.128906e-05  1.496315e-08
    809    811   2   0.50000     0.0600000    0.0600000   6.128906e-05  1.496315e-08
    788    791   2   0.50000    -0.1200000   -0.1200000   1.015252e-03  1.866303e-06
    788    812   2   0.50000    -0.1200000    0.0600000   2.494471e-04  1.671101e-07
    788    813   2   0.50000    -0.1200000    0.0600000   2.494471e-04  1.671101e-07
    810    791   2   0.50000     0.0600000   -0.1200000   2.494471e-04  1.671101e-07
    810    812   2   0.50000     0.0600000    0.0600000   6.128906e-05  1.496315e-08
    810    813   2   0.50000     0.0600000    0.0600000   6.128906e-05  1.496315e-08
    811    791   2   0.50000     0.0600000   -0.1200000   2.494471e-04  1.671101e-07
    811    812   2   0.50000     0.0600000    0.0600000   6.128906e-05  1.496315e-08
    811    813   2   0.50000     0.0600000    0.0600000   6.128906e-05  1.496315e-08
    789    792   2   0.50000    -0.1200000   -0.1200000   1.015252e-03  1.866303e-06
    789    814   2   0.50000    -0.1200000    0.0600000   2.494471e-04  1.671101e-07
    789    815   2   0.50000    -0.1200000    0.0600000   2.494471e-04  1.671101e-07
    812    792   2   0.50000     0.0600000   -0.1200000   2.494471e-04  1.671101e-07
    812    814   2   0.50000     0.0600000    0.0600000   6.128906e-05  1.496315e-08
    812    815   2   0.50000     0.0600000    0.0600000   6.128906e-05  1.496315e-08
    813    792   2   0.50000     0.0600000   -0.1200000   2.494471e-04  1.671101e-07
    813    814   2   0.50000     0.0600000    0.0600000   6.128906e-05  1.496315e-08
    813    815   2   0.50000     0.0600000    0.0600000   6.128906e-05  1.496315e-08
    790    793   2   0.50000    -0.1200000   -0.1200000   1.015252e-03  1.866303e-06
    790    816   2   0.50000    -0.1200000    0.0600000   2.494471e-04  1.671101e-07
    790    817   2   0.50000    -0.1200000    0.0600000   2.494471e-04  1.671101e-07
    814    793   2   0.50000     0.0600000   -0.1200000   2.494471e-04  1.671101e-07
    814    816   2   0.50000     0.0600000    0.0600000   6.128906e-05  1.496315e-08
    814    817   2   0.50000     0.0600000    0.0600000   6.128906e-05  1.496315e-08
    815    793   2   0.50000     0.0600000   -0.1200000   2.494471e-04  1.671101e-07
    815    816   2   0.50000     0.0600000    0.0600000   6.128906e-05  1.496315e-08
    815    817   2   0.50000     0.0600000    0.0600000   6.128906e-05  1.496315e-08
    791    794   2   0.50000    -0.1200000   -0.1200000   1.015252e-03  1.866303e-06
    791    818   2   0.50000    -0.1200000    0.0600000   2.494471e-04  1.671101e-07
    791    819   2   0.50000    -0.1200000    0.0600000   2.494471e-04  1.671101e-07
    816    794   2   0.50000     0.0600000   -0.1200000   2.494471e-04  1.671101e-07
    816    818   2   0.50000     0.0600000    0.0600000   6.128906e-05  1.496315e-08
    816    819   2   0.50000     0.0600000    0.0600000   6.128906e-05  1.496315e-08
    817    794   2   0.50000     0.0600000   -0.1200000   2.494471e-04  1.671101e-07
    817    818   2   0.50000     0.0600000    0.0600000   6.128906e-05  1.496315e-08
    817    819   2   0.50000     0.0600000    0.0600000   6.128906e-05  1.496315e-08
    792    795   2   0.50000    -0.1200000   -0.1200000   1.015252e-03  1.866303e-06
    792    820   2   0.50000    -0.1200000    0.0600000   2.494471e-04  1.671101e-07
    792    821   2   0.50000    -0.1200000    0.0600000   2.494471e-04  1.671101e-07
    818    795   2   0.50000     0.0600000   -0.1200000   2.494471e-04  1.671101e-07
    818    820   2   0.50000     0.0600000    0.0600000   6.128906e-05  1.496315e-08
    818    821   2   0.50000     0.0600000    0.0600000   6.128906e-05  1.496315e-08
    819    795   2   0.50000     0.0600000   -0.1200000   2.494471e-04  1.671101e-07
    819    820   2   0.50000     0.0600000    0.0600000   6.128906e-05  1.496315e-08
    819    821   2   0.50000     0.0600000    0.0600000   6.128906e-05  1.496315e-08
    793    796   2   0.50000    -0.1200000   -0.1200000   1.015252e-03  1.866303e-06
    793    822   2   0.50000    -0.1200000    0.0600000   2.494471e-04  1.671101e-07
    793    823   2   0.50000    -0.1200000    0.0600000   2.494471e-04  1.671101e-07
    820    796   2   0.50000     0.0600000   -0.1200000   2.494471e-04  1.671101e-07
    820    822   2   0.50000     0.0600000    0.0600000   6.128906e-05  1.496315e-08
    820    823   2   0.50000     0.0600000    0.0600000   6.128906e-05  1.496315e-08
    821    796   2   0.50000     0.0600000   -0.1200000   2.494471e-04  1.671101e-07
    821    822   2   0.50000     0.0600000    0.0600000   6.128906e-05  1.496315e-08
    821    823   2   0.50000     0.0600000    0.0600000   6.128906e-05  1.496315e-08
    794    797   2   0.50000    -0.1200000   -0.1200000   1.015252e-03  1.866303e-06
    794    824   2   0.50000    -0.1200000    0.0600000   2.494471e-04  1.671101e-07
    794    825   2   0.50000    -0.1200000    0.0600000   2.494471e-04  1.671101e-07
    822    797   2   0.50000     0.0600000   -0.1200000   2.494471e-04  1.671101e-07
    822    824   2   0.50000     0.0600000    0.0600000   6.128906e-05  1.496315e-08
    822    825   2   0.50000     0.0600000    0.0600000   6.128906e-05  1.496315e-08
    823    797   2   0.50000     0.0600000   -0.1200000   2.494471e-04  1.671101e-07
    823    824   2   0.50000     0.0600000    0.0600000   6.128906e-05  1.496315e-08
    823    825   2   0.50000     0.0600000    0.0600000   6.128906e-05  1.496315e-08
    795    798   2   0.50000    -0.1200000    0.5000000   1.575021e-03  3.561100e-06
    795    826   2   0.50000    -0.1200000    0.0600000   2.494471e-04  1.671101e-07
    795    827   2   0.50000    -0.1200000    0.0600000   2.494471e-04  1.671101e-07
    824    798   2   0.50000     0.0600000    0.5000000   3.869820e-04  3.188634e-07
    824    826   2   0.50000     0.0600000    0.0600000   6.128906e-05  1.496315e-08
    824    827   2   0.50000     0.0600000    0.0600000   6.128906e-05  1.496315e-08
    825    798   2   0.50000     0.0600000    0.5000000   3.869820e-04  3.188634e-07
    825    826   2   0.50000     0.0600000    0.0600000   6.128906e-05  1.496315e-08
    825    827   2   0.50000     0.0600000    0.0600000   6.128906e-05  1.496315e-08
    796    799   2   0.50000    -0.1200000   -0.5000000   1.095425e-03  1.218041e-06
    796    800   2   0.50000    -0.1200000   -0.5000000   1.304585e-03  1.920112e-06
    826    799   2   0.50000     0.0600000   -0.5000000   2.691455e-04  1.090642e-07
    826    800   2   0.50000     0.0600000   -0.5000000   3.205360e-04  1.719281e-07
    827    799   2   0.50000     0.0600000   -0.5000000   2.691455e-04  1.090642e-07
    827    800   2   0.50000     0.0600000   -0.5000000   3.205360e-04  1.719281e-07
    797    801   2   0.50000    -0.1200000    0.0800000   1.015252e-03  1.866303e-06
    797    828   2   0.50000    -0.1200000    0.3000000   1.995577e-06  1.069504e-11
    799    801   2   0.50000    -0.5000000    0.0800000   1.095425e-03  1.218041e-06
    799    828   2   0.50000    -0.5000000    0.3000000   2.153164e-06  6.980110e-12
    798    802   2   0.50000     0.5000000   -0.1200000   1.575021e-03  3.561100e-06
    798    829   2   0.50000     0.5000000    0.0600000   3.869820e-04  3.188634e-07
    798    830   2   0.50000     0.5000000    0.0600000   3.869820e-04  3.188634e-07
    828    802   2   0.50000     0.3000000   -0.1200000   1.995577e-06  1.069504e-11
    828    829   2   0.50000     0.3000000    0.0600000   4.903125e-07  9.576416e-13
    828    830   2   0.50000     0.3000000    0.0600000   4.903125e-07  9.576416e-13
    800    803   2   0.50000    -0.5000000   -0.1200000   1.304585e-03  1.920112e-06
    800    831   2   0.50000    -0.5000000    0.0600000   3.205360e-04  1.719281e-07
    800    832   2   0.50000    -0.5000000    0.0600000   3.205360e-04  1.719281e-07
    829    803   2   0.50000     0.0600000   -0.1200000   2.494471e-04  1.671101e-07
    829    831   2   0.50000     0.0600000    0.0600000   6.128906e-05  1.496315e-08
    829    832   2   0.50000     0.0600000    0.0600000   6.128906e-05  1.496315e-08
    830    803   2   0.50000     0.0600000   -0.1200000   2.494471e-04  1.671101e-07
    830    831   2   0.50000     0.0600000    0.0600000   6.128906e-05  1.496315e-08
    830    832   2   0.50000     0.0600000    0.0600000   6.128906e-05  1.496315e-08
    801    804   2   0.50000     0.0800000   -0.1200000   1.015252e-03  1.866303e-06
    801    833   2   0.50000     0.0800000    0.0600000   2.494471e-04  1.671101e-07
    801    834   2   0.50000     0.0800000    0.0600000   2.494471e-04  1.671101e-07
    831    804   2   0.50000     0.0600000   -0.1200000   2.494471e-04  1.671101e-07
    831    833   2   0.50000     0.0600000    0.0600000   6.128906e-05  1.496315e-08
    831    834   2   0.50000     0.0600000    0.0600000   6.128906e-05  1.496315e-08
    832    804   2   0.50000     0.0600000   -0.1200000   2.494471e-04  1.671101e-07
    832    833   2   0.50000     0.0600000    0.0600000   6.128906e-05  1.496315e-08
    832    834   2   0.50000     0.0600000    0.0600000   6.128906e-05  1.496315e-08
    802    805   2   0.50000    -0.1200000   -0.1200000   1.015252e-03  1.866303e-06
    802    835   2   0.50000    -0.1200000    0.0600000   2.494471e-04  1.671101e-07
    802    836   2   0.50000    -0.1200000    0.0600000   2.494471e-04  1.671101e-07
    833    805   2   0.50000     0.0600000   -0.1200000   2.494471e-04  1.671101e-07
    833    835   2   0.50000     0.0600000    0.0600000   6.128906e-05  1.496315e-08
    833    836   2   0.50000     0.0600000    0.0600000   6.128906e-05  1.496315e-08
    834    805   2   0.50000     0.0600000   -0.1200000   2.494471e-04  1.671101e-07
    834    835   2   0.50000     0.0600000    0.0600000   6.128906e-05  1.496315e-08
    834    836   2   0.50000     0.0600000    0.0600000   6.128906e-05  1.496315e-08
    803    806   2   0.50000    -0.1200000    0.0800000   1.015252e-03  1.866303e-06
    803    837   2   0.50000    -0.1200000    0.0600000   2.494471e-04  1.671101e-07
    803    838   2   0.50000    -0.1200000    0.0600000   2.494471e-04  1.671101e-07
    835    806   2   0.50000     0.0600000    0.0800000   2.494471e-04  1.671101e-07
    835    837   2   0.50000     0.0600000    0.0600000   6.128906e-05  1.496315e-08
    835    838   2   0.50000     0.0600000    0.0600000   6.128906e-05  1.496315e-08
    836    806   2   0.50000     0.0600000    0.0800000   2.494471e-04  1.671101e-07
    836    837   2   0.50000     0.0600000    0.0600000   6.128906e-05  1.496315e-08
    836    838   2   0.50000     0.0600000    0.0600000   6.128906e-05  1.496315e-08
    804    807   2   0.50000    -0.1200000   -0.5000000   1.304585e-03  1.920112e-06
    804    839   2   0.50000    -0.1200000    0.0600000   2.494471e-04  1.671101e-07
    804    840   2   0.50000    -0.1200000    0.0600000   2.494471e-04  1.671101e-07
    837    807   2   0.50000     0.0600000   -0.5000000   3.205360e-04  1.719281e-07
    837    839   2   0.50000     0.0600000    0.0600000   6.128906e-05  1.496315e-08
    837    840   2   0.50000     0.0600000    0.0600000   6.128906e-05  1.496315e-08
    838    807   2   0.50000     0.0600000   -0.5000000   3.205360e-04  1.719281e-07
    838    839   2   0.50000     0.0600000    0.0600000   6.128906e-05  1.496315e-08
    838    840   2   0.50000     0.0600000    0.0600000   6.128906e-05  1.496315e-08
    805    841   2   0.50000    -0.1200000    0.3000000   1.995577e-06  1.069504e-11
    805    842   2   0.50000    -0.1200000    0.5000000   1.575021e-03  3.561100e-06
    839    841   2   0.50000     0.0600000    0.3000000   4.903125e-07  9.576416e-13
    839    842   2   0.50000     0.0600000    0.5000000   3.869820e-04  3.188634e-07
    840    841   2   0.50000     0.0600000    0.3000000   4.903125e-07  9.576416e-13
    840    842   2   0.50000     0.0600000    0.5000000   3.869820e-04  3.188634e-07
    806    843   2   0.50000     0.0800000   -0.5000000   1.095425e-03  1.218041e-06
    806    844   2   0.50000     0.0800000   -0.1200000   1.015252e-03  1.866303e-06
    841    843   2   0.50000     0.3000000   -0.5000000   2.153164e-06  6.980110e-12
    841    844   2   0.50000     0.3000000   -0.1200000   1.995577e-06  1.069504e-11
    807    845   2   0.50000    -0.5000000   -0.1200000   1.304585e-03  1.920112e-06
    807    864   2   0.50000    -0.5000000    0.0600000   3.205360e-04  1.719281e-07
    807    865   2   0.50000    -0.5000000    0.0600000   3.205360e-04  1.719281e-07
    843    845   2   0.50000    -0.5000000   -0.1200000   1.095425e-03  1.218041e-06
    843    864   2   0.50000    -0.5000000    0.0600000   2.691455e-04  1.090642e-07
    843    865   2   0.50000    -0.5000000    0.0600000   2.691455e-04  1.090642e-07
    842    846   2   0.50000     0.5000000   -0.1200000   1.575021e-03  3.561100e-06
    842    866   2   0.50000     0.5000000    0.0600000   3.869820e-04  3.188634e-07
    842    867   2   0.50000     0.5000000    0.0600000   3.869820e-04  3.188634e-07
    864    846   2   0.50000     0.0600000   -0.1200000   2.494471e-04  1.671101e-07
    864    866   2   0.50000     0.0600000    0.0600000   6.128906e-05  1.496315e-08
    864    867   2   0.50000     0.0600000    0.0600000   6.128906e-05  1.496315e-08
    865    846   2   0.50000     0.0600000   -0.1200000   2.494471e-04  1.671101e-07
    865    866   2   0.50000     0.0600000    0.0600000   6.128906e-05  1.496315e-08
    865    867   2   0.50000     0.0600000    0.0600000   6.128906e-05  1.496315e-08
    844    847   2   0.50000    -0.1200000   -0.1200000   1.015252e-03  1.866303e-06
    844    868   2   0.50000    -0.1200000    0.0600000   2.494471e-04  1.671101e-07
    844    869   2   0.50000    -0.1200000    0.0600000   2.494471e-04  1.671101e-07
    866    847   2   0.50000     0.0600000   -0.1200000   2.494471e-04  1.671101e-07
    866    868   2   0.50000     0.0600000    0.0600000   6.128906e-05  1.496315e-08
    866    869   2   0.50000     0.0600000    0.0600000   6.128906e-05  1.496315e-08
    867    847   2   0.50000     0.0600000   -0.1200000   2.494471e-04  1.671101e-07
    867    868   2   0.50000     0.0600000    0.0600000   6.128906e-05  1.496315e-08
    867    869   2   0.50000     0.0600000    0.0600000   6.128906e-05  1.496315e-08
    845    848   2   0.50000    -0.1200000   -0.1200000   1.015252e-03  1.866303e-06
    845    870   2   0.50000    -0.1200000    0.0600000   2.494471e-04  1.671101e-07
    845    871   2   0.50000    -0.1200000    0.0600000   2.494471e-04  1.671101e-07
    868    848   2   0.50000     0.0600000   -0.1200000   2.494471e-04  1.671101e-07
    868    870   2   0.50000     0.0600000    0.0600000   6.128906e-05  1.496315e-08
    868    871   2   0.50000     0.0600000    0.0600000   6.128906e-05  1.496315e-08
    869    848   2   0.50000     0.0600000   -0.1200000   2.494471e-04  1.671101e-07
    869    870   2   0.50000     0.0600000    0.0600000   6.128906e-05  1.496315e-08
    869    871   2   0.50000     0.0600000    0.0600000   6.128906e-05  1.496315e-08
    846    849   2   0.50000    -0.1200000   -0.1200000   1.015252e-03  1.866303e-06
    846    872   2   0.50000    -0.1200000    0.0600000   2.494471e-04  1.671101e-07
    846    873   2   0.50000    -0.1200000    0.0600000   2.494471e-04  1.671101e-07
    870    849   2   0.50000     0.0600000   -0.1200000   2.494471e-04  1.671101e-07
    870    872   2   0.50000     0.0600000    0.0600000   6.128906e-05  1.496315e-08
    870    873   2   0.50000     0.0600000    0.0600000   6.128906e-05  1.496315e-08
    871    849   2   0.50000     0.0600000   -0.1200000   2.494471e-04  1.671101e-07
    871    872   2   0.50000     0.0600000    0.0600000   6.128906e-05  1.496315e-08
    871    873   2   0.50000     0.0600000    0.0600000   6.128906e-05  1.496315e-08
    847    850   2   0.50000    -0.1200000   -0.1200000   1.015252e-03  1.866303e-06
    847    874   2   0.50000    -0.1200000    0.0600000   2.494471e-04  1.671101e-07
    847    875   2   0.50000    -0.1200000    0.0600000   2.494471e-04  1.671101e-07
    872    850   2   0.50000     0.0600000   -0.1200000   2.494471e-04  1.671101e-07
    872    874   2   0.50000     0.0600000    0.0600000   6.128906e-05  1.496315e-08
    872    875   2   0.50000     0.0600000    0.0600000   6.128906e-05  1.496315e-08
    873    850   2   0.50000     0.0600000   -0.1200000   2.494471e-04  1.671101e-07
    873    874   2   0.50000     0.0600000    0.0600000   6.128906e-05  1.496315e-08
    873    875   2   0.50000     0.0600000    0.0600000   6.128906e-05  1.496315e-08
    848    851   2   0.50000    -0.1200000   -0.1200000   1.015252e-03  1.866303e-06
    848    876   2   0.50000    -0.1200000    0.0600000   2.494471e-04  1.671101e-07
    848    877   2   0.50000    -0.1200000    0.0600000   2.494471e-04  1.671101e-07
    874    851   2   0.50000     0.0600000   -0.1200000   2.494471e-04  1.671101e-07
    874    876   2   0.50000     0.0600000    0.0600000   6.128906e-05  1.496315e-08
    874    877   2   0.50000     0.0600000    0.0600000   6.128906e-05  1.496315e-08
    875    851   2   0.50000     0.0600000   -0.1200000   2.494471e-04  1.671101e-07
    875    876   2   0.50000     0.0600000    0.0600000   6.128906e-05  1.496315e-08
    875    877   2   0.50000     0.0600000    0.0600000   6.128906e-05  1.496315e-08
    849    852   2   0.50000    -0.1200000   -0.1200000   1.015252e-03  1.866303e-06
    849    878   2   0.50000    -0.1200000    0.0600000   2.494471e-04  1.671101e-07
    849    879   2   0.50000    -0.1200000    0.0600000   2.494471e-04  1.671101e-07
    876    852   2   0.50000     0.0600000   -0.1200000   2.494471e-04  1.671101e-07
    876    878   2   0.50000     0.0600000    0.0600000   6.128906e-05  1.496315e-08
    876    879   2   0.50000     0.0600000    0.0600000   6.128906e-05  1.496315e-08
    877    852   2   0.50000     0.0600000   -0.1200000   2.494471e-04  1.671101e-07
    877    878   2   0.50000     0.0600000    0.0600000   6.128906e-05  1.496315e-08
    877    879   2   0.50000     0.0600000    0.0600000   6.128906e-05  1.496315e-08
    850    853   2   0.50000    -0.1200000   -0.1200000   1.015252e-03  1.866303e-06
    850    880   2   0.50000    -0.1200000    0.0600000   2.494471e-04  1.671101e-07
    850    881   2   0.50000    -0.1200000    0.0600000   2.494471e-04  1.671101e-07
    878    853   2   0.50000     0.0600000   -0.1200000   2.494471e-04  1.671101e-07
    878    880   2   0.50000     0.0600000    0.0600000   6.128906e-05  1.496315e-08
    878    881   2   0.50000     0.0600000    0.0600000   6.128906e-05  1.496315e-08
    879    853   2   0.50000     0.0600000   -0.1200000   2.494471e-04  1.671101e-07
    879    880   2   0.50000     0.0600000    0.0600000   6.128906e-05  1.496315e-08
    879    881   2   0.50000     0.0600000    0.0600000   6.128906e-05  1.496315e-08
    851    854   2   0.50000    -0.1200000    0.5000000   1.575021e-03  3.561100e-06
    851    882   2   0.50000    -0.1200000    0.0600000   2.494471e-04  1.671101e-07
    851    883   2   0.50000    -0.1200000    0.0600000   2.494471e-04  1.671101e-07
    880    854   2   0.50000     0.0600000    0.5000000   3.869820e-04  3.188634e-07
    880    882   2   0.50000     0.0600000    0.0600000   6.128906e-05  1.496315e-08
    880    883   2   0.50000     0.0600000    0.0600000   6.128906e-05  1.496315e-08
    881    854   2   0.50000     0.0600000    0.5000000   3.869820e-04  3.188634e-07
    881    882   2   0.50000     0.0600000    0.0600000   6.128906e-05  1.496315e-08
    881    883   2   0.50000     0.0600000    0.0600000   6.128906e-05  1.496315e-08
    852    855   2   0.50000    -0.1200000   -0.5000000   1.095425e-03  1.218041e-06
    852    856   2   0.50000    -0.1200000   -0.5000000   1.304585e-03  1.920112e-06
    882    855   2   0.50000     0.0600000   -0.5000000   2.691455e-04  1.090642e-07
    882    856   2   0.50000     0.0600000   -0.5000000   3.205360e-04  1.719281e-07
    883    855   2   0.50000     0.0600000   -0.5000000   2.691455e-04  1.090642e-07
    883    856   2   0.50000     0.0600000   -0.5000000   3.205360e-04  1.719281e-07
    853    857   2   0.50000    -0.1200000    0.0800000   1.015252e-03  1.866303e-06
    853    884   2   0.50000    -0.1200000    0.3000000   1.995577e-06  1.069504e-11
    855    857   2   0.50000    -0.5000000    0.0800000   1.095425e-03  1.218041e-06
    855    884   2   0.50000    -0.5000000    0.3000000   2.153164e-06  6.980110e-12
    854    858   2   0.50000     0.5000000   -0.1200000   1.575021e-03  3.561100e-06
    854    885   2   0.50000     0.5000000    0.0600000   3.869820e-04  3.188634e-07
    854    886   2   0.50000     0.5000000    0.0600000   3.869820e-04  3.188634e-07
    884    858   2   0.50000     0.3000000   -0.1200000   1.995577e-06  1.069504e-11
    884    885   2   0.50000     0.3000000    0.0600000   4.903125e-07  9.576416e-13
    884    886   2   0.50000     0.3000000    0.0600000   4.903125e-07  9.576416e-13
    856    859   2   0.50000    -0.5000000   -0.1200000   1.304585e-03  1.920112e-06
    856    887   2   0.50000    -0.5000000    0.0600000   3.205360e-04  1.719281e-07
    856    888   2   0.50000    -0.5000000    0.0600000   3.205360e-04  1.719281e-07
    885    859   2   0.50000     0.0600000   -0.1200000   2.494471e-04  1.671101e-07
    885    887   2   0.50000     0.0600000    0.0600000   6.128906e-05  1.496315e-08
    885    888   2   0.50000     0.0600000    0.0600000   6.128906e-05  1.496315e-08
    886    859   2   0.50000     0.0600000   -0.1200000   2.494471e-04  1.671101e-07
    886    887   2   0.50000     0.0600000    0.0600000   6.128906e-05  1.496315e-08
    886    888   2   0.50000     0.0600000    0.0600000   6.128906e-05  1.496315e-08
    857    860   2   0.50000     0.0800000   -0.1200000   1.015252e-03  1.866303e-06
    857    889   2   0.50000     0.0800000    0.0600000   2.494471e-04  1.671101e-07
    857    890   2   0.50000     0.0800000    0.0600000   2.494471e-04  1.671101e-07
    887    860   2   0.50000     0.0600000   -0.1200000   2.494471e-04  1.671101e-07
    887    889   2   0.50000     0.0600000    0.0600000   6.128906e-05  1.496315e-08
    887    890   2   0.50000     0.0600000    0.0600000   6.128906e-05  1.496315e-08
    888    860   2   0.50000     0.0600000   -0.1200000   2.494471e-04  1.671101e-07
    888    889   2   0.50000     0.0600000    0.0600000   6.128906e-05  1.496315e-08
    888    890   2   0.50000     0.0600000    0.0600000   6.128906e-05  1.496315e-08
    858    861   2   0.50000    -0.1200000   -0.1200000   1.015252e-03  1.866303e-06
    858    891   2   0.50000    -0.1200000    0.0600000   2.494471e-04  1.671101e-07
    858    892   2   0.50000    -0.1200000    0.0600000   2.494471e-04  1.671101e-07
    889    861   2   0.50000     0.0600000   -0.1200000   2.494471e-04  1.671101e-07
    889    891   2   0.50000     0.0600000    0.0600000   6.128906e-05  1.496315e-08
    889    892   2   0.50000     0.0600000    0.0600000   6.128906e-05  1.496315e-08
    890    861   2   0.50000     0.0600000   -0.1200000   2.494471e-04  1.671101e-07
    890    891   2   0.50000     0.0600000    0.0600000   6.128906e-05  1.496315e-08
    890    892   2   0.50000     0.0600000    0.0600000   6.128906e-05  1.496315e-08
    859    862   2   0.50000    -0.1200000    0.0800000   1.015252e-03  1.866303e-06
    859    893   2   0.50000    -0.1200000    0.0600000   2.494471e-04  1.671101e-07
    859    894   2   0.50000    -0.1200000    0.0600000   2.494471e-04  1.671101e-07
    891    862   2   0.50000     0.0600000    0.0800000   2.494471e-04  1.671101e-07
    891    893   2   0.50000     0.0600000    0.0600000   6.128906e-05  1.496315e-08
    891    894   2   0.50000     0.0600000    0.0600000   6.128906e-05  1.496315e-08
    892    862   2   0.50000     0.0600000    0.0800000   2.494471e-04  1.671101e-07
    892    893   2   0.50000     0.0600000    0.0600000   6.128906e-05  1.496315e-08
    892    894   2   0.50000     0.0600000    0.0600000   6.128906e-05  1.496315e-08
    860    863   2   0.50000    -0.1200000   -0.5000000   1.304585e-03  1.920112e-06
    860    895   2   0.50000    -0.1200000    0.0600000   2.494471e-04  1.671101e-07
    860    896   2   0.50000    -0.1200000    0.0600000   2.494471e-04  1.671101e-07
    893    863   2   0.50000     0.0600000   -0.5000000   3.205360e-04  1.719281e-07
    893    895   2   0.50000     0.0600000    0.0600000   6.128906e-05  1.496315e-08
    893    896   2   0.50000     0.0600000    0.0600000   6.128906e-05  1.496315e-08
    894    863   2   0.50000     0.0600000   -0.5000000   3.205360e-04  1.719281e-07
    894    895   2   0.50000     0.0600000    0.0600000   6.128906e-05  1.496315e-08
    894    896   2   0.50000     0.0600000    0.0600000   6.128906e-05  1.496315e-08
    861    897   2   0.50000    -0.1200000    0.3000000   1.995577e-06  1.069504e-11
    861    898   2   0.50000    -0.1200000    0.5000000   1.575021e-03  3.561100e-06
    895    897   2   0.50000     0.0600000    0.3000000   4.903125e-07  9.576416e-13
    895    898   2   0.50000     0.0600000    0.5000000   3.869820e-04  3.188634e-07
    896    897   2   0.50000     0.0600000    0.3000000   4.903125e-07  9.576416e-13
    896    898   2   0.50000     0.0600000    0.5000000   3.869820e-04  3.188634e-07
    862    899   2   0.50000     0.0800000   -0.5000000   1.095425e-03  1.218041e-06
    862    900   2   0.50000     0.0800000   -0.1200000   1.015252e-03  1.866303e-06
    897    899   2   0.50000     0.3000000   -0.5000000   2.153164e-06  6.980110e-12
    897    900   2   0.50000     0.3000000   -0.1200000   1.995577e-06  1.069504e-11
    863    901   2   0.50000    -0.5000000   -0.1200000   1.304585e-03  1.920112e-06
    863    920   2   0.50000    -0.5000000    0.0600000   3.205360e-04  1.719281e-07
    863    921   2   0.50000    -0.5000000    0.0600000   3.205360e-04  1.719281e-07
    899    901   2   0.50000    -0.5000000   -0.1200000   1.095425e-03  1.218041e-06
    899    920   2   0.50000    -0.5000000    0.0600000   2.691455e-04  1.090642e-07
    899    921   2   0.50000    -0.5000000    0.0600000   2.691455e-04  1.090642e-07
    898    902   2   0.50000     0.5000000   -0.1200000   1.575021e-03  3.561100e-06
    898    922   2   0.50000     0.5000000    0.0600000   3.869820e-04  3.188634e-07
    898    923   2   0.50000     0.5000000    0.0600000   3.869820e-04  3.188634e-07
    920    902   2   0.50000     0.0600000   -0.1200000   2.494471e-04  1.671101e-07
    920    922   2   0.50000     0.0600000    0.0600000   6.128906e-05  1.496315e-08
    920    923   2   0.50000     0.0600000    0.0600000   6.128906e-05  1.496315e-08
    921    902   2   0.50000     0.0600000   -0.1200000   2.494471e-04  1.671101e-07
    921    922   2   0.50000     0.0600000    0.0600000   6.128906e-05  1.496315e-08
    921    923   2   0.50000     0.0600000    0.0600000   6.128906e-05  1.496315e-08
    900    903   2   0.50000    -0.1200000   -0.1200000   1.015252e-03  1.866303e-06
    900    924   2   0.50000    -0.1200000    0.0600000   2.494471e-04  1.671101e-07
    900    925   2   0.50000    -0.1200000    0.0600000   2.494471e-04  1.671101e-07
    922    903   2   0.50000     0.0600000   -0.1200000   2.494471e-04  1.671101e-07
    922    924   2   0.50000     0.0600000    0.0600000   6.128906e-05  1.496315e-08
    922    925   2   0.50000     0.0600000    0.0600000   6.128906e-05  1.496315e-08
    923    903   2   0.50000     0.0600000   -0.1200000   2.494471e-04  1.671101e-07
    923    924   2   0.50000     0.0600000    0.0600000   6.128906e-05  1.496315e-08
    923    925   2   0.50000     0.0600000    0.0600000   6.128906e-05  1.496315e-08
    901    904   2   0.50000    -0.1200000   -0.1200000   1.015252e-03  1.866303e-06
    901    926   2   0.50000    -0.1200000    0.0600000   2.494471e-04  1.671101e-07
    901    927   2   0.50000    -0.1200000    0.0600000   2.494471e-04  1.671101e-07
    924    904   2   0.50000     0.0600000   -0.1200000   2.494471e-04  1.671101e-07
    924    926   2   0.50000     0.0600000    0.0600000   6.128906e-05  1.496315e-08
    924    927   2   0.50000     0.0600000    0.0600000   6.128906e-05  1.496315e-08
    925    904   2   0.50000     0.0600000   -0.1200000   2.494471e-04  1.671101e-07
    925    926   2   0.50000     0.0600000    0.0600000   6.128906e-05  1.496315e-08
    925    927   2   0.50000     0.0600000    0.0600000   6.128906e-05  1.496315e-08
    902    905   2   0.50000    -0.1200000   -0.1200000   1.015252e-03  1.866303e-06
    902    928   2   0.50000    -0.1200000    0.0600000   2.494471e-04  1.671101e-07
    902    929   2   0.50000    -0.1200000    0.0600000   2.494471e-04  1.671101e-07
    926    905   2   0.50000     0.0600000   -0.1200000   2.494471e-04  1.671101e-07
    926    928   2   0.50000     0.0600000    0.0600000   6.128906e-05  1.496315e-08
    926    929   2   0.50000     0.0600000    0.0600000   6.128906e-05  1.496315e-08
    927    905   2   0.50000     0.0600000   -0.1200000   2.494471e-04  1.671101e-07
    927    928   2   0.50000     0.0600000    0.0600000   6.128906e-05  1.496315e-08
    927    929   2   0.50000     0.0600000    0.0600000   6.128906e-05  1.496315e-08
    903    906   2   0.50000    -0.1200000   -0.1200000   1.015252e-03  1.866303e-06
    903    930   2   0.50000    -0.1200000    0.0600000   2.494471e-04  1.671101e-07
    903    931   2   0.50000    -0.1200000    0.0600000   2.494471e-04  1.671101e-07
    928    906   2   0.50000     0.0600000   -0.1200000   2.494471e-04  1.671101e-07
    928    930   2   0.50000     0.0600000    0.0600000   6.128906e-05  1.496315e-08
    928    931   2   0.50000     0.0600000    0.0600000   6.128906e-05  1.496315e-08
    929    906   2   0.50000     0.0600000   -0.1200000   2.494471e-04  1.671101e-07
    929    930   2   0.50000     0.0600000    0.0600000   6.128906e-05  1.496315e-08
    929    931   2   0.50000     0.0600000    0.0600000   6.128906e-05  1.496315e-08
    904    907   2   0.50000    -0.1200000   -0.1200000   1.015252e-03  1.866303e-06
    904    932   2   0.50000    -0.1200000    0.0600000   2.494471e-04  1.671101e-07
    904    933   2   0.50000    -0.1200000    0.0600000   2.494471e-04  1.671101e-07
    930    907   2   0.50000     0.0600000   -0.1200000   2.494471e-04  1.671101e-07
    930    932   2   0.50000     0.0600000    0.0600000   6.128906e-05  1.496315e-08
    930    933   2   0.50000     0.0600000    0.0600000   6.128906e-05  1.496315e-08
    931    907   2   0.50000     0.0600000   -0.1200000   2.494471e-04  1.671101e-07
    931    932   2   0.50000     0.0600000    0.0600000   6.128906e-05  1.496315e-08
    931    933   2   0.50000     0.0600000    0.0600000   6.128906e-05  1.496315e-08
    905    908   2   0.50000    -0.1200000   -0.1200000   1.015252e-03  1.866303e-06
    905    934   2   0.50000    -0.1200000    0.0600000   2.494471e-04  1.671101e-07
    905    935   2   0.50000    -0.1200000    0.0600000   2.494471e-04  1.671101e-07
    932    908   2   0.50000     0.0600000   -0.1200000   2.494471e-04  1.671101e-07
    932    934   2   0.50000     0.0600000    0.0600000   6.128906e-05  1.496315e-08
    932    935   2   0.50000     0.0600000    0.0600000   6.128906e-05  1.496315e-08
    933    908   2   0.50000     0.0600000   -0.1200000   2.494471e-04  1.671101e-07
    933    934   2   0.50000     0.0600000    0.0600000   6.128906e-05  1.496315e-08
    933    935   2   0.50000     0.0600000    0.0600000   6.128906e-05  1.496315e-08
    906    909   2   0.50000    -0.1200000   -0.1200000   1.015252e-03  1.866303e-06
    906    936   2   0.50000    -0.1200000    0.0600000   2.494471e-04  1.671101e-07
    906    937   2   0.50000    -0.1200000    0.0600000   2.494471e-04  1.671101e-07
    934    909   2   0.50000     0.0600000   -0.1200000   2.494471e-04  1.671101e-07
    934    936   2   0.50000     0.0600000    0.0600000   6.128906e-05  1.496315e-08
    934    937   2   0.50000     0.0600000    0.0600000   6.128906e-05  1.496315e-08
    935    909   2   0.50000     0.0600000   -0.1200000   2.494471e-04  1.671101e-07
    935    936   2   0.50000     0.0600000    0.0600000   6.128906e-05  1.496315e-08
    935    937   2   0.50000     0.0600000    0.0600000   6.128906e-05  1.496315e-08
    907    910   2   0.50000    -0.1200000    0.5000000   1.575021e-03  3.561100e-06
    907    938   2   0.50000    -0.1200000    0.0600000   2.494471e-04  1.671101e-07
    907    939   2   0.50000    -0.1200000    0.0600000   2.494471e-04  1.671101e-07
    936    910   2   0.50000     0.0600000    0.5000000   3.869820e-04  3.188634e-07
    936    938   2   0.50000     0.0600000    0.0600000   6.128906e-05  1.496315e-08
    936    939   2   0.50000     0.0600000    0.0600000   6.128906e-05  1.496315e-08
    937    910   2   0.50000     0.0600000    0.5000000   3.869820e-04  3.188634e-07
    937    938   2   0.50000     0.0600000    0.0600000   6.128906e-05  1.496315e-08
    937    939   2   0.50000     0.0600000    0.0600000   6.128906e-05  1.496315e-08
    908    911   2   0.50000    -0.1200000   -0.5000000   1.095425e-03  1.218041e-06
    908    912   2   0.50000    -0.1200000   -0.5000000   1.304585e-03  1.920112e-06
    938    911   2   0.50000     0.0600000   -0.5000000   2.691455e-04  1.090642e-07
    938    912   2   0.50000     0.0600000   -0.5000000   3.205360e-04  1.719281e-07
    939    911   2   0.50000     0.0600000   -0.5000000   2.691455e-04  1.090642e-07
    939    912   2   0.50000     0.0600000   -0.5000000   3.205360e-04  1.719281e-07
    909    913   2   0.50000    -0.1200000    0.0800000   1.015252e-03  1.866303e-06
    909    940   2   0.50000    -0.1200000    0.3000000   1.995577e-06  1.069504e-11
    911    913   2   0.50000    -0.5000000    0.0800000   1.095425e-03  1.218041e-06
    911    940   2   0.50000    -0.5000000    0.3000000   2.153164e-06  6.980110e-12
    910    914   2   0.50000     0.5000000   -0.1200000   1.575021e-03  3.561100e-06
    910    941   2   0.50000     0.5000000    0.0600000   3.869820e-04  3.188634e-07
    910    942   2   0.50000     0.5000000    0.0600000   3.869820e-04  3.188634e-07
    940    914   2   0.50000     0.3000000   -0.1200000   1.995577e-06  1.069504e-11
    940    941   2   0.50000     0.3000000    0.0600000   4.903125e-07  9.576416e-13
    940    942   2   0.50000     0.3000000    0.0600000   4.903125e-07  9.576416e-13
    912    915   2   0.50000    -0.5000000   -0.1200000   1.304585e-03  1.920112e-06
    912    943   2   0.50000    -0.5000000    0.0600000   3.205360e-04  1.719281e-07
    912    944   2   0.50000    -0.5000000    0.0600000   3.205360e-04  1.719281e-07
    941    915   2   0.50000     0.0600000   -0.1200000   2.494471e-04  1.671101e-07
    941    943   2   0.50000     0.0600000    0.0600000   6.128906e-05  1.496315e-08
    941    944   2   0.50000     0.0600000    0.0600000   6.128906e-05  1.496315e-08
    942    915   2   0.50000     0.0600000   -0.1200000   2.494471e-04  1.671101e-07
    942    943   2   0.50000     0.0600000    0.0600000   6.128906e-05  1.496315e-08
    942    944   2   0.50000     0.0600000    0.0600000   6.128906e-05  1.496315e-08
    913    916   2   0.50000     0.0800000   -0.1200000   1.015252e-03  1.866303e-06
    913    945   2   0.50000     0.0800000    0.0600000   2.494471e-04  1.671101e-07
    913    946   2   0.50000     0.0800000    0.0600000   2.494471e-04  1.671101e-07
    943    916   2   0.50000     0.0600000   -0.1200000   2.494471e-04  1.671101e-07
    943    945   2   0.50000     0.0600000    0.0600000   6.128906e-05  1.496315e-08
    943    946   2   0.50000     0.0600000    0.0600000   6.128906e-05  1.496315e-08
    944    916   2   0.50000     0.0600000   -0.1200000   2.494471e-04  1.671101e-07
    944    945   2   0.50000     0.0600000    0.0600000   6.128906e-05  1.496315e-08
    944    946   2   0.50000     0.0600000    0.0600000   6.128906e-05  1.496315e-08
    914    917   2   0.50000    -0.1200000   -0.1200000   1.015252e-03  1.866303e-06
    914    947   2   0.50000    -0.1200000    0.0600000   2.494471e-04  1.671101e-07
    914    948   2   0.50000    -0.1200000    0.0600000   2.494471e-04  1.671101e-07
    945    917   2   0.50000     0.0600000   -0.1200000   2.494471e-04  1.671101e-07
    945    947   2   0.50000     0.0600000    0.0600000   6.128906e-05  1.496315e-08
    945    948   2   0.50000     0.0600000    0.0600000   6.128906e-05  1.496315e-08
    946    917   2   0.50000     0.0600000   -0.1200000   2.494471e-04  1.671101e-07
    946    947   2   0.50000     0.0600000    0.0600000   6.128906e-05  1.496315e-08
    946    948   2   0.50000     0.0600000    0.0600000   6.128906e-05  1.496315e-08
    915    918   2   0.50000    -0.1200000    0.0800000   1.015252e-03  1.866303e-06
    915    949   2   0.50000    -0.1200000    0.0600000   2.494471e-04  1.671101e-07
    915    950   2   0.50000    -0.1200000    0.0600000   2.494471e-04  1.671101e-07
    947    918   2   0.50000     0.0600000    0.0800000   2.494471e-04  1.671101e-07
    947    949   2   0.50000     0.0600000    0.0600000   6.128906e-05  1.496315e-08
    947    950   2   0.50000     0.0600000    0.0600000   6.128906e-05  1.496315e-08
    948    918   2   0.50000     0.0600000    0.0800000   2.494471e-04  1.671101e-07
    948    949   2   0.50000     0.0600000    0.0600000   6.128906e-05  1.496315e-08
    948    950   2   0.50000     0.0600000    0.0600000   6.128906e-05  1.496315e-08
    916    919   2   0.50000    -0.1200000   -0.5000000   1.304585e-03  1.920112e-06
    916    951   2   0.50000    -0.1200000    0.0600000   2.494471e-04  1.671101e-07
    916    952   2   0.50000    -0.1200000    0.0600000   2.494471e-04  1.671101e-07
    949    919   2   0.50000     0.0600000   -0.5000000   3.205360e-04  1.719281e-07
    949    951   2   0.50000     0.0600000    0.0600000   6.128906e-05  1.496315e-08
    949    952   2   0.50000     0.0600000    0.0600000   6.128906e-05  1.496315e-08
    950    919   2   0.50000     0.0600000   -0.5000000   3.205360e-04  1.719281e-07
    950    951   2   0.50000     0.0600000    0.0600000   6.128906e-05  1.496315e-08
    950    952   2   0.50000     0.0600000    0.0600000   6.128906e-05  1.496315e-08
    917    953   2   0.50000    -0.1200000    0.3000000   1.995577e-06  1.069504e-11
    917    954   2   0.50000    -0.1200000    0.5000000   1.575021e-03  3.561100e-06
    951    953   2   0.50000     0.0600000    0.3000000   4.903125e-07  9.576416e-13
    951    954   2   0.50000     0.0600000    0.5000000   3.869820e-04  3.188634e-07
    952    953   2   0.50000     0.0600000    0.3000000   4.903125e-07  9.576416e-13
    952    954   2   0.50000     0.0600000    0.5000000   3.869820e-04  3.188634e-07
    918    955   2   0.50000     0.0800000   -0.5000000   1.095425e-03  1.218041e-06
    918    956   2   0.50000     0.0800000   -0.1200000   1.015252e-03  1.866303e-06
    953    955   2   0.50000     0.3000000   -0.5000000   2.153164e-06  6.980110e-12
    953    956   2   0.50000     0.3000000   -0.1200000   1.995577e-06  1.069504e-11
    919    957   2   0.50000    -0.5000000   -0.1200000   1.304585e-03  1.920112e-06
    919    976   2   0.50000    -0.5000000    0.0600000   3.205360e-04  1.719281e-07
    919    977   2   0.50000    -0.5000000    0.0600000   3.205360e-04  1.719281e-07
    955    957   2   0.50000    -0.5000000   -0.1200000   1.095425e-03  1.218041e-06
    955    976   2   0.50000    -0.5000000    0.0600000   2.691455e-04  1.090642e-07
    955    977   2   0.50000    -0.5000000    0.0600000   2.691455e-04  1.090642e-07
    954    958   2   0.50000     0.5000000   -0.1200000   1.575021e-03  3.561100e-06
    954    978   2   0.50000     0.5000000    0.0600000   3.869820e-04  3.188634e-07
    954    979   2   0.50000     0.5000000    0.0600000   3.869820e-04  3.188634e-07
    976    958   2   0.50000     0.0600000   -0.1200000   2.494471e-04  1.671101e-07
    976    978   2   0.50000     0.0600000    0.0600000   6.128906e-05  1.496315e-08
    976    979   2   0.50000     0.0600000    0.0600000   6.128906e-05  1.496315e-08
    977    958   2   0.50000     0.0600000   -0.1200000   2.494471e-04  1.671101e-07
    977    978   2   0.50000     0.0600000    0.0600000   6.128906e-05  1.496315e-08
    977    979   2   0.50000     0.0600000    0.0600000   6.128906e-05  1.496315e-08
    956    959   2   0.50000    -0.1200000   -0.1200000   1.015252e-03  1.866303e-06
    956    980   2   0.50000    -0.1200000    0.0600000   2.494471e-04  1.671101e-07
    956    981   2   0.50000    -0.1200000    0.0600000   2.494471e-04  1.671101e-07
    978    959   2   0.50000     0.0600000   -0.1200000   2.494471e-04  1.671101e-07
    978    980   2   0.50000     0.0600000    0.0600000   6.128906e-05  1.496315e-08
    978    981   2   0.50000     0.0600000    0.0600000   6.128906e-05  1.496315e-08
    979    959   2   0.50000     0.0600000   -0.1200000   2.494471e-04  1.671101e-07
    979    980   2   0.50000     0.0600000    0.0600000   6.128906e-05  1.496315e-08
    979    981   2   0.50000     0.0600000    0.0600000   6.128906e-05  1.496315e-08
    957    960   2   0.50000    -0.1200000   -0.1200000   1.015252e-03  1.866303e-06
    957    982   2   0.50000    -0.1200000    0.0600000   2.494471e-04  1.671101e-07
    957    983   2   0.50000    -0.1200000    0.0600000   2.494471e-04  1.671101e-07
    980    960   2   0.50000     0.0600000   -0.1200000   2.494471e-04  1.671101e-07
    980    982   2   0.50000     0.0600000    0.0600000   6.128906e-05  1.496315e-08
    980    983   2   0.50000     0.0600000    0.0600000   6.128906e-05  1.496315e-08
    981    960   2   0.50000     0.0600000   -0.1200000   2.494471e-04  1.671101e-07
    981    982   2   0.50000     0.0600000    0.0600000   6.128906e-05  1.496315e-08
    981    983   2   0.50000     0.0600000    0.0600000   6.128906e-05  1.496315e-08
    958    961   2   0.50000    -0.1200000   -0.1200000   1.015252e-03  1.866303e-06
    958    984   2   0.50000    -0.1200000    0.0600000   2.494471e-04  1.671101e-07
    958    985   2   0.50000    -0.1200000    0.0600000   2.494471e-04  1.671101e-07
    982    961   2   0.50000     0.0600000   -0.1200000   2.494471e-04  1.671101e-07
    982    984   2   0.50000     0.0600000    0.0600000   6.128906e-05  1.496315e-08
    982    985   2   0.50000     0.0600000    0.0600000   6.128906e-05  1.496315e-08
    983    961   2   0.50000     0.0600000   -0.1200000   2.494471e-04  1.671101e-07
    983    984   2   0.50000     0.0600000    0.0600000   6.128906e-05  1.496315e-08
    983    985   2   0.50000     0.0600000    0.0600000   6.128906e-05  1.496315e-08
    959    962   2   0.50000    -0.1200000   -0.1200000   1.015252e-03  1.866303e-06
    959    986   2   0.50000    -0.1200000    0.0600000   2.494471e-04  1.671101e-07
    959    987   2   0.50000    -0.1200000    0.0600000   2.494471e-04  1.671101e-07
    984    962   2   0.50000     0.0600000   -0.1200000   2.494471e-04  1.671101e-07
    984    986   2   0.50000     0.0600000    0.0600000   6.128906e-05  1.496315e-08
    984    987   2   0.50000     0.0600000    0.0600000   6.128906e-05  1.496315e-08
    985    962   2   0.50000     0.0600000   -0.1200000   2.494471e-04  1.671101e-07
    985    986   2   0.50000     0.0600000    0.0600000   6.128906e-05  1.496315e-08
    985    987   2   0.50000     0.0600000    0.0600000   6.128906e-05  1.496315e-08
    960    963   2   0.50000    -0.1200000   -0.1200000   1.015252e-03  1.866303e-06
    960    988   2   0.50000    -0.1200000    0.0600000   2.494471e-04  1.671101e-07
    960    989   2   0.50000    -0.1200000    0.0600000   2.494471e-04  1.671101e-07
    986    963   2   0.50000     0.0600000   -0.1200000   2.494471e-04  1.671101e-07
    986    988   2   0.50000     0.0600000    0.0600000   6.128906e-05  1.496315e-08
    986    989   2   0.50000     0.0600000    0.0600000   6.128906e-05  1.496315e-08
    987    963   2   0.50000     0.0600000   -0.1200000   2.494471e-04  1.671101e-07
    987    988   2   0.50000     0.0600000    0.0600000   6.128906e-05  1.496315e-08
    987    989   2   0.50000     0.0600000    0.0600000   6.128906e-05  1.496315e-08
    961    964   2   0.50000    -0.1200000   -0.1200000   1.015252e-03  1.866303e-06
    961    990   2   0.50000    -0.1200000    0.0600000   2.494471e-04  1.671101e-07
    961    991   2   0.50000    -0.1200000    0.0600000   2.494471e-04  1.671101e-07
    988    964   2   0.50000     0.0600000   -0.1200000   2.494471e-04  1.671101e-07
    988    990   2   0.50000     0.0600000    0.0600000   6.128906e-05  1.496315e-08
    988    991   2   0.50000     0.0600000    0.0600000   6.128906e-05  1.496315e-08
    989    964   2   0.50000     0.0600000   -0.1200000   2.494471e-04  1.671101e-07
    989    990   2   0.50000     0.0600000    0.0600000   6.128906e-05  1.496315e-08
    989    991   2   0.50000     0.0600000    0.0600000   6.128906e-05  1.496315e-08
    962    965   2   0.50000    -0.1200000   -0.1200000   1.015252e-03  1.866303e-06
    962    992   2   0.50000    -0.1200000    0.0600000   2.494471e-04  1.671101e-07
    962    993   2   0.50000    -0.1200000    0.0600000   2.494471e-04  1.671101e-07
    990    965   2   0.50000     0.0600000   -0.1200000   2.494471e-04  1.671101e-07
    990    992   2   0.50000     0.0600000    0.0600000   6.128906e-05  1.496315e-08
    990    993   2   0.50000     0.0600000    0.0600000   6.128906e-05  1.496315e-08
    991    965   2   0.50000     0.0600000   -0.1200000   2.494471e-04  1.671101e-07
    991    992   2   0.50000     0.0600000    0.0600000   6.128906e-05  1.496315e-08
    991    993   2   0.50000     0.0600000    0.0600000   6.128906e-05  1.496315e-08
    963    966   2   0.50000    -0.1200000    0.5000000   1.575021e-03  3.561100e-06
    963    994   2   0.50000    -0.1200000    0.0600000   2.494471e-04  1.671101e-07
    963    995   2   0.50000    -0.1200000    0.0600000   2.494471e-04  1.671101e-07
    992    966   2   0.50000     0.0600000    0.5000000   3.869820e-04  3.188634e-07
    992    994   2   0.50000     0.0600000    0.0600000   6.128906e-05  1.496315e-08
    992    995   2   0.50000     0.0600000    0.0600000   6.128906e-05  1.496315e-08
    993    966   2   0.50000     0.0600000    0.5000000   3.869820e-04  3.188634e-07
    993    994   2   0.50000     0.0600000    0.0600000   6.128906e-05  1.496315e-08
    993    995   2   0.50000     0.0600000    0.0600000   6.128906e-05  1.496315e-08
    964    967   2   0.50000    -0.1200000   -0.5000000   1.095425e-03  1.218041e-06
    964    968   2   0.50000    -0.1200000   -0.5000000   1.304585e-03  1.920112e-06
    994    967   2   0.50000     0.0600000   -0.5000000   2.691455e-04  1.090642e-07
    994    968   2   0.50000     0.0600000   -0.5000000   3.205360e-04  1.719281e-07
    995    967   2   0.50000     0.0600000   -0.5000000   2.691455e-04  1.090642e-07
    995    968   2   0.50000     0.0600000   -0.5000000   3.205360e-04  1.719281e-07
    965    969   2   0.50000    -0.1200000    0.0800000   1.015252e-03  1.866303e-06
    965    996   2   0.50000    -0.1200000    0.3000000   1.995577e-06  1.069504e-11
    967    969   2   0.50000    -0.5000000    0.0800000   1.095425e-03  1.218041e-06
    967    996   2   0.50000    -0.5000000    0.3000000   2.153164e-06  6.980110e-12
    966    970   2   0.50000     0.5000000   -0.1200000   1.575021e-03  3.561100e-06
    966    997   2   0.50000     0.5000000    0.0600000   3.869820e-04  3.188634e-07
    966    998   2   0.50000     0.5000000    0.0600000   3.869820e-04  3.188634e-07
    996    970   2   0.50000     0.3000000   -0.1200000   1.995577e-06  1.069504e-11
    996    997   2   0.50000     0.3000000    0.0600000   4.903125e-07  9.576416e-13
    996    998   2   0.50000     0.3000000    0.0600000   4.903125e-07  9.576416e-13
    968    971   2   0.50000    -0.5000000   -0.1200000   1.304585e-03  1.920112e-06
    968    999   2   0.50000    -0.5000000    0.0600000   3.205360e-04  1.719281e-07
    968   1000   2   0.50000    -0.5000000    0.0600000   3.205360e-04  1.719281e-07
    997    971   2   0.50000     0.0600000   -0.1200000   2.494471e-04  1.671101e-07
    997    999   2   0.50000     0.0600000    0.0600000   6.128906e-05  1.496315e-08
    997   1000   2   0.50000     0.0600000    0.0600000   6.128906e-05  1.496315e-08
    998    971   2   0.50000     0.0600000   -0.1200000   2.494471e-04  1.671101e-07
    998    999   2   0.50000     0.0600000    0.0600000   6.128906e-05  1.496315e-08
    998   1000   2   0.50000     0.0600000    0.0600000   6.128906e-05  1.496315e-08
    969    972   2   0.50000     0.0800000   -0.1200000   1.015252e-03  1.866303e-06
    969   1001   2   0.50000     0.0800000    0.0600000   2.494471e-04  1.671101e-07
    969   1002   2   0.50000     0.0800000    0.0600000   2.494471e-04  1.671101e-07
    999    972   2   0.50000     0.0600000   -0.1200000   2.494471e-04  1.671101e-07
    999   1001   2   0.50000     0.0600000    0.0600000   6.128906e-05  1.496315e-08
    999   1002   2   0.50000     0.0600000    0.0600000   6.128906e-05  1.496315e-08
   1000    972   2   0.50000     0.0600000   -0.1200000   2.494471e-04  1.671101e-07
   1000   1001   2   0.50000     0.0600000    0.0600000   6.128906e-05  1.496315e-08
   1000   1002   2   0.50000     0.0600000    0.0600000   6.128906e-05  1.496315e-08
    970    973   2   0.50000    -0.1200000   -0.1200000   1.015252e-03  1.866303e-06
    970   1003   2   0.50000    -0.1200000    0.0600000   2.494471e-04  1.671101e-07
    970   1004   2   0.50000    -0.1200000    0.0600000   2.494471e-04  1.671101e-07
   1001    973   2   0.50000     0.0600000   -0.1200000   2.494471e-04  1.671101e-07
   1001   1003   2   0.50000     0.0600000    0.0600000   6.128906e-05  1.496315e-08
   1001   1004   2   0.50000     0.0600000    0.0600000   6.128906e-05  1.496315e-08
   1002    973   2   0.50000     0.0600000   -0.1200000   2.494471e-04  1.671101e-07
   1002   1003   2   0.50000     0.0600000    0.0600000   6.128906e-05  1.496315e-08
   1002   1004   2   0.50000     0.0600000    0.0600000   6.128906e-05  1.496315e-08
    971    974   2   0.50000    -0.1200000    0.0800000   1.015252e-03  1.866303e-06
    971   1005   2   0.50000    -0.1200000    0.0600000   2.494471e-04  1.671101e-07
    971   1006   2   0.50000    -0.1200000    0.0600000   2.494471e-04  1.671101e-07
   1003    974   2   0.50000     0.0600000    0.0800000   2.494471e-04  1.671101e-07
   1003   1005   2   0.50000     0.0600000    0.0600000   6.128906e-05  1.496315e-08
   1003   1006   2   0.50000     0.0600000    0.0600000   6.128906e-05  1.496315e-08
   1004    974   2   0.50000     0.0600000    0.0800000   2.494471e-04  1.671101e-07
   1004   1005   2   0.50000     0.0600000    0.0600000   6.128906e-05  1.496315e-08
   1004   1006   2   0.50000     0.0600000    0.0600000   6.128906e-05  1.496315e-08
    972    975   2   0.50000    -0.1200000   -0.5000000   1.304585e-03  1.920112e-06
    972   1007   2   0.50000    -0.1200000    0.0600000   2.494471e-04  1.671101e-07
    972   1008   2   0.50000    -0.1200000    0.0600000   2.494471e-04  1.671101e-07
   1005    975   2   0.50000     0.0600000   -0.5000000   3.205360e-04  1.719281e-07
   1005   1007   2   0.50000     0.0600000    0.0600000   6.128906e-05  1.496315e-08
   1005   1008   2   0.50000     0.0600000    0.0600000   6.128906e-05  1.496315e-08
   1006    975   2   0.50000     0.0600000   -0.5000000   3.205360e-04  1.719281e-07
   1006   1007   2   0.50000     0.0600000    0.0600000   6.128906e-05  1.496315e-08
   1006   1008   2   0.50000     0.0600000    0.0600000   6.128906e-05  1.496315e-08
    973   1009   2   0.50000    -0.1200000    0.3000000   1.995577e-06  1.069504e-11
    973   1010   2   0.50000    -0.1200000    0.5000000   1.575021e-03  3.561100e-06
   1007   1009   2   0.50000     0.0600000    0.3000000   4.903125e-07  9.576416e-13
   1007   1010   2   0.50000     0.0600000    0.5000000   3.869820e-04  3.188634e-07
   1008   1009   2   0.50000     0.0600000    0.3000000   4.903125e-07  9.576416e-13
   1008   1010   2   0.50000     0.0600000    0.5000000   3.869820e-04  3.188634e-07
    974   1011   2   0.50000     0.0800000   -0.5000000   1.095425e-03  1.218041e-06
    974   1012   2   0.50000     0.0800000   -0.1200000   1.015252e-03  1.866303e-06
   1009   1011   2   0.50000     0.3000000   -0.5000000   2.153164e-06  6.980110e-12
   1009   1012   2   0.50000     0.3000000   -0.1200000   1.995577e-06  1.069504e-11
    975   1013   2   0.50000    -0.5000000   -0.1200000   1.304585e-03  1.920112e-06
    975   1032   2   0.50000    -0.5000000    0.0600000   3.205360e-04  1.719281e-07
    975   1033   2   0.50000    -0.5000000    0.0600000   3.205360e-04  1.719281e-07
   1011   1013   2   0.50000    -0.5000000   -0.1200000   1.095425e-03  1.218041e-06
   1011   1032   2   0.50000    -0.5000000    0.0600000   2.691455e-04  1.090642e-07
   1011   1033   2   0.50000    -0.5000000    0.0600000   2.691455e-04  1.090642e-07
   1010   1014   2   0.50000     0.5000000   -0.1200000   1.575021e-03  3.561100e-06
   1010   1034   2   0.50000     0.5000000    0.0600000   3.869820e-04  3.188634e-07
   1010   1035   2   0.50000     0.5000000    0.0600000   3.869820e-04  3.188634e-07
   1032   1014   2   0.50000     0.0600000   -0.1200000   2.494471e-04  1.671101e-07
   1032   1034   2   0.50000     0.0600000    0.0600000   6.128906e-05  1.496315e-08
   1032   1035   2   0.50000     0.0600000    0.0600000   6.128906e-05  1.496315e-08
   1033   1014   2   0.50000     0.0600000   -0.1200000   2.494471e-04  1.671101e-07
   1033   1034   2   0.50000     0.0600000    0.0600000   6.128906e-05  1.496315e-08
   1033   1035   2   0.50000     0.0600000    0.0600000   6.128906e-05  1.496315e-08
   1012   1015   2   0.50000    -0.1200000   -0.1200000   1.015252e-03  1.866303e-06
   1012   1036   2   0.50000    -0.1200000    0.0600000   2.494471e-04  1.671101e-07
   1012   1037   2   0.50000    -0.1200000    0.0600000   2.494471e-04  1.671101e-07
   1034   1015   2   0.50000     0.0600000   -0.1200000   2.494471e-04  1.671101e-07
   1034   1036   2   0.50000     0.0600000    0.0600000   6.128906e-05  1.496315e-08
   1034   1037   2   0.50000     0.0600000    0.0600000   6.128906e-05  1.496315e-08
   1035   1015   2   0.50000     0.0600000   -0.1200000   2.494471e-04  1.671101e-07
   1035   1036   2   0.50000     0.0600000    0.0600000   6.128906e-05  1.496315e-08
   1035   1037   2   0.50000     0.0600000    0.0600000   6.128906e-05  1.496315e-08
   1013   1016   2   0.50000    -0.1200000   -0.1200000   1.015252e-03  1.866303e-06
   1013   1038   2   0.50000    -0.1200000    0.0600000   2.494471e-04  1.671101e-07
   1013   1039   2   0.50000    -0.1200000    0.0600000   2.494471e-04  1.671101e-07
   1036   1016   2   0.50000     0.0600000   -0.1200000   2.494471e-04  1.671101e-07
   1036   1038   2   0.50000     0.0600000    0.0600000   6.128906e-05  1.496315e-08
   1036   1039   2   0.50000     0.0600000    0.0600000   6.128906e-05  1.496315e-08
   1037   1016   2   0.50000     0.0600000   -0.1200000   2.494471e-04  1.671101e-07
   1037   1038   2   0.50000     0.0600000    0.0600000   6.128906e-05  1.496315e-08
   1037   1039   2   0.50000     0.0600000    0.0600000   6.128906e-05  1.496315e-08
   1014   1017   2   0.50000    -0.1200000   -0.1200000   1.015252e-03  1.866303e-06
   1014   1040   2   0.50000    -0.1200000    0.0600000   2.494471e-04  1.671101e-07
   1014   1041   2   0.50000    -0.1200000    0.0600000   2.494471e-04  1.671101e-07
   1038   1017   2   0.50000     0.0600000   -0.1200000   2.494471e-04  1.671101e-07
   1038   1040   2   0.50000     0.0600000    0.0600000   6.128906e-05  1.496315e-08
   1038   1041   2   0.50000     0.0600000    0.0600000   6.128906e-05  1.496315e-08
   1039   1017   2   0.50000     0.0600000   -0.1200000   2.494471e-04  1.671101e-07
   1039   1040   2   0.50000     0.0600000    0.0600000   6.128906e-05  1.496315e-08
   1039   1041   2   0.50000     0.0600000    0.0600000   6.128906e-05  1.496315e-08
   1015   1018   2   0.50000    -0.1200000   -0.1200000   1.015252e-03  1.866303e-06
   1015   1042   2   0.50000    -0.1200000    0.0600000   2.494471e-04  1.671101e-07
   1015   1043   2   0.50000    -0.1200000    0.0600000   2.494471e-04  1.671101e-07
   1040   1018   2   0.50000     0.0600000   -0.1200000   2.494471e-04  1.671101e-07
   1040   1042   2   0.50000     0.0600000    0.0600000   6.128906e-05  1.496315e-08
   1040   1043   2   0.50000     0.0600000    0.0600000   6.128906e-05  1.496315e-08
   1041   1018   2   0.50000     0.0600000   -0.1200000   2.494471e-04  1.671101e-07
   1041   1042   2   0.50000     0.0600000    0.0600000   6.128906e-05  1.496315e-08
   1041   1043   2   0.50000     0.0600000    0.0600000   6.128906e-05  1.496315e-08
   1016   1019   2   0.50000    -0.1200000   -0.1200000   1.015252e-03  1.866303e-06
   1016   1044   2   0.50000    -0.1200000    0.0600000   2.494471e-04  1.671101e-07
   1016   1045   2   0.50000    -0.1200000    0.0600000   2.494471e-04  1.671101e-07
   1042   1019   2   0.50000     0.0600000   -0.1200000   2.494471e-04  1.671101e-07
   1042   1044   2   0.50000     0.0600000    0.0600000   6.128906e-05  1.496315e-08
   1042   1045   2   0.50000     0.0600000    0.0600000   6.128906e-05  1.496315e-08
   1043   1019   2   0.50000     0.0600000   -0.1200000   2.494471e-04  1.671101e-07
   1043   1044   2   0.50000     0.0600000    0.0600000   6.128906e-05  1.496315e-08
   1043   1045   2   0.50000     0.0600000    0.0600000   6.128906e-05  1.496315e-08
   1017   1020   2   0.50000    -0.1200000   -0.1200000   1.015252e-03  1.866303e-06
   1017   1046   2   0.50000    -0.1200000    0.0600000   2.494471e-04  1.671101e-07
   1017   1047   2   0.50000    -0.1200000    0.0600000   2.494471e-04  1.671101e-07
   1044   1020   2   0.50000     0.0600000   -0.1200000   2.494471e-04  1.671101e-07
   1044   1046   2   0.50000     0.0600000    0.0600000   6.128906e-05  1.496315e-08
   1044   1047   2   0.50000     0.0600000    0.0600000   6.128906e-05  1.496315e-08
   1045   1020   2   0.50000     0.0600000   -0.1200000   2.494471e-04  1.671101e-07
   1045   1046   2   0.50000     0.0600000    0.0600000   6.128906e-05  1.496315e-08
   1045   1047   2   0.50000     0.0600000    0.0600000   6.128906e-05  1.496315e-08
   1018   1021   2   0.50000    -0.1200000   -0.1200000   1.015252e-03  1.866303e-06
   1018   1048   2   0.50000    -0.1200000    0.0600000   2.494471e-04  1.671101e-07
   1018   1049   2   0.50000    -0.1200000    0.0600000   2.494471e-04  1.671101e-07
   1046   1021   2   0.50000     0.0600000   -0.1200000   2.494471e-04  1.671101e-07
   1046   1048   2   0.50000     0.0600000    0.0600000   6.128906e-05  1.496315e-08
   1046   1049   2   0.50000     0.0600000    0.0600000   6.128906e-05  1.496315e-08
   1047   1021   2   0.50000     0.0600000   -0.1200000   2.494471e-04  1.671101e-07
   1047   1048   2   0.50000     0.0600000    0.0600000   6.128906e-05  1.496315e-08
   1047   1049   2   0.50000     0.0600000    0.0600000   6.128906e-05  1.496315e-08
   1019   1022   2   0.50000    -0.1200000    0.5000000   1.575021e-03  3.561100e-06
   1019   1050   2   0.50000    -0.1200000    0.0600000   2.494471e-04  1.671101e-07
   1019   1051   2   0.50000    -0.1200000    0.0600000   2.494471e-04  1.671101e-07
   1048   1022   2   0.50000     0.0600000    0.5000000   3.869820e-04  3.188634e-07
   1048   1050   2   0.50000     0.0600000    0.0600000   6.128906e-05  1.496315e-08
   1048   1051   2   0.50000     0.0600000    0.0600000   6.128906e-05  1.496315e-08
   1049   1022   2   0.50000     0.0600000    0.5000000   3.869820e-04  3.188634e-07
   1049   1050   2   0.50000     0.0600000    0.0600000   6.128906e-05  1.496315e-08
   1049   1051   2   0.50000     0.0600000    0.0600000   6.128906e-05  1.496315e-08
   1020   1023   2   0.50000    -0.1200000   -0.5000000   1.095425e-03  1.218041e-06
   1020   1024   2   0.50000    -0.1200000   -0.5000000   1.304585e-03  1.920112e-06
   1050   1023   2   0.50000     0.0600000   -0.5000000   2.691455e-04  1.090642e-07
   1050   1024   2   0.50000     0.0600000   -0.5000000   3.205360e-04  1.719281e-07
   1051   1023   2   0.50000     0.0600000   -0.5000000   2.691455e-04  1.090642e-07
   1051   1024   2   0.50000     0.0600000   -0.5000000   3.205360e-04  1.719281e-07
   1021   1025   2   0.50000    -0.1200000    0.0800000   1.015252e-03  1.866303e-06
   1021   1052   2   0.50000    -0.1200000    0.3000000   1.995577e-06  1.069504e-11
   1023   1025   2   0.50000    -0.5000000    0.0800000   1.095425e-03  1.218041e-06
   1023   1052   2   0.50000    -0.5000000    0.3000000   2.153164e-06  6.980110e-12
   1022   1026   2   0.50000     0.5000000   -0.1200000   1.575021e-03  3.561100e-06
   1022   1053   2   0.50000     0.5000000    0.0600000   3.869820e-04  3.188634e-07
   1022   1054   2   0.50000     0.5000000    0.0600000   3.869820e-04  3.188634e-07
   1052   1026   2   0.50000     0.3000000   -0.1200000   1.995577e-06  1.069504e-11
   1052   1053   2   0.50000     0.3000000    0.0600000   4.903125e-07  9.576416e-13
   1052   1054   2   0.50000     0.3000000    0.0600000   4.903125e-07  9.576416e-13
   1024   1027   2   0.50000    -0.5000000   -0.1200000   1.304585e-03  1.920112e-06
   1024   1055   2   0.50000    -0.5000000    0.0600000   3.205360e-04  1.719281e-07
   1024   1056   2   0.50000    -0.5000000    0.0600000   3.205360e-04  1.719281e-07
   1053   1027   2   0.50000     0.0600000   -0.1200000   2.494471e-04  1.671101e-07
   1053   1055   2   0.50000     0.0600000    0.0600000   6.128906e-05  1.496315e-08
   1053   1056   2   0.50000     0.0600000    0.0600000   6.128906e-05  1.496315e-08
   1054   1027   2   0.50000     0.0600000   -0.1200000   2.494471e-04  1.671101e-07
   1054   1055   2   0.50000     0.0600000    0.0600000   6.128906e-05  1.496315e-08
   1054   1056   2   0.50000     0.0600000    0.0600000   6.128906e-05  1.496315e-08
   1025   1028   2   0.50000     0.0800000   -0.1200000   1.015252e-03  1.866303e-06
   1025   1057   2   0.50000     0.0800000    0.0600000   2.494471e-04  1.671101e-07
   1025   1058   2   0.50000     0.0800000    0.0600000   2.494471e-04  1.671101e-07
   1055   1028   2   0.50000     0.0600000   -0.1200000   2.494471e-04  1.671101e-07
   1055   1057   2   0.50000     0.0600000    0.0600000   6.128906e-05  1.496315e-08
   1055   1058   2   0.50000     0.0600000    0.0600000   6.128906e-05  1.496315e-08
   1056   1028   2   0.50000     0.0600000   -0.1200000   2.494471e-04  1.671101e-07
   1056   1057   2   0.50000     0.0600000    0.0600000   6.128906e-05  1.496315e-08
   1056   1058   2   0.50000     0.0600000    0.0600000   6.128906e-05  1.496315e-08
   1026   1029   2   0.50000    -0.1200000   -0.1200000   1.015252e-03  1.866303e-06
   1026   1059   2   0.50000    -0.1200000    0.0600000   2.494471e-04  1.671101e-07
   1026   1060   2   0.50000    -0.1200000    0.0600000   2.494471e-04  1.671101e-07
   1057   1029   2   0.50000     0.0600000   -0.1200000   2.494471e-04  1.671101e-07
   1057   1059   2   0.50000     0.0600000    0.0600000   6.128906e-05  1.496315e-08
   1057   1060   2   0.50000     0.0600000    0.0600000   6.128906e-05  1.496315e-08
   1058   1029   2   0.50000     0.0600000   -0.1200000   2.494471e-04  1.671101e-07
   1058   1059   2   0.50000     0.0600000    0.0600000   6.128906e-05  1.496315e-08
   1058   1060   2   0.50000     0.0600000    0.0600000   6.128906e-05  1.496315e-08
   1027   1030   2   0.50000    -0.1200000    0.0800000   1.015252e-03  1.866303e-06
   1027   1061   2   0.50000    -0.1200000    0.0600000   2.494471e-04  1.671101e-07
   1027   1062   2   0.50000    -0.1200000    0.0600000   2.494471e-04  1.671101e-07
   1059   1030   2   0.50000     0.0600000    0.0800000   2.494471e-04  1.671101e-07
   1059   1061   2   0.50000     0.0600000    0.0600000   6.128906e-05  1.496315e-08
   1059   1062   2   0.50000     0.0600000    0.0600000   6.128906e-05  1.496315e-08
   1060   1030   2   0.50000     0.0600000    0.0800000   2.494471e-04  1.671101e-07
   1060   1061   2   0.50000     0.0600000    0.0600000   6.128906e-05  1.496315e-08
   1060   1062   2   0.50000     0.0600000    0.0600000   6.128906e-05  1.496315e-08
   1028   1031   2   0.50000    -0.1200000   -0.5000000   1.304585e-03  1.920112e-06
   1028   1063   2   0.50000    -0.1200000    0.0600000   2.494471e-04  1.671101e-07
   1028   1064   2   0.50000    -0.1200000    0.0600000   2.494471e-04  1.671101e-07
   1061   1031   2   0.50000     0.0600000   -0.5000000   3.205360e-04  1.719281e-07
   1061   1063   2   0.50000     0.0600000    0.0600000   6.128906e-05  1.496315e-08
   1061   1064   2   0.50000     0.0600000    0.0600000   6.128906e-05  1.496315e-08
   1062   1031   2   0.50000     0.0600000   -0.5000000   3.205360e-04  1.719281e-07
   1062   1063   2   0.50000     0.0600000    0.0600000   6.128906e-05  1.496315e-08
   1062   1064   2   0.50000     0.0600000    0.0600000   6.128906e-05  1.496315e-08
   1029   1065   2   0.50000    -0.1200000    0.3000000   1.995577e-06  1.069504e-11
   1029   1066   2   0.50000    -0.1200000    0.5000000   1.575021e-03  3.561100e-06
   1063   1065   2   0.50000     0.0600000    0.3000000   4.903125e-07  9.576416e-13
   1063   1066   2   0.50000     0.0600000    0.5000000   3.869820e-04  3.188634e-07
   1064   1065   2   0.50000     0.0600000    0.3000000   4.903125e-07  9.576416e-13
   1064   1066   2   0.50000     0.0600000    0.5000000   3.869820e-04  3.188634e-07
   1030   1067   2   0.50000     0.0800000   -0.5000000   1.095425e-03  1.218041e-06
   1030   1068   2   0.50000     0.0800000   -0.1200000   1.015252e-03  1.866303e-06
   1065   1067   2   0.50000     0.3000000   -0.5000000   2.153164e-06  6.980110e-12
   1065   1068   2   0.50000     0.3000000   -0.1200000   1.995577e-06  1.069504e-11
   1031   1069   2   0.50000    -0.5000000   -0.1200000   1.304585e-03  1.920112e-06
   1031   1088   2   0.50000    -0.5000000    0.0600000   3.205360e-04  1.719281e-07
   1031   1089   2   0.50000    -0.5000000    0.0600000   3.205360e-04  1.719281e-07
   1067   1069   2   0.50000    -0.5000000   -0.1200000   1.095425e-03  1.218041e-06
   1067   1088   2   0.50000    -0.5000000    0.0600000   2.691455e-04  1.090642e-07
   1067   1089   2   0.50000    -0.5000000    0.0600000   2.691455e-04  1.090642e-07
   1066   1070   2   0.50000     0.5000000   -0.1200000   1.575021e-03  3.561100e-06
   1066   1090   2   0.50000     0.5000000    0.0600000   3.869820e-04  3.188634e-07
   1066   1091   2   0.50000     0.5000000    0.0600000   3.869820e-04  3.188634e-07
   1088   1070   2   0.50000     0.0600000   -0.1200000   2.494471e-04  1.671101e-07
   1088   1090   2   0.50000     0.0600000    0.0600000   6.128906e-05  1.496315e-08
   1088   1091   2   0.50000     0.0600000    0.0600000   6.128906e-05  1.496315e-08
   1089   1070   2   0.50000     0.0600000   -0.1200000   2.494471e-04  1.671101e-07
   1089   1090   2   0.50000     0.0600000    0.0600000   6.128906e-05  1.496315e-08
   1089   1091   2   0.50000     0.0600000    0.0600000   6.128906e-05  1.496315e-08
   1068   1071   2   0.50000    -0.1200000   -0.1200000   1.015252e-03  1.866303e-06
   1068   1092   2   0.50000    -0.1200000    0.0600000   2.494471e-04  1.671101e-07
   1068   1093   2   0.50000    -0.1200000    0.0600000   2.494471e-04  1.671101e-07
   1090   1071   2   0.50000     0.0600000   -0.1200000   2.494471e-04  1.671101e-07
   1090   1092   2   0.50000     0.0600000    0.0600000   6.128906e-05  1.496315e-08
   1090   1093   2   0.50000     0.0600000    0.0600000   6.128906e-05  1.496315e-08
   1091   1071   2   0.50000     0.0600000   -0.1200000   2.494471e-04  1.671101e-07
   1091   1092   2   0.50000     0.0600000    0.0600000   6.128906e-05  1.496315e-08
   1091   1093   2   0.50000     0.0600000    0.0600000   6.128906e-05  1.496315e-08
   1069   1072   2   0.50000    -0.1200000   -0.1200000   1.015252e-03  1.866303e-06
   1069   1094   2   0.50000    -0.1200000    0.0600000   2.494471e-04  1.671101e-07
   1069   1095   2   0.50000    -0.1200000    0.0600000   2.494471e-04  1.671101e-07
   1092   1072   2   0.50000     0.0600000   -0.1200000   2.494471e-04  1.671101e-07
   1092   1094   2   0.50000     0.0600000    0.0600000   6.128906e-05  1.496315e-08
   1092   1095   2   0.50000     0.0600000    0.0600000   6.128906e-05  1.496315e-08
   1093   1072   2   0.50000     0.0600000   -0.1200000   2.494471e-04  1.671101e-07
   1093   1094   2   0.50000     0.0600000    0.0600000   6.128906e-05  1.496315e-08
   1093   1095   2   0.50000     0.0600000    0.0600000   6.128906e-05  1.496315e-08
   1070   1073   2   0.50000    -0.1200000   -0.1200000   1.015252e-03  1.866303e-06
   1070   1096   2   0.50000    -0.1200000    0.0600000   2.494471e-04  1.671101e-07
   1070   1097   2   0.50000    -0.1200000    0.0600000   2.494471e-04  1.671101e-07
   1094   1073   2   0.50000     0.0600000   -0.1200000   2.494471e-04  1.671101e-07
   1094   1096   2   0.50000     0.0600000    0.0600000   6.128906e-05  1.496315e-08
   1094   1097   2   0.50000     0.0600000    0.0600000   6.128906e-05  1.496315e-08
   1095   1073   2   0.50000     0.0600000   -0.1200000   2.494471e-04  1.671101e-07
   1095   1096   2   0.50000     0.0600000    0.0600000   6.128906e-05  1.496315e-08
   1095   1097   2   0.50000     0.0600000    0.0600000   6.128906e-05  1.496315e-08
   1071   1074   2   0.50000    -0.1200000   -0.1200000   1.015252e-03  1.866303e-06
   1071   1098   2   0.50000    -0.1200000    0.0600000   2.494471e-04  1.671101e-07
   1071   1099   2   0.50000    -0.1200000    0.0600000   2.494471e-04  1.671101e-07
   1096   1074   2   0.50000     0.0600000   -0.1200000   2.494471e-04  1.671101e-07
   1096   1098   2   0.50000     0.0600000    0.0600000   6.128906e-05  1.496315e-08
   1096   1099   2   0.50000     0.0600000    0.0600000   6.128906e-05  1.496315e-08
   1097   1074   2   0.50000     0.0600000   -0.1200000   2.494471e-04  1.671101e-07
   1097   1098   2   0.50000     0.0600000    0.0600000   6.128906e-05  1.496315e-08
   1097   1099   2   0.50000     0.0600000    0.0600000   6.128906e-05  1.496315e-08
   1072   1075   2   0.50000    -0.1200000   -0.1200000   1.015252e-03  1.866303e-06
   1072   1100   2   0.50000    -0.1200000    0.0600000   2.494471e-04  1.671101e-07
   1072   1101   2   0.50000    -0.1200000    0.0600000   2.494471e-04  1.671101e-07
   1098   1075   2   0.50000     0.0600000   -0.1200000   2.494471e-04  1.671101e-07
   1098   1100   2   0.50000     0.0600000    0.0600000   6.128906e-05  1.496315e-08
   1098   1101   2   0.50000     0.0600000    0.0600000   6.128906e-05  1.496315e-08
   1099   1075   2   0.50000     0.0600000   -0.1200000   2.494471e-04  1.671101e-07
   1099   1100   2   0.50000     0.0600000    0.0600000   6.128906e-05  1.496315e-08
   1099   1101   2   0.50000     0.0600000    0.0600000   6.128906e-05  1.496315e-08
   1073   1076   2   0.50000    -0.1200000   -0.1200000   1.015252e-03  1.866303e-06
   1073   1102   2   0.50000    -0.1200000    0.0600000   2.494471e-04  1.671101e-07
   1073   1103   2   0.50000    -0.1200000    0.0600000   2.494471e-04  1.671101e-07
   1100   1076   2   0.50000     0.0600000   -0.1200000   2.494471e-04  1.671101e-07
   1100   1102   2   0.50000     0.0600000    0.0600000   6.128906e-05  1.496315e-08
   1100   1103   2   0.50000     0.0600000    0.0600000   6.128906e-05  1.496315e-08
   1101   1076   2   0.50000     0.0600000   -0.1200000   2.494471e-04  1.671101e-07
   1101   1102   2   0.50000     0.0600000    0.0600000   6.128906e-05  1.496315e-08
   1101   1103   2   0.50000     0.0600000    0.0600000   6.128906e-05  1.496315e-08
   1074   1077   2   0.50000    -0.1200000   -0.1200000   1.015252e-03  1.866303e-06
   1074   1104   2   0.50000    -0.1200000    0.0600000   2.494471e-04  1.671101e-07
   1074   1105   2   0.50000    -0.1200000    0.0600000   2.494471e-04  1.671101e-07
   1102   1077   2   0.50000     0.0600000   -0.1200000   2.494471e-04  1.671101e-07
   1102   1104   2   0.50000     0.0600000    0.0600000   6.128906e-05  1.496315e-08
   1102   1105   2   0.50000     0.0600000    0.0600000   6.128906e-05  1.496315e-08
   1103   1077   2   0.50000     0.0600000   -0.1200000   2.494471e-04  1.671101e-07
   1103   1104   2   0.50000     0.0600000    0.0600000   6.128906e-05  1.496315e-08
   1103   1105   2   0.50000     0.0600000    0.0600000   6.128906e-05  1.496315e-08
   1075   1078   2   0.50000    -0.1200000    0.5000000   1.575021e-03  3.561100e-06
   1075   1106   2   0.50000    -0.1200000    0.0600000   2.494471e-04  1.671101e-07
   1075   1107   2   0.50000    -0.1200000    0.0600000   2.494471e-04  1.671101e-07
   1104   1078   2   0.50000     0.0600000    0.5000000   3.869820e-04  3.188634e-07
   1104   1106   2   0.50000     0.0600000    0.0600000   6.128906e-05  1.496315e-08
   1104   1107   2   0.50000     0.0600000    0.0600000   6.128906e-05  1.496315e-08
   1105   1078   2   0.50000     0.0600000    0.5000000   3.869820e-04  3.188634e-07
   1105   1106   2   0.50000     0.0600000    0.0600000   6.128906e-05  1.496315e-08
   1105   1107   2   0.50000     0.0600000    0.0600000   6.128906e-05  1.496315e-08
   1076   1079   2   0.50000    -0.1200000   -0.5000000   1.095425e-03  1.218041e-06
   1076   1080   2   0.50000    -0.1200000   -0.5000000   1.304585e-03  1.920112e-06
   1106   1079   2   0.50000     0.0600000   -0.5000000   2.691455e-04  1.090642e-07
   1106   1080   2   0.50000     0.0600000   -0.5000000   3.205360e-04  1.719281e-07
   1107   1079   2   0.50000     0.0600000   -0.5000000   2.691455e-04  1.090642e-07
   1107   1080   2   0.50000     0.0600000   -0.5000000   3.205360e-04  1.719281e-07
   1077   1081   2   0.50000    -0.1200000    0.0800000   1.015252e-03  1.866303e-06
   1077   1108   2   0.50000    -0.1200000    0.3000000   1.995577e-06  1.069504e-11
   1079   1081   2   0.50000    -0.5000000    0.0800000   1.095425e-03  1.218041e-06
   1079   1108   2   0.50000    -0.5000000    0.3000000   2.153164e-06  6.980110e-12
   1078   1082   2   0.50000     0.5000000   -0.1200000   1.575021e-03  3.561100e-06
   1078   1109   2   0.50000     0.5000000    0.0600000   3.869820e-04  3.188634e-07
   1078   1110   2   0.50000     0.5000000    0.0600000   3.869820e-04  3.188634e-07
   1108   1082   2   0.50000     0.3000000   -0.1200000   1.995577e-06  1.069504e-11
   1108   1109   2   0.50000     0.3000000    0.0600000   4.903125e-07  9.576416e-13
   1108   1110   2   0.50000     0.3000000    0.0600000   4.903125e-07  9.576416e-13
   1080   1083   2   0.50000    -0.5000000   -0.1200000   1.304585e-03  1.920112e-06
   1080   1111   2   0.50000    -0.5000000    0.0600000   3.205360e-04  1.719281e-07
   1080   1112   2   0.50000    -0.5000000    0.0600000   3.205360e-04  1.719281e-07
   1109   1083   2   0.50000     0.0600000   -0.1200000   2.494471e-04  1.671101e-07
   1109   1111   2   0.50000     0.0600000    0.0600000   6.128906e-05  1.496315e-08
   1109   1112   2   0.50000     0.0600000    0.0600000   6.128906e-05  1.496315e-08
   1110   1083   2   0.50000     0.0600000   -0.1200000   2.494471e-04  1.671101e-07
   1110   1111   2   0.50000     0.0600000    0.0600000   6.128906e-05  1.496315e-08
   1110   1112   2   0.50000     0.0600000    0.0600000   6.128906e-05  1.496315e-08
   1081   1084   2   0.50000     0.0800000   -0.1200000   1.015252e-03  1.866303e-06
   1081   1113   2   0.50000     0.0800000    0.0600000   2.494471e-04  1.671101e-07
   1081   1114   2   0.50000     0.0800000    0.0600000   2.494471e-04  1.671101e-07
   1111   1084   2   0.50000     0.0600000   -0.1200000   2.494471e-04  1.671101e-07
   1111   1113   2   0.50000     0.0600000    0.0600000   6.128906e-05  1.496315e-08
   1111   1114   2   0.50000     0.0600000    0.0600000   6.128906e-05  1.496315e-08
   1112   1084   2   0.50000     0.0600000   -0.1200000   2.494471e-04  1.671101e-07
   1112   1113   2   0.50000     0.0600000    0.0600000   6.128906e-05  1.496315e-08
   1112   1114   2   0.50000     0.0600000    0.0600000   6.128906e-05  1.496315e-08
   1082   1085   2   0.50000    -0.1200000   -0.1200000   1.015252e-03  1.866303e-06
   1082   1115   2   0.50000    -0.1200000    0.0600000   2.494471e-04  1.671101e-07
   1082   1116   2   0.50000    -0.1200000    0.0600000   2.494471e-04  1.671101e-07
   1113   1085   2   0.50000     0.0600000   -0.1200000   2.494471e-04  1.671101e-07
   1113   1115   2   0.50000     0.0600000    0.0600000   6.128906e-05  1.496315e-08
   1113   1116   2   0.50000     0.0600000    0.0600000   6.128906e-05  1.496315e-08
   1114   1085   2   0.50000     0.0600000   -0.1200000   2.494471e-04  1.671101e-07
   1114   1115   2   0.50000     0.0600000    0.0600000   6.128906e-05  1.496315e-08
   1114   1116   2   0.50000     0.0600000    0.0600000   6.128906e-05  1.496315e-08
   1083   1086   2   0.50000    -0.1200000    0.0600000   1.015252e-03  1.866303e-06
   1083   1117   2   0.50000    -0.1200000    0.0600000   2.494471e-04  1.671101e-07
   1083   1118   2   0.50000    -0.1200000    0.0600000   2.494471e-04  1.671101e-07
   1115   1086   2   0.50000     0.0600000    0.0600000   2.494471e-04  1.671101e-07
   1115   1117   2   0.50000     0.0600000    0.0600000   6.128906e-05  1.496315e-08
   1115   1118   2   0.50000     0.0600000    0.0600000   6.128906e-05  1.496315e-08
   1116   1086   2   0.50000     0.0600000    0.0600000   2.494471e-04  1.671101e-07
   1116   1117   2   0.50000     0.0600000    0.0600000   6.128906e-05  1.496315e-08
   1116   1118   2   0.50000     0.0600000    0.0600000   6.128906e-05  1.496315e-08
   1084   1087   2   0.50000    -0.1200000   -0.9000000   1.365727e-03  2.104311e-06
   1084   1119   2   0.50000    -0.1200000    0.0600000   1.763857e-04  1.181647e-07
   1084   1120   2   0.50000    -0.1200000    0.0600000   1.763857e-04  1.181647e-07
   1117   1087   2   0.50000     0.0600000   -0.9000000   3.355588e-04  1.884215e-07
   1117   1119   2   0.50000     0.0600000    0.0600000   4.333791e-05  1.058054e-08
   1117   1120   2   0.50000     0.0600000    0.0600000   4.333791e-05  1.058054e-08
   1118   1087   2   0.50000     0.0600000   -0.9000000   3.355588e-04  1.884215e-07
   1118   1119   2   0.50000     0.0600000    0.0600000   4.333791e-05  1.058054e-08
   1118   1120   2   0.50000     0.0600000    0.0600000   4.333791e-05  1.058054e-08
   1085   1121   2   0.50000    -0.1200000    0.3600000   1.995577e-06  1.069504e-11
   1085   1122   2   0.50000    -0.1200000    0.3600000   1.995577e-06  1.069504e-11
   1119   1121   2   0.50000     0.0600000    0.3600000   3.467033e-07  6.771549e-13
   1119   1122   2   0.50000     0.0600000    0.3600000   3.467033e-07  6.771549e-13
   1120   1121   2   0.50000     0.0600000    0.3600000   3.467033e-07  6.771549e-13
   1120   1122   2   0.50000     0.0600000    0.3600000   3.467033e-07  6.771549e-13

[ angles ]
; ai  aj  ak
      2      1      3   1    120.4000    669.4400
      2      1     57   1    123.0000    292.8800
      3      1     57   1    115.0000    292.8800
      1      3      4   1    111.1000    527.1840
      1      3     23   1    109.5000    292.8800
      1      3     24   1    109.5000    292.8800
      4      3     23   1    110.7000    313.8000
      4      3     24   1    110.7000    313.8000
     23      3     24   1    107.8000    276.1440
      3      4      5   1    112.7000    488.2728
      3      4     25   1    110.7000    313.8000
      3      4     26   1    110.7000    313.8000
      5      4     25   1    110.7000    313.8000
      5      4     26   1    110.7000    313.8000
     25      4     26   1    107.8000    276.1440
      4      5      6   1    112.7000    488.2728
      4      5     27   1    110.7000    313.8000
      4      5     28   1    110.7000    313.8000
      6      5     27   1    110.7000    313.8000
      6      5     28   1    110.7000    313.8000
     27      5     28   1    107.8000    276.1440
      5      6      7   1    112.7000    488.2728
      5      6     29   1    110.7000    313.8000
      5      6     30   1    110.7000    313.8000
      7      6     29   1    110.7000    313.8000
      7      6     30   1    110.7000    313.8000
     29      6     30   1    107.8000    276.1440
      6      7      8   1    112.7000    488.2728
      6      7     31   1    110.7000    313.8000
      6      7     32   1    110.7000    313.8000
      8      7     31   1    110.7000    313.8000
      8      7     32   1    110.7000    313.8000
     31      7     32   1    107.8000    276.1440
      7      8      9   1    112.7000    488.2728
      7      8     33   1    110.7000    313.8000
      7      8     34   1    110.7000    313.8000
      9      8     33   1    110.7000    313.8000
      9      8     34   1    110.7000    313.8000
     33      8     34   1    107.8000    276.1440
      8      9     10   1    112.7000    488.2728
      8      9     35   1    110.7000    313.8000
      8      9     36   1    110.7000    313.8000
     10      9     35   1    110.7000    313.8000
     10      9     36   1    110.7000    313.8000
     35      9     36   1    107.8000    276.1440
      9     10     11   1    112.7000    488.2728
      9     10     37   1    110.7000    313.8000
      9     10     38   1    110.7000    313.8000
     11     10     37   1    110.7000    313.8000
     11     10     38   1    110.7000    313.8000
     37     10     38   1    107.8000    276.1440
     10     11     12   1    112.7000    488.2728
     10     11     39   1    110.7000    313.8000
     10     11     40   1    110.7000    313.8000
     12     11     39   1    110.7000    313.8000
     12     11     40   1    110.7000    313.8000
     39     11     40   1    107.8000    276.1440
     11     12     13   1    111.1000    527.1840
     11     12     41   1    110.7000    313.8000
     11     12     42   1    110.7000    313.8000
     13     12     41   1    109.5000    292.8800
     13     12     42   1    109.5000    292.8800
     41     12     42   1    107.8000    276.1440
     12     13     14   1    120.4000    669.4400
     12     13     15   1    116.6000    585.7600
     14     13     15   1    122.9000    669.4400
     13     15     16   1    121.9000    418.4000
     13     15     43   1    119.8000    292.8800
     16     15     43   1    118.4000    317.9840
     15     16     17   1    110.7230    585.7600
     15     16     44   1    109.5000    292.8800
     15     16     45   1    109.5000    292.8800
     17     16     44   1    110.7000    313.8000
     17     16     45   1    110.7000    313.8000
     44     16     45   1    107.8000    276.1440
     16     17     18   1    112.7000    488.2728
     16     17     46   1    110.7000    313.8000
     16     17     47   1    110.7000    313.8000
     18     17     46   1    110.7000    313.8000
     18     17     47   1    110.7000    313.8000
     46     17     47   1    107.8000    276.1440
     17     18     19   1    112.7000    488.2728
     17     18     48   1    110.7000    313.8000
     17     18     49   1    110.7000    313.8000
     19     18     48   1    110.7000    313.8000
     19     18     49   1    110.7000    313.8000
     48     18     49   1    107.8000    276.1440
     18     19     20   1    112.7000    488.2728
     18     19     50   1    110.7000    313.8000
     18     19     51   1    110.7000    313.8000
     20     19     50   1    110.7000    313.8000
     20     19     51   1    110.7000    313.8000
     50     19     51   1    107.8000    276.1440
     19     20     21   1    112.7000    488.2728
     19     20     52   1    110.7000    313.8000
     19     20     53   1    110.7000    313.8000
     21     20     52   1    110.7000    313.8000
     21     20     53   1    110.7000    313.8000
     52     20     53   1    107.8000    276.1440
     20     21     22   1    110.7230    585.7600
     20     21     54   1    110.7000    313.8000
     20     21     55   1    110.7000    313.8000
     22     21     54   1    109.5000    292.8800
     22     21     55   1    109.5000    292.8800
     54     21     55   1    107.8000    276.1440
     21     22     56   1    118.4000    317.9840
     21     22     58   1    121.9000    418.4000
     56     22     58   1    119.8000    292.8800
     22     58     59   1    122.9000    669.4400
     22     58     60   1    116.6000    585.7600
     59     58     60   1    120.4000    669.4400
     58     60     61   1    111.1000    527.1840
     58     60     80   1    109.5000    292.8800
     58     60     81   1    109.5000    292.8800
     61     60     80   1    110.7000    313.8000
     61     60     81   1    110.7000    313.8000
     80     60     81   1    107.8000    276.1440
     60     61     62   1    112.7000    488.2728
     60     61     82   1    110.7000    313.8000
     60     61     83   1    110.7000    313.8000
     62     61     82   1    110.7000    313.8000
     62     61     83   1    110.7000    313.8000
     82     61     83   1    107.8000    276.1440
     61     62     63   1    112.7000    488.2728
     61     62     84   1    110.7000    313.8000
     61     62     85   1    110.7000    313.8000
     63     62     84   1    110.7000    313.8000
     63     62     85   1    110.7000    313.8000
     84     62     85   1    107.8000    276.1440
     62     63     64   1    112.7000    488.2728
     62     63     86   1    110.7000    313.8000
     62     63     87   1    110.7000    313.8000
     64     63     86   1    110.7000    313.8000
     64     63     87   1    110.7000    313.8000
     86     63     87   1    107.8000    276.1440
     63     64     65   1    112.7000    488.2728
     63     64     88   1    110.7000    313.8000
     63     64     89   1    110.7000    313.8000
     65     64     88   1    110.7000    313.8000
     65     64     89   1    110.7000    313.8000
     88     64     89   1    107.8000    276.1440
     64     65     66   1    112.7000    488.2728
     64     65     90   1    110.7000    313.8000
     64     65     91   1    110.7000    313.8000
     66     65     90   1    110.7000    313.8000
     66     65     91   1    110.7000    313.8000
     90     65     91   1    107.8000    276.1440
     65     66     67   1    112.7000    488.2728
     65     66     92   1    110.7000    313.8000
     65     66     93   1    110.7000    313.8000
     67     66     92   1    110.7000    313.8000
     67     66     93   1    110.7000    313.8000
     92     66     93   1    107.8000    276.1440
     66     67     68   1    112.7000    488.2728
     66     67     94   1    110.7000    313.8000
     66     67     95   1    110.7000    313.8000
     68     67     94   1    110.7000    313.8000
     68     67     95   1    110.7000    313.8000
     94     67     95   1    107.8000    276.1440
     67     68     69   1    112.7000    488.2728
     67     68     96   1    110.7000    313.8000
     67     68     97   1    110.7000    313.8000
     69     68     96   1    110.7000    313.8000
     69     68     97   1    110.7000    313.8000
     96     68     97   1    107.8000    276.1440
     68     69     70   1    111.1000    527.1840
     68     69     98   1    110.7000    313.8000
     68     69     99   1    110.7000    313.8000
     70     69     98   1    109.5000    292.8800
     70     69     99   1    109.5000    292.8800
     98     69     99   1    107.8000    276.1440
     69     70     71   1    120.4000    669.4400
     69     70     72   1    116.6000    585.7600
     71     70     72   1    122.9000    669.4400
     70     72     73   1    121.9000    418.4000
     70     72    100   1    119.8000    292.8800
     73     72    100   1    118.4000    317.9840
     72     73     74   1    110.7230    585.7600
     72     73    101   1    109.5000    292.8800
     72     73    102   1    109.5000    292.8800
     74     73    101   1    110.7000    313.8000
     74     73    102   1    110.7000    313.8000
    101     73    102   1    107.8000    276.1440
     73     74     75   1    112.7000    488.2728
     73     74    103   1    110.7000    313.8000
     73     74    104   1    110.7000    313.8000
     75     74    103   1    110.7000    313.8000
     75     74    104   1    110.7000    313.8000
    103     74    104   1    107.8000    276.1440
     74     75     76   1    112.7000    488.2728
     74     75    105   1    110.7000    313.8000
     74     75    106   1    110.7000    313.8000
     76     75    105   1    110.7000    313.8000
     76     75    106   1    110.7000    313.8000
    105     75    106   1    107.8000    276.1440
     75     76     77   1    112.7000    488.2728
     75     76    107   1    110.7000    313.8000
     75     76    108   1    110.7000    313.8000
     77     76    107   1    110.7000    313.8000
     77     76    108   1    110.7000    313.8000
    107     76    108   1    107.8000    276.1440
     76     77     78   1    112.7000    488.2728
     76     77    109   1    110.7000    313.8000
     76     77    110   1    110.7000    313.8000
     78     77    109   1    110.7000    313.8000
     78     77    110   1    110.7000    313.8000
    109     77    110   1    107.8000    276.1440
     77     78     79   1    110.7230    585.7600
     77     78    111   1    110.7000    313.8000
     77     78    112   1    110.7000    313.8000
     79     78    111   1    109.5000    292.8800
     79     78    112   1    109.5000    292.8800
    111     78    112   1    107.8000    276.1440
     78     79    113   1    118.4000    317.9840
     78     79    114   1    121.9000    418.4000
    113     79    114   1    119.8000    292.8800
     79    114    115   1    122.9000    669.4400
     79    114    116   1    116.6000    585.7600
    115    114    116   1    120.4000    669.4400
    114    116    117   1    111.1000    527.1840
    114    116    136   1    109.5000    292.8800
    114    116    137   1    109.5000    292.8800
    117    116    136   1    110.7000    313.8000
    117    116    137   1    110.7000    313.8000
    136    116    137   1    107.8000    276.1440
    116    117    118   1    112.7000    488.2728
    116    117    138   1    110.7000    313.8000
    116    117    139   1    110.7000    313.8000
    118    117    138   1    110.7000    313.8000
    118    117    139   1    110.7000    313.8000
    138    117    139   1    107.8000    276.1440
    117    118    119   1    112.7000    488.2728
    117    118    140   1    110.7000    313.8000
    117    118    141   1    110.7000    313.8000
    119    118    140   1    110.7000    313.8000
    119    118    141   1    110.7000    313.8000
    140    118    141   1    107.8000    276.1440
    118    119    120   1    112.7000    488.2728
    118    119    142   1    110.7000    313.8000
    118    119    143   1    110.7000    313.8000
    120    119    142   1    110.7000    313.8000
    120    119    143   1    110.7000    313.8000
    142    119    143   1    107.8000    276.1440
    119    120    121   1    112.7000    488.2728
    119    120    144   1    110.7000    313.8000
    119    120    145   1    110.7000    313.8000
    121    120    144   1    110.7000    313.8000
    121    120    145   1    110.7000    313.8000
    144    120    145   1    107.8000    276.1440
    120    121    122   1    112.7000    488.2728
    120    121    146   1    110.7000    313.8000
    120    121    147   1    110.7000    313.8000
    122    121    146   1    110.7000    313.8000
    122    121    147   1    110.7000    313.8000
    146    121    147   1    107.8000    276.1440
    121    122    123   1    112.7000    488.2728
    121    122    148   1    110.7000    313.8000
    121    122    149   1    110.7000    313.8000
    123    122    148   1    110.7000    313.8000
    123    122    149   1    110.7000    313.8000
    148    122    149   1    107.8000    276.1440
    122    123    124   1    112.7000    488.2728
    122    123    150   1    110.7000    313.8000
    122    123    151   1    110.7000    313.8000
    124    123    150   1    110.7000    313.8000
    124    123    151   1    110.7000    313.8000
    150    123    151   1    107.8000    276.1440
    123    124    125   1    112.7000    488.2728
    123    124    152   1    110.7000    313.8000
    123    124    153   1    110.7000    313.8000
    125    124    152   1    110.7000    313.8000
    125    124    153   1    110.7000    313.8000
    152    124    153   1    107.8000    276.1440
    124    125    126   1    111.1000    527.1840
    124    125    154   1    110.7000    313.8000
    124    125    155   1    110.7000    313.8000
    126    125    154   1    109.5000    292.8800
    126    125    155   1    109.5000    292.8800
    154    125    155   1    107.8000    276.1440
    125    126    127   1    120.4000    669.4400
    125    126    128   1    116.6000    585.7600
    127    126    128   1    122.9000    669.4400
    126    128    129   1    121.9000    418.4000
    126    128    156   1    119.8000    292.8800
    129    128    156   1    118.4000    317.9840
    128    129    130   1    110.7230    585.7600
    128    129    157   1    109.5000    292.8800
    128    129    158   1    109.5000    292.8800
    130    129    157   1    110.7000    313.8000
    130    129    158   1    110.7000    313.8000
    157    129    158   1    107.8000    276.1440
    129    130    131   1    112.7000    488.2728
    129    130    159   1    110.7000    313.8000
    129    130    160   1    110.7000    313.8000
    131    130    159   1    110.7000    313.8000
    131    130    160   1    110.7000    313.8000
    159    130    160   1    107.8000    276.1440
    130    131    132   1    112.7000    488.2728
    130    131    161   1    110.7000    313.8000
    130    131    162   1    110.7000    313.8000
    132    131    161   1    110.7000    313.8000
    132    131    162   1    110.7000    313.8000
    161    131    162   1    107.8000    276.1440
    131    132    133   1    112.7000    488.2728
    131    132    163   1    110.7000    313.8000
    131    132    164   1    110.7000    313.8000
    133    132    163   1    110.7000    313.8000
    133    132    164   1    110.7000    313.8000
    163    132    164   1    107.8000    276.1440
    132    133    134   1    112.7000    488.2728
    132    133    165   1    110.7000    313.8000
    132    133    166   1    110.7000    313.8000
    134    133    165   1    110.7000    313.8000
    134    133    166   1    110.7000    313.8000
    165    133    166   1    107.8000    276.1440
    133    134    135   1    110.7230    585.7600
    133    134    167   1    110.7000    313.8000
    133    134    168   1    110.7000    313.8000
    135    134    167   1    109.5000    292.8800
    135    134    168   1    109.5000    292.8800
    167    134    168   1    107.8000    276.1440
    134    135    169   1    118.4000    317.9840
    134    135    170   1    121.9000    418.4000
    169    135    170   1    119.8000    292.8800
    135    170    171   1    122.9000    669.4400
    135    170    172   1    116.6000    585.7600
    171    170    172   1    120.4000    669.4400
    170    172    173   1    111.1000    527.1840
    170    172    192   1    109.5000    292.8800
    170    172    193   1    109.5000    292.8800
    173    172    192   1    110.7000    313.8000
    173    172    193   1    110.7000    313.8000
    192    172    193   1    107.8000    276.1440
    172    173    174   1    112.7000    488.2728
    172    173    194   1    110.7000    313.8000
    172    173    195   1    110.7000    313.8000
    174    173    194   1    110.7000    313.8000
    174    173    195   1    110.7000    313.8000
    194    173    195   1    107.8000    276.1440
    173    174    175   1    112.7000    488.2728
    173    174    196   1    110.7000    313.8000
    173    174    197   1    110.7000    313.8000
    175    174    196   1    110.7000    313.8000
    175    174    197   1    110.7000    313.8000
    196    174    197   1    107.8000    276.1440
    174    175    176   1    112.7000    488.2728
    174    175    198   1    110.7000    313.8000
    174    175    199   1    110.7000    313.8000
    176    175    198   1    110.7000    313.8000
    176    175    199   1    110.7000    313.8000
    198    175    199   1    107.8000    276.1440
    175    176    177   1    112.7000    488.2728
    175    176    200   1    110.7000    313.8000
    175    176    201   1    110.7000    313.8000
    177    176    200   1    110.7000    313.8000
    177    176    201   1    110.7000    313.8000
    200    176    201   1    107.8000    276.1440
    176    177    178   1    112.7000    488.2728
    176    177    202   1    110.7000    313.8000
    176    177    203   1    110.7000    313.8000
    178    177    202   1    110.7000    313.8000
    178    177    203   1    110.7000    313.8000
    202    177    203   1    107.8000    276.1440
    177    178    179   1    112.7000    488.2728
    177    178    204   1    110.7000    313.8000
    177    178    205   1    110.7000    313.8000
    179    178    204   1    110.7000    313.8000
    179    178    205   1    110.7000    313.8000
    204    178    205   1    107.8000    276.1440
    178    179    180   1    112.7000    488.2728
    178    179    206   1    110.7000    313.8000
    178    179    207   1    110.7000    313.8000
    180    179    206   1    110.7000    313.8000
    180    179    207   1    110.7000    313.8000
    206    179    207   1    107.8000    276.1440
    179    180    181   1    112.7000    488.2728
    179    180    208   1    110.7000    313.8000
    179    180    209   1    110.7000    313.8000
    181    180    208   1    110.7000    313.8000
    181    180    209   1    110.7000    313.8000
    208    180    209   1    107.8000    276.1440
    180    181    182   1    111.1000    527.1840
    180    181    210   1    110.7000    313.8000
    180    181    211   1    110.7000    313.8000
    182    181    210   1    109.5000    292.8800
    182    181    211   1    109.5000    292.8800
    210    181    211   1    107.8000    276.1440
    181    182    183   1    120.4000    669.4400
    181    182    184   1    116.6000    585.7600
    183    182    184   1    122.9000    669.4400
    182    184    185   1    121.9000    418.4000
    182    184    212   1    119.8000    292.8800
    185    184    212   1    118.4000    317.9840
    184    185    186   1    110.7230    585.7600
    184    185    213   1    109.5000    292.8800
    184    185    214   1    109.5000    292.8800
    186    185    213   1    110.7000    313.8000
    186    185    214   1    110.7000    313.8000
    213    185    214   1    107.8000    276.1440
    185    186    187   1    112.7000    488.2728
    185    186    215   1    110.7000    313.8000
    185    186    216   1    110.7000    313.8000
    187    186    215   1    110.7000    313.8000
    187    186    216   1    110.7000    313.8000
    215    186    216   1    107.8000    276.1440
    186    187    188   1    112.7000    488.2728
    186    187    217   1    110.7000    313.8000
    186    187    218   1    110.7000    313.8000
    188    187    217   1    110.7000    313.8000
    188    187    218   1    110.7000    313.8000
    217    187    218   1    107.8000    276.1440
    187    188    189   1    112.7000    488.2728
    187    188    219   1    110.7000    313.8000
    187    188    220   1    110.7000    313.8000
    189    188    219   1    110.7000    313.8000
    189    188    220   1    110.7000    313.8000
    219    188    220   1    107.8000    276.1440
    188    189    190   1    112.7000    488.2728
    188    189    221   1    110.7000    313.8000
    188    189    222   1    110.7000    313.8000
    190    189    221   1    110.7000    313.8000
    190    189    222   1    110.7000    313.8000
    221    189    222   1    107.8000    276.1440
    189    190    191   1    110.7230    585.7600
    189    190    223   1    110.7000    313.8000
    189    190    224   1    110.7000    313.8000
    191    190    223   1    109.5000    292.8800
    191    190    224   1    109.5000    292.8800
    223    190    224   1    107.8000    276.1440
    190    191    225   1    118.4000    317.9840
    190    191    226   1    121.9000    418.4000
    225    191    226   1    119.8000    292.8800
    191    226    227   1    122.9000    669.4400
    191    226    228   1    116.6000    585.7600
    227    226    228   1    120.4000    669.4400
    226    228    229   1    111.1000    527.1840
    226    228    248   1    109.5000    292.8800
    226    228    249   1    109.5000    292.8800
    229    228    248   1    110.7000    313.8000
    229    228    249   1    110.7000    313.8000
    248    228    249   1    107.8000    276.1440
    228    229    230   1    112.7000    488.2728
    228    229    250   1    110.7000    313.8000
    228    229    251   1    110.7000    313.8000
    230    229    250   1    110.7000    313.8000
    230    229    251   1    110.7000    313.8000
    250    229    251   1    107.8000    276.1440
    229    230    231   1    112.7000    488.2728
    229    230    252   1    110.7000    313.8000
    229    230    253   1    110.7000    313.8000
    231    230    252   1    110.7000    313.8000
    231    230    253   1    110.7000    313.8000
    252    230    253   1    107.8000    276.1440
    230    231    232   1    112.7000    488.2728
    230    231    254   1    110.7000    313.8000
    230    231    255   1    110.7000    313.8000
    232    231    254   1    110.7000    313.8000
    232    231    255   1    110.7000    313.8000
    254    231    255   1    107.8000    276.1440
    231    232    233   1    112.7000    488.2728
    231    232    256   1    110.7000    313.8000
    231    232    257   1    110.7000    313.8000
    233    232    256   1    110.7000    313.8000
    233    232    257   1    110.7000    313.8000
    256    232    257   1    107.8000    276.1440
    232    233    234   1    112.7000    488.2728
    232    233    258   1    110.7000    313.8000
    232    233    259   1    110.7000    313.8000
    234    233    258   1    110.7000    313.8000
    234    233    259   1    110.7000    313.8000
    258    233    259   1    107.8000    276.1440
    233    234    235   1    112.7000    488.2728
    233    234    260   1    110.7000    313.8000
    233    234    261   1    110.7000    313.8000
    235    234    260   1    110.7000    313.8000
    235    234    261   1    110.7000    313.8000
    260    234    261   1    107.8000    276.1440
    234    235    236   1    112.7000    488.2728
    234    235    262   1    110.7000    313.8000
    234    235    263   1    110.7000    313.8000
    236    235    262   1    110.7000    313.8000
    236    235    263   1    110.7000    313.8000
    262    235    263   1    107.8000    276.1440
    235    236    237   1    112.7000    488.2728
    235    236    264   1    110.7000    313.8000
    235    236    265   1    110.7000    313.8000
    237    236    264   1    110.7000    313.8000
    237    236    265   1    110.7000    313.8000
    264    236    265   1    107.8000    276.1440
    236    237    238   1    111.1000    527.1840
    236    237    266   1    110.7000    313.8000
    236    237    267   1    110.7000    313.8000
    238    237    266   1    109.5000    292.8800
    238    237    267   1    109.5000    292.8800
    266    237    267   1    107.8000    276.1440
    237    238    239   1    120.4000    669.4400
    237    238    240   1    116.6000    585.7600
    239    238    240   1    122.9000    669.4400
    238    240    241   1    121.9000    418.4000
    238    240    268   1    119.8000    292.8800
    241    240    268   1    118.4000    317.9840
    240    241    242   1    110.7230    585.7600
    240    241    269   1    109.5000    292.8800
    240    241    270   1    109.5000    292.8800
    242    241    269   1    110.7000    313.8000
    242    241    270   1    110.7000    313.8000
    269    241    270   1    107.8000    276.1440
    241    242    243   1    112.7000    488.2728
    241    242    271   1    110.7000    313.8000
    241    242    272   1    110.7000    313.8000
    243    242    271   1    110.7000    313.8000
    243    242    272   1    110.7000    313.8000
    271    242    272   1    107.8000    276.1440
    242    243    244   1    112.7000    488.2728
    242    243    273   1    110.7000    313.8000
    242    243    274   1    110.7000    313.8000
    244    243    273   1    110.7000    313.8000
    244    243    274   1    110.7000    313.8000
    273    243    274   1    107.8000    276.1440
    243    244    245   1    112.7000    488.2728
    243    244    275   1    110.7000    313.8000
    243    244    276   1    110.7000    313.8000
    245    244    275   1    110.7000    313.8000
    245    244    276   1    110.7000    313.8000
    275    244    276   1    107.8000    276.1440
    244    245    246   1    112.7000    488.2728
    244    245    277   1    110.7000    313.8000
    244    245    278   1    110.7000    313.8000
    246    245    277   1    110.7000    313.8000
    246    245    278   1    110.7000    313.8000
    277    245    278   1    107.8000    276.1440
    245    246    247   1    110.7230    585.7600
    245    246    279   1    110.7000    313.8000
    245    246    280   1    110.7000    313.8000
    247    246    279   1    109.5000    292.8800
    247    246    280   1    109.5000    292.8800
    279    246    280   1    107.8000    276.1440
    246    247    281   1    118.4000    317.9840
    246    247    282   1    121.9000    418.4000
    281    247    282   1    119.8000    292.8800
    247    282    283   1    122.9000    669.4400
    247    282    284   1    116.6000    585.7600
    283    282    284   1    120.4000    669.4400
    282    284    285   1    111.1000    527.1840
    282    284    304   1    109.5000    292.8800
    282    284    305   1    109.5000    292.8800
    285    284    304   1    110.7000    313.8000
    285    284    305   1    110.7000    313.8000
    304    284    305   1    107.8000    276.1440
    284    285    286   1    112.7000    488.2728
    284    285    306   1    110.7000    313.8000
    284    285    307   1    110.7000    313.8000
    286    285    306   1    110.7000    313.8000
    286    285    307   1    110.7000    313.8000
    306    285    307   1    107.8000    276.1440
    285    286    287   1    112.7000    488.2728
    285    286    308   1    110.7000    313.8000
    285    286    309   1    110.7000    313.8000
    287    286    308   1    110.7000    313.8000
    287    286    309   1    110.7000    313.8000
    308    286    309   1    107.8000    276.1440
    286    287    288   1    112.7000    488.2728
    286    287    310   1    110.7000    313.8000
    286    287    311   1    110.7000    313.8000
    288    287    310   1    110.7000    313.8000
    288    287    311   1    110.7000    313.8000
    310    287    311   1    107.8000    276.1440
    287    288    289   1    112.7000    488.2728
    287    288    312   1    110.7000    313.8000
    287    288    313   1    110.7000    313.8000
    289    288    312   1    110.7000    313.8000
    289    288    313   1    110.7000    313.8000
    312    288    313   1    107.8000    276.1440
    288    289    290   1    112.7000    488.2728
    288    289    314   1    110.7000    313.8000
    288    289    315   1    110.7000    313.8000
    290    289    314   1    110.7000    313.8000
    290    289    315   1    110.7000    313.8000
    314    289    315   1    107.8000    276.1440
    289    290    291   1    112.7000    488.2728
    289    290    316   1    110.7000    313.8000
    289    290    317   1    110.7000    313.8000
    291    290    316   1    110.7000    313.8000
    291    290    317   1    110.7000    313.8000
    316    290    317   1    107.8000    276.1440
    290    291    292   1    112.7000    488.2728
    290    291    318   1    110.7000    313.8000
    290    291    319   1    110.7000    313.8000
    292    291    318   1    110.7000    313.8000
    292    291    319   1    110.7000    313.8000
    318    291    319   1    107.8000    276.1440
    291    292    293   1    112.7000    488.2728
    291    292    320   1    110.7000    313.8000
    291    292    321   1    110.7000    313.8000
    293    292    320   1    110.7000    313.8000
    293    292    321   1    110.7000    313.8000
    320    292    321   1    107.8000    276.1440
    292    293    294   1    111.1000    527.1840
    292    293    322   1    110.7000    313.8000
    292    293    323   1    110.7000    313.8000
    294    293    322   1    109.5000    292.8800
    294    293    323   1    109.5000    292.8800
    322    293    323   1    107.8000    276.1440
    293    294    295   1    120.4000    669.4400
    293    294    296   1    116.6000    585.7600
    295    294    296   1    122.9000    669.4400
    294    296    297   1    121.9000    418.4000
    294    296    324   1    119.8000    292.8800
    297    296    324   1    118.4000    317.9840
    296    297    298   1    110.7230    585.7600
    296    297    325   1    109.5000    292.8800
    296    297    326   1    109.5000    292.8800
    298    297    325   1    110.7000    313.8000
    298    297    326   1    110.7000    313.8000
    325    297    326   1    107.8000    276.1440
    297    298    299   1    112.7000    488.2728
    297    298    327   1    110.7000    313.8000
    297    298    328   1    110.7000    313.8000
    299    298    327   1    110.7000    313.8000
    299    298    328   1    110.7000    313.8000
    327    298    328   1    107.8000    276.1440
    298    299    300   1    112.7000    488.2728
    298    299    329   1    110.7000    313.8000
    298    299    330   1    110.7000    313.8000
    300    299    329   1    110.7000    313.8000
    300    299    330   1    110.7000    313.8000
    329    299    330   1    107.8000    276.1440
    299    300    301   1    112.7000    488.2728
    299    300    331   1    110.7000    313.8000
    299    300    332   1    110.7000    313.8000
    301    300    331   1    110.7000    313.8000
    301    300    332   1    110.7000    313.8000
    331    300    332   1    107.8000    276.1440
    300    301    302   1    112.7000    488.2728
    300    301    333   1    110.7000    313.8000
    300    301    334   1    110.7000    313.8000
    302    301    333   1    110.7000    313.8000
    302    301    334   1    110.7000    313.8000
    333    301    334   1    107.8000    276.1440
    301    302    303   1    110.7230    585.7600
    301    302    335   1    110.7000    313.8000
    301    302    336   1    110.7000    313.8000
    303    302    335   1    109.5000    292.8800
    303    302    336   1    109.5000    292.8800
    335    302    336   1    107.8000    276.1440
    302    303    337   1    118.4000    317.9840
    302    303    338   1    121.9000    418.4000
    337    303    338   1    119.8000    292.8800
    303    338    339   1    122.9000    669.4400
    303    338    340   1    116.6000    585.7600
    339    338    340   1    120.4000    669.4400
    338    340    341   1    111.1000    527.1840
    338    340    360   1    109.5000    292.8800
    338    340    361   1    109.5000    292.8800
    341    340    360   1    110.7000    313.8000
    341    340    361   1    110.7000    313.8000
    360    340    361   1    107.8000    276.1440
    340    341    342   1    112.7000    488.2728
    340    341    362   1    110.7000    313.8000
    340    341    363   1    110.7000    313.8000
    342    341    362   1    110.7000    313.8000
    342    341    363   1    110.7000    313.8000
    362    341    363   1    107.8000    276.1440
    341    342    343   1    112.7000    488.2728
    341    342    364   1    110.7000    313.8000
    341    342    365   1    110.7000    313.8000
    343    342    364   1    110.7000    313.8000
    343    342    365   1    110.7000    313.8000
    364    342    365   1    107.8000    276.1440
    342    343    344   1    112.7000    488.2728
    342    343    366   1    110.7000    313.8000
    342    343    367   1    110.7000    313.8000
    344    343    366   1    110.7000    313.8000
    344    343    367   1    110.7000    313.8000
    366    343    367   1    107.8000    276.1440
    343    344    345   1    112.7000    488.2728
    343    344    368   1    110.7000    313.8000
    343    344    369   1    110.7000    313.8000
    345    344    368   1    110.7000    313.8000
    345    344    369   1    110.7000    313.8000
    368    344    369   1    107.8000    276.1440
    344    345    346   1    112.7000    488.2728
    344    345    370   1    110.7000    313.8000
    344    345    371   1    110.7000    313.8000
    346    345    370   1    110.7000    313.8000
    346    345    371   1    110.7000    313.8000
    370    345    371   1    107.8000    276.1440
    345    346    347   1    112.7000    488.2728
    345    346    372   1    110.7000    313.8000
    345    346    373   1    110.7000    313.8000
    347    346    372   1    110.7000    313.8000
    347    346    373   1    110.7000    313.8000
    372    346    373   1    107.8000    276.1440
    346    347    348   1    112.7000    488.2728
    346    347    374   1    110.7000    313.8000
    346    347    375   1    110.7000    313.8000
    348    347    374   1    110.7000    313.8000
    348    347    375   1    110.7000    313.8000
    374    347    375   1    107.8000    276.1440
    347    348    349   1    112.7000    488.2728
    347    348    376   1    110.7000    313.8000
    347    348    377   1    110.7000    313.8000
    349    348    376   1    110.7000    313.8000
    349    348    377   1    110.7000    313.8000
    376    348    377   1    107.8000    276.1440
    348    349    350   1    111.1000    527.1840
    348    349    378   1    110.7000    313.8000
    348    349    379   1    110.7000    313.8000
    350    349    378   1    109.5000    292.8800
    350    349    379   1    109.5000    292.8800
    378    349    379   1    107.8000    276.1440
    349    350    351   1    120.4000    669.4400
    349    350    352   1    116.6000    585.7600
    351    350    352   1    122.9000    669.4400
    350    352    353   1    121.9000    418.4000
    350    352    380   1    119.8000    292.8800
    353    352    380   1    118.4000    317.9840
    352    353    354   1    110.7230    585.7600
    352    353    381   1    109.5000    292.8800
    352    353    382   1    109.5000    292.8800
    354    353    381   1    110.7000    313.8000
    354    353    382   1    110.7000    313.8000
    381    353    382   1    107.8000    276.1440
    353    354    355   1    112.7000    488.2728
    353    354    383   1    110.7000    313.8000
    353    354    384   1    110.7000    313.8000
    355    354    383   1    110.7000    313.8000
    355    354    384   1    110.7000    313.8000
    383    354    384   1    107.8000    276.1440
    354    355    356   1    112.7000    488.2728
    354    355    385   1    110.7000    313.8000
    354    355    386   1    110.7000    313.8000
    356    355    385   1    110.7000    313.8000
    356    355    386   1    110.7000    313.8000
    385    355    386   1    107.8000    276.1440
    355    356    357   1    112.7000    488.2728
    355    356    387   1    110.7000    313.8000
    355    356    388   1    110.7000    313.8000
    357    356    387   1    110.7000    313.8000
    357    356    388   1    110.7000    313.8000
    387    356    388   1    107.8000    276.1440
    356    357    358   1    112.7000    488.2728
    356    357    389   1    110.7000    313.8000
    356    357    390   1    110.7000    313.8000
    358    357    389   1    110.7000    313.8000
    358    357    390   1    110.7000    313.8000
    389    357    390   1    107.8000    276.1440
    357    358    359   1    110.7230    585.7600
    357    358    391   1    110.7000    313.8000
    357    358    392   1    110.7000    313.8000
    359    358    391   1    109.5000    292.8800
    359    358    392   1    109.5000    292.8800
    391    358    392   1    107.8000    276.1440
    358    359    393   1    118.4000    317.9840
    358    359    394   1    121.9000    418.4000
    393    359    394   1    119.8000    292.8800
    359    394    395   1    122.9000    669.4400
    359    394    396   1    116.6000    585.7600
    395    394    396   1    120.4000    669.4400
    394    396    397   1    111.1000    527.1840
    394    396    416   1    109.5000    292.8800
    394    396    417   1    109.5000    292.8800
    397    396    416   1    110.7000    313.8000
    397    396    417   1    110.7000    313.8000
    416    396    417   1    107.8000    276.1440
    396    397    398   1    112.7000    488.2728
    396    397    418   1    110.7000    313.8000
    396    397    419   1    110.7000    313.8000
    398    397    418   1    110.7000    313.8000
    398    397    419   1    110.7000    313.8000
    418    397    419   1    107.8000    276.1440
    397    398    399   1    112.7000    488.2728
    397    398    420   1    110.7000    313.8000
    397    398    421   1    110.7000    313.8000
    399    398    420   1    110.7000    313.8000
    399    398    421   1    110.7000    313.8000
    420    398    421   1    107.8000    276.1440
    398    399    400   1    112.7000    488.2728
    398    399    422   1    110.7000    313.8000
    398    399    423   1    110.7000    313.8000
    400    399    422   1    110.7000    313.8000
    400    399    423   1    110.7000    313.8000
    422    399    423   1    107.8000    276.1440
    399    400    401   1    112.7000    488.2728
    399    400    424   1    110.7000    313.8000
    399    400    425   1    110.7000    313.8000
    401    400    424   1    110.7000    313.8000
    401    400    425   1    110.7000    313.8000
    424    400    425   1    107.8000    276.1440
    400    401    402   1    112.7000    488.2728
    400    401    426   1    110.7000    313.8000
    400    401    427   1    110.7000    313.8000
    402    401    426   1    110.7000    313.8000
    402    401    427   1    110.7000    313.8000
    426    401    427   1    107.8000    276.1440
    401    402    403   1    112.7000    488.2728
    401    402    428   1    110.7000    313.8000
    401    402    429   1    110.7000    313.8000
    403    402    428   1    110.7000    313.8000
    403    402    429   1    110.7000    313.8000
    428    402    429   1    107.8000    276.1440
    402    403    404   1    112.7000    488.2728
    402    403    430   1    110.7000    313.8000
    402    403    431   1    110.7000    313.8000
    404    403    430   1    110.7000    313.8000
    404    403    431   1    110.7000    313.8000
    430    403    431   1    107.8000    276.1440
    403    404    405   1    112.7000    488.2728
    403    404    432   1    110.7000    313.8000
    403    404    433   1    110.7000    313.8000
    405    404    432   1    110.7000    313.8000
    405    404    433   1    110.7000    313.8000
    432    404    433   1    107.8000    276.1440
    404    405    406   1    111.1000    527.1840
    404    405    434   1    110.7000    313.8000
    404    405    435   1    110.7000    313.8000
    406    405    434   1    109.5000    292.8800
    406    405    435   1    109.5000    292.8800
    434    405    435   1    107.8000    276.1440
    405    406    407   1    120.4000    669.4400
    405    406    408   1    116.6000    585.7600
    407    406    408   1    122.9000    669.4400
    406    408    409   1    121.9000    418.4000
    406    408    436   1    119.8000    292.8800
    409    408    436   1    118.4000    317.9840
    408    409    410   1    110.7230    585.7600
    408    409    437   1    109.5000    292.8800
    408    409    438   1    109.5000    292.8800
    410    409    437   1    110.7000    313.8000
    410    409    438   1    110.7000    313.8000
    437    409    438   1    107.8000    276.1440
    409    410    411   1    112.7000    488.2728
    409    410    439   1    110.7000    313.8000
    409    410    440   1    110.7000    313.8000
    411    410    439   1    110.7000    313.8000
    411    410    440   1    110.7000    313.8000
    439    410    440   1    107.8000    276.1440
    410    411    412   1    112.7000    488.2728
    410    411    441   1    110.7000    313.8000
    410    411    442   1    110.7000    313.8000
    412    411    441   1    110.7000    313.8000
    412    411    442   1    110.7000    313.8000
    441    411    442   1    107.8000    276.1440
    411    412    413   1    112.7000    488.2728
    411    412    443   1    110.7000    313.8000
    411    412    444   1    110.7000    313.8000
    413    412    443   1    110.7000    313.8000
    413    412    444   1    110.7000    313.8000
    443    412    444   1    107.8000    276.1440
    412    413    414   1    112.7000    488.2728
    412    413    445   1    110.7000    313.8000
    412    413    446   1    110.7000    313.8000
    414    413    445   1    110.7000    313.8000
    414    413    446   1    110.7000    313.8000
    445    413    446   1    107.8000    276.1440
    413    414    415   1    110.7230    585.7600
    413    414    447   1    110.7000    313.8000
    413    414    448   1    110.7000    313.8000
    415    414    447   1    109.5000    292.8800
    415    414    448   1    109.5000    292.8800
    447    414    448   1    107.8000    276.1440
    414    415    449   1    118.4000    317.9840
    414    415    450   1    121.9000    418.4000
    449    415    450   1    119.8000    292.8800
    415    450    451   1    122.9000    669.4400
    415    450    452   1    116.6000    585.7600
    451    450    452   1    120.4000    669.4400
    450    452    453   1    111.1000    527.1840
    450    452    472   1    109.5000    292.8800
    450    452    473   1    109.5000    292.8800
    453    452    472   1    110.7000    313.8000
    453    452    473   1    110.7000    313.8000
    472    452    473   1    107.8000    276.1440
    452    453    454   1    112.7000    488.2728
    452    453    474   1    110.7000    313.8000
    452    453    475   1    110.7000    313.8000
    454    453    474   1    110.7000    313.8000
    454    453    475   1    110.7000    313.8000
    474    453    475   1    107.8000    276.1440
    453    454    455   1    112.7000    488.2728
    453    454    476   1    110.7000    313.8000
    453    454    477   1    110.7000    313.8000
    455    454    476   1    110.7000    313.8000
    455    454    477   1    110.7000    313.8000
    476    454    477   1    107.8000    276.1440
    454    455    456   1    112.7000    488.2728
    454    455    478   1    110.7000    313.8000
    454    455    479   1    110.7000    313.8000
    456    455    478   1    110.7000    313.8000
    456    455    479   1    110.7000    313.8000
    478    455    479   1    107.8000    276.1440
    455    456    457   1    112.7000    488.2728
    455    456    480   1    110.7000    313.8000
    455    456    481   1    110.7000    313.8000
    457    456    480   1    110.7000    313.8000
    457    456    481   1    110.7000    313.8000
    480    456    481   1    107.8000    276.1440
    456    457    458   1    112.7000    488.2728
    456    457    482   1    110.7000    313.8000
    456    457    483   1    110.7000    313.8000
    458    457    482   1    110.7000    313.8000
    458    457    483   1    110.7000    313.8000
    482    457    483   1    107.8000    276.1440
    457    458    459   1    112.7000    488.2728
    457    458    484   1    110.7000    313.8000
    457    458    485   1    110.7000    313.8000
    459    458    484   1    110.7000    313.8000
    459    458    485   1    110.7000    313.8000
    484    458    485   1    107.8000    276.1440
    458    459    460   1    112.7000    488.2728
    458    459    486   1    110.7000    313.8000
    458    459    487   1    110.7000    313.8000
    460    459    486   1    110.7000    313.8000
    460    459    487   1    110.7000    313.8000
    486    459    487   1    107.8000    276.1440
    459    460    461   1    112.7000    488.2728
    459    460    488   1    110.7000    313.8000
    459    460    489   1    110.7000    313.8000
    461    460    488   1    110.7000    313.8000
    461    460    489   1    110.7000    313.8000
    488    460    489   1    107.8000    276.1440
    460    461    462   1    111.1000    527.1840
    460    461    490   1    110.7000    313.8000
    460    461    491   1    110.7000    313.8000
    462    461    490   1    109.5000    292.8800
    462    461    491   1    109.5000    292.8800
    490    461    491   1    107.8000    276.1440
    461    462    463   1    120.4000    669.4400
    461    462    464   1    116.6000    585.7600
    463    462    464   1    122.9000    669.4400
    462    464    465   1    121.9000    418.4000
    462    464    492   1    119.8000    292.8800
    465    464    492   1    118.4000    317.9840
    464    465    466   1    110.7230    585.7600
    464    465    493   1    109.5000    292.8800
    464    465    494   1    109.5000    292.8800
    466    465    493   1    110.7000    313.8000
    466    465    494   1    110.7000    313.8000
    493    465    494   1    107.8000    276.1440
    465    466    467   1    112.7000    488.2728
    465    466    495   1    110.7000    313.8000
    465    466    496   1    110.7000    313.8000
    467    466    495   1    110.7000    313.8000
    467    466    496   1    110.7000    313.8000
    495    466    496   1    107.8000    276.1440
    466    467    468   1    112.7000    488.2728
    466    467    497   1    110.7000    313.8000
    466    467    498   1    110.7000    313.8000
    468    467    497   1    110.7000    313.8000
    468    467    498   1    110.7000    313.8000
    497    467    498   1    107.8000    276.1440
    467    468    469   1    112.7000    488.2728
    467    468    499   1    110.7000    313.8000
    467    468    500   1    110.7000    313.8000
    469    468    499   1    110.7000    313.8000
    469    468    500   1    110.7000    313.8000
    499    468    500   1    107.8000    276.1440
    468    469    470   1    112.7000    488.2728
    468    469    501   1    110.7000    313.8000
    468    469    502   1    110.7000    313.8000
    470    469    501   1    110.7000    313.8000
    470    469    502   1    110.7000    313.8000
    501    469    502   1    107.8000    276.1440
    469    470    471   1    110.7230    585.7600
    469    470    503   1    110.7000    313.8000
    469    470    504   1    110.7000    313.8000
    471    470    503   1    109.5000    292.8800
    471    470    504   1    109.5000    292.8800
    503    470    504   1    107.8000    276.1440
    470    471    505   1    118.4000    317.9840
    470    471    506   1    121.9000    418.4000
    505    471    506   1    119.8000    292.8800
    471    506    507   1    122.9000    669.4400
    471    506    508   1    116.6000    585.7600
    507    506    508   1    120.4000    669.4400
    506    508    509   1    111.1000    527.1840
    506    508    528   1    109.5000    292.8800
    506    508    529   1    109.5000    292.8800
    509    508    528   1    110.7000    313.8000
    509    508    529   1    110.7000    313.8000
    528    508    529   1    107.8000    276.1440
    508    509    510   1    112.7000    488.2728
    508    509    530   1    110.7000    313.8000
    508    509    531   1    110.7000    313.8000
    510    509    530   1    110.7000    313.8000
    510    509    531   1    110.7000    313.8000
    530    509    531   1    107.8000    276.1440
    509    510    511   1    112.7000    488.2728
    509    510    532   1    110.7000    313.8000
    509    510    533   1    110.7000    313.8000
    511    510    532   1    110.7000    313.8000
    511    510    533   1    110.7000    313.8000
    532    510    533   1    107.8000    276.1440
    510    511    512   1    112.7000    488.2728
    510    511    534   1    110.7000    313.8000
    510    511    535   1    110.7000    313.8000
    512    511    534   1    110.7000    313.8000
    512    511    535   1    110.7000    313.8000
    534    511    535   1    107.8000    276.1440
    511    512    513   1    112.7000    488.2728
    511    512    536   1    110.7000    313.8000
    511    512    537   1    110.7000    313.8000
    513    512    536   1    110.7000    313.8000
    513    512    537   1    110.7000    313.8000
    536    512    537   1    107.8000    276.1440
    512    513    514   1    112.7000    488.2728
    512    513    538   1    110.7000    313.8000
    512    513    539   1    110.7000    313.8000
    514    513    538   1    110.7000    313.8000
    514    513    539   1    110.7000    313.8000
    538    513    539   1    107.8000    276.1440
    513    514    515   1    112.7000    488.2728
    513    514    540   1    110.7000    313.8000
    513    514    541   1    110.7000    313.8000
    515    514    540   1    110.7000    313.8000
    515    514    541   1    110.7000    313.8000
    540    514    541   1    107.8000    276.1440
    514    515    516   1    112.7000    488.2728
    514    515    542   1    110.7000    313.8000
    514    515    543   1    110.7000    313.8000
    516    515    542   1    110.7000    313.8000
    516    515    543   1    110.7000    313.8000
    542    515    543   1    107.8000    276.1440
    515    516    517   1    112.7000    488.2728
    515    516    544   1    110.7000    313.8000
    515    516    545   1    110.7000    313.8000
    517    516    544   1    110.7000    313.8000
    517    516    545   1    110.7000    313.8000
    544    516    545   1    107.8000    276.1440
    516    517    518   1    111.1000    527.1840
    516    517    546   1    110.7000    313.8000
    516    517    547   1    110.7000    313.8000
    518    517    546   1    109.5000    292.8800
    518    517    547   1    109.5000    292.8800
    546    517    547   1    107.8000    276.1440
    517    518    519   1    120.4000    669.4400
    517    518    520   1    116.6000    585.7600
    519    518    520   1    122.9000    669.4400
    518    520    521   1    121.9000    418.4000
    518    520    548   1    119.8000    292.8800
    521    520    548   1    118.4000    317.9840
    520    521    522   1    110.7230    585.7600
    520    521    549   1    109.5000    292.8800
    520    521    550   1    109.5000    292.8800
    522    521    549   1    110.7000    313.8000
    522    521    550   1    110.7000    313.8000
    549    521    550   1    107.8000    276.1440
    521    522    523   1    112.7000    488.2728
    521    522    551   1    110.7000    313.8000
    521    522    552   1    110.7000    313.8000
    523    522    551   1    110.7000    313.8000
    523    522    552   1    110.7000    313.8000
    551    522    552   1    107.8000    276.1440
    522    523    524   1    112.7000    488.2728
    522    523    553   1    110.7000    313.8000
    522    523    554   1    110.7000    313.8000
    524    523    553   1    110.7000    313.8000
    524    523    554   1    110.7000    313.8000
    553    523    554   1    107.8000    276.1440
    523    524    525   1    112.7000    488.2728
    523    524    555   1    110.7000    313.8000
    523    524    556   1    110.7000    313.8000
    525    524    555   1    110.7000    313.8000
    525    524    556   1    110.7000    313.8000
    555    524    556   1    107.8000    276.1440
    524    525    526   1    112.7000    488.2728
    524    525    557   1    110.7000    313.8000
    524    525    558   1    110.7000    313.8000
    526    525    557   1    110.7000    313.8000
    526    525    558   1    110.7000    313.8000
    557    525    558   1    107.8000    276.1440
    525    526    527   1    110.7230    585.7600
    525    526    559   1    110.7000    313.8000
    525    526    560   1    110.7000    313.8000
    527    526    559   1    109.5000    292.8800
    527    526    560   1    109.5000    292.8800
    559    526    560   1    107.8000    276.1440
    526    527    561   1    118.4000    317.9840
    526    527    562   1    121.9000    418.4000
    561    527    562   1    119.8000    292.8800
    527    562    563   1    122.9000    669.4400
    527    562    564   1    116.6000    585.7600
    563    562    564   1    120.4000    669.4400
    562    564    565   1    111.1000    527.1840
    562    564    584   1    109.5000    292.8800
    562    564    585   1    109.5000    292.8800
    565    564    584   1    110.7000    313.8000
    565    564    585   1    110.7000    313.8000
    584    564    585   1    107.8000    276.1440
    564    565    566   1    112.7000    488.2728
    564    565    586   1    110.7000    313.8000
    564    565    587   1    110.7000    313.8000
    566    565    586   1    110.7000    313.8000
    566    565    587   1    110.7000    313.8000
    586    565    587   1    107.8000    276.1440
    565    566    567   1    112.7000    488.2728
    565    566    588   1    110.7000    313.8000
    565    566    589   1    110.7000    313.8000
    567    566    588   1    110.7000    313.8000
    567    566    589   1    110.7000    313.8000
    588    566    589   1    107.8000    276.1440
    566    567    568   1    112.7000    488.2728
    566    567    590   1    110.7000    313.8000
    566    567    591   1    110.7000    313.8000
    568    567    590   1    110.7000    313.8000
    568    567    591   1    110.7000    313.8000
    590    567    591   1    107.8000    276.1440
    567    568    569   1    112.7000    488.2728
    567    568    592   1    110.7000    313.8000
    567    568    593   1    110.7000    313.8000
    569    568    592   1    110.7000    313.8000
    569    568    593   1    110.7000    313.8000
    592    568    593   1    107.8000    276.1440
    568    569    570   1    112.7000    488.2728
    568    569    594   1    110.7000    313.8000
    568    569    595   1    110.7000    313.8000
    570    569    594   1    110.7000    313.8000
    570    569    595   1    110.7000    313.8000
    594    569    595   1    107.8000    276.1440
    569    570    571   1    112.7000    488.2728
    569    570    596   1    110.7000    313.8000
    569    570    597   1    110.7000    313.8000
    571    570    596   1    110.7000    313.8000
    571    570    597   1    110.7000    313.8000
    596    570    597   1    107.8000    276.1440
    570    571    572   1    112.7000    488.2728
    570    571    598   1    110.7000    313.8000
    570    571    599   1    110.7000    313.8000
    572    571    598   1    110.7000    313.8000
    572    571    599   1    110.7000    313.8000
    598    571    599   1    107.8000    276.1440
    571    572    573   1    112.7000    488.2728
    571    572    600   1    110.7000    313.8000
    571    572    601   1    110.7000    313.8000
    573    572    600   1    110.7000    313.8000
    573    572    601   1    110.7000    313.8000
    600    572    601   1    107.8000    276.1440
    572    573    574   1    111.1000    527.1840
    572    573    602   1    110.7000    313.8000
    572    573    603   1    110.7000    313.8000
    574    573    602   1    109.5000    292.8800
    574    573    603   1    109.5000    292.8800
    602    573    603   1    107.8000    276.1440
    573    574    575   1    120.4000    669.4400
    573    574    576   1    116.6000    585.7600
    575    574    576   1    122.9000    669.4400
    574    576    577   1    121.9000    418.4000
    574    576    604   1    119.8000    292.8800
    577    576    604   1    118.4000    317.9840
    576    577    578   1    110.7230    585.7600
    576    577    605   1    109.5000    292.8800
    576    577    606   1    109.5000    292.8800
    578    577    605   1    110.7000    313.8000
    578    577    606   1    110.7000    313.8000
    605    577    606   1    107.8000    276.1440
    577    578    579   1    112.7000    488.2728
    577    578    607   1    110.7000    313.8000
    577    578    608   1    110.7000    313.8000
    579    578    607   1    110.7000    313.8000
    579    578    608   1    110.7000    313.8000
    607    578    608   1    107.8000    276.1440
    578    579    580   1    112.7000    488.2728
    578    579    609   1    110.7000    313.8000
    578    579    610   1    110.7000    313.8000
    580    579    609   1    110.7000    313.8000
    580    579    610   1    110.7000    313.8000
    609    579    610   1    107.8000    276.1440
    579    580    581   1    112.7000    488.2728
    579    580    611   1    110.7000    313.8000
    579    580    612   1    110.7000    313.8000
    581    580    611   1    110.7000    313.8000
    581    580    612   1    110.7000    313.8000
    611    580    612   1    107.8000    276.1440
    580    581    582   1    112.7000    488.2728
    580    581    613   1    110.7000    313.8000
    580    581    614   1    110.7000    313.8000
    582    581    613   1    110.7000    313.8000
    582    581    614   1    110.7000    313.8000
    613    581    614   1    107.8000    276.1440
    581    582    583   1    110.7230    585.7600
    581    582    615   1    110.7000    313.8000
    581    582    616   1    110.7000    313.8000
    583    582    615   1    109.5000    292.8800
    583    582    616   1    109.5000    292.8800
    615    582    616   1    107.8000    276.1440
    582    583    617   1    118.4000    317.9840
    582    583    618   1    121.9000    418.4000
    617    583    618   1    119.8000    292.8800
    583    618    619   1    122.9000    669.4400
    583    618    620   1    116.6000    585.7600
    619    618    620   1    120.4000    669.4400
    618    620    621   1    111.1000    527.1840
    618    620    640   1    109.5000    292.8800
    618    620    641   1    109.5000    292.8800
    621    620    640   1    110.7000    313.8000
    621    620    641   1    110.7000    313.8000
    640    620    641   1    107.8000    276.1440
    620    621    622   1    112.7000    488.2728
    620    621    642   1    110.7000    313.8000
    620    621    643   1    110.7000    313.8000
    622    621    642   1    110.7000    313.8000
    622    621    643   1    110.7000    313.8000
    642    621    643   1    107.8000    276.1440
    621    622    623   1    112.7000    488.2728
    621    622    644   1    110.7000    313.8000
    621    622    645   1    110.7000    313.8000
    623    622    644   1    110.7000    313.8000
    623    622    645   1    110.7000    313.8000
    644    622    645   1    107.8000    276.1440
    622    623    624   1    112.7000    488.2728
    622    623    646   1    110.7000    313.8000
    622    623    647   1    110.7000    313.8000
    624    623    646   1    110.7000    313.8000
    624    623    647   1    110.7000    313.8000
    646    623    647   1    107.8000    276.1440
    623    624    625   1    112.7000    488.2728
    623    624    648   1    110.7000    313.8000
    623    624    649   1    110.7000    313.8000
    625    624    648   1    110.7000    313.8000
    625    624    649   1    110.7000    313.8000
    648    624    649   1    107.8000    276.1440
    624    625    626   1    112.7000    488.2728
    624    625    650   1    110.7000    313.8000
    624    625    651   1    110.7000    313.8000
    626    625    650   1    110.7000    313.8000
    626    625    651   1    110.7000    313.8000
    650    625    651   1    107.8000    276.1440
    625    626    627   1    112.7000    488.2728
    625    626    652   1    110.7000    313.8000
    625    626    653   1    110.7000    313.8000
    627    626    652   1    110.7000    313.8000
    627    626    653   1    110.7000    313.8000
    652    626    653   1    107.8000    276.1440
    626    627    628   1    112.7000    488.2728
    626    627    654   1    110.7000    313.8000
    626    627    655   1    110.7000    313.8000
    628    627    654   1    110.7000    313.8000
    628    627    655   1    110.7000    313.8000
    654    627    655   1    107.8000    276.1440
    627    628    629   1    112.7000    488.2728
    627    628    656   1    110.7000    313.8000
    627    628    657   1    110.7000    313.8000
    629    628    656   1    110.7000    313.8000
    629    628    657   1    110.7000    313.8000
    656    628    657   1    107.8000    276.1440
    628    629    630   1    111.1000    527.1840
    628    629    658   1    110.7000    313.8000
    628    629    659   1    110.7000    313.8000
    630    629    658   1    109.5000    292.8800
    630    629    659   1    109.5000    292.8800
    658    629    659   1    107.8000    276.1440
    629    630    631   1    120.4000    669.4400
    629    630    632   1    116.6000    585.7600
    631    630    632   1    122.9000    669.4400
    630    632    633   1    121.9000    418.4000
    630    632    660   1    119.8000    292.8800
    633    632    660   1    118.4000    317.9840
    632    633    634   1    110.7230    585.7600
    632    633    661   1    109.5000    292.8800
    632    633    662   1    109.5000    292.8800
    634    633    661   1    110.7000    313.8000
    634    633    662   1    110.7000    313.8000
    661    633    662   1    107.8000    276.1440
    633    634    635   1    112.7000    488.2728
    633    634    663   1    110.7000    313.8000
    633    634    664   1    110.7000    313.8000
    635    634    663   1    110.7000    313.8000
    635    634    664   1    110.7000    313.8000
    663    634    664   1    107.8000    276.1440
    634    635    636   1    112.7000    488.2728
    634    635    665   1    110.7000    313.8000
    634    635    666   1    110.7000    313.8000
    636    635    665   1    110.7000    313.8000
    636    635    666   1    110.7000    313.8000
    665    635    666   1    107.8000    276.1440
    635    636    637   1    112.7000    488.2728
    635    636    667   1    110.7000    313.8000
    635    636    668   1    110.7000    313.8000
    637    636    667   1    110.7000    313.8000
    637    636    668   1    110.7000    313.8000
    667    636    668   1    107.8000    276.1440
    636    637    638   1    112.7000    488.2728
    636    637    669   1    110.7000    313.8000
    636    637    670   1    110.7000    313.8000
    638    637    669   1    110.7000    313.8000
    638    637    670   1    110.7000    313.8000
    669    637    670   1    107.8000    276.1440
    637    638    639   1    110.7230    585.7600
    637    638    671   1    110.7000    313.8000
    637    638    672   1    110.7000    313.8000
    639    638    671   1    109.5000    292.8800
    639    638    672   1    109.5000    292.8800
    671    638    672   1    107.8000    276.1440
    638    639    673   1    118.4000    317.9840
    638    639    674   1    121.9000    418.4000
    673    639    674   1    119.8000    292.8800
    639    674    675   1    122.9000    669.4400
    639    674    676   1    116.6000    585.7600
    675    674    676   1    120.4000    669.4400
    674    676    677   1    111.1000    527.1840
    674    676    696   1    109.5000    292.8800
    674    676    697   1    109.5000    292.8800
    677    676    696   1    110.7000    313.8000
    677    676    697   1    110.7000    313.8000
    696    676    697   1    107.8000    276.1440
    676    677    678   1    112.7000    488.2728
    676    677    698   1    110.7000    313.8000
    676    677    699   1    110.7000    313.8000
    678    677    698   1    110.7000    313.8000
    678    677    699   1    110.7000    313.8000
    698    677    699   1    107.8000    276.1440
    677    678    679   1    112.7000    488.2728
    677    678    700   1    110.7000    313.8000
    677    678    701   1    110.7000    313.8000
    679    678    700   1    110.7000    313.8000
    679    678    701   1    110.7000    313.8000
    700    678    701   1    107.8000    276.1440
    678    679    680   1    112.7000    488.2728
    678    679    702   1    110.7000    313.8000
    678    679    703   1    110.7000    313.8000
    680    679    702   1    110.7000    313.8000
    680    679    703   1    110.7000    313.8000
    702    679    703   1    107.8000    276.1440
    679    680    681   1    112.7000    488.2728
    679    680    704   1    110.7000    313.8000
    679    680    705   1    110.7000    313.8000
    681    680    704   1    110.7000    313.8000
    681    680    705   1    110.7000    313.8000
    704    680    705   1    107.8000    276.1440
    680    681    682   1    112.7000    488.2728
    680    681    706   1    110.7000    313.8000
    680    681    707   1    110.7000    313.8000
    682    681    706   1    110.7000    313.8000
    682    681    707   1    110.7000    313.8000
    706    681    707   1    107.8000    276.1440
    681    682    683   1    112.7000    488.2728
    681    682    708   1    110.7000    313.8000
    681    682    709   1    110.7000    313.8000
    683    682    708   1    110.7000    313.8000
    683    682    709   1    110.7000    313.8000
    708    682    709   1    107.8000    276.1440
    682    683    684   1    112.7000    488.2728
    682    683    710   1    110.7000    313.8000
    682    683    711   1    110.7000    313.8000
    684    683    710   1    110.7000    313.8000
    684    683    711   1    110.7000    313.8000
    710    683    711   1    107.8000    276.1440
    683    684    685   1    112.7000    488.2728
    683    684    712   1    110.7000    313.8000
    683    684    713   1    110.7000    313.8000
    685    684    712   1    110.7000    313.8000
    685    684    713   1    110.7000    313.8000
    712    684    713   1    107.8000    276.1440
    684    685    686   1    111.1000    527.1840
    684    685    714   1    110.7000    313.8000
    684    685    715   1    110.7000    313.8000
    686    685    714   1    109.5000    292.8800
    686    685    715   1    109.5000    292.8800
    714    685    715   1    107.8000    276.1440
    685    686    687   1    120.4000    669.4400
    685    686    688   1    116.6000    585.7600
    687    686    688   1    122.9000    669.4400
    686    688    689   1    121.9000    418.4000
    686    688    716   1    119.8000    292.8800
    689    688    716   1    118.4000    317.9840
    688    689    690   1    110.7230    585.7600
    688    689    717   1    109.5000    292.8800
    688    689    718   1    109.5000    292.8800
    690    689    717   1    110.7000    313.8000
    690    689    718   1    110.7000    313.8000
    717    689    718   1    107.8000    276.1440
    689    690    691   1    112.7000    488.2728
    689    690    719   1    110.7000    313.8000
    689    690    720   1    110.7000    313.8000
    691    690    719   1    110.7000    313.8000
    691    690    720   1    110.7000    313.8000
    719    690    720   1    107.8000    276.1440
    690    691    692   1    112.7000    488.2728
    690    691    721   1    110.7000    313.8000
    690    691    722   1    110.7000    313.8000
    692    691    721   1    110.7000    313.8000
    692    691    722   1    110.7000    313.8000
    721    691    722   1    107.8000    276.1440
    691    692    693   1    112.7000    488.2728
    691    692    723   1    110.7000    313.8000
    691    692    724   1    110.7000    313.8000
    693    692    723   1    110.7000    313.8000
    693    692    724   1    110.7000    313.8000
    723    692    724   1    107.8000    276.1440
    692    693    694   1    112.7000    488.2728
    692    693    725   1    110.7000    313.8000
    692    693    726   1    110.7000    313.8000
    694    693    725   1    110.7000    313.8000
    694    693    726   1    110.7000    313.8000
    725    693    726   1    107.8000    276.1440
    693    694    695   1    110.7230    585.7600
    693    694    727   1    110.7000    313.8000
    693    694    728   1    110.7000    313.8000
    695    694    727   1    109.5000    292.8800
    695    694    728   1    109.5000    292.8800
    727    694    728   1    107.8000    276.1440
    694    695    729   1    118.4000    317.9840
    694    695    730   1    121.9000    418.4000
    729    695    730   1    119.8000    292.8800
    695    730    731   1    122.9000    669.4400
    695    730    732   1    116.6000    585.7600
    731    730    732   1    120.4000    669.4400
    730    732    733   1    111.1000    527.1840
    730    732    752   1    109.5000    292.8800
    730    732    753   1    109.5000    292.8800
    733    732    752   1    110.7000    313.8000
    733    732    753   1    110.7000    313.8000
    752    732    753   1    107.8000    276.1440
    732    733    734   1    112.7000    488.2728
    732    733    754   1    110.7000    313.8000
    732    733    755   1    110.7000    313.8000
    734    733    754   1    110.7000    313.8000
    734    733    755   1    110.7000    313.8000
    754    733    755   1    107.8000    276.1440
    733    734    735   1    112.7000    488.2728
    733    734    756   1    110.7000    313.8000
    733    734    757   1    110.7000    313.8000
    735    734    756   1    110.7000    313.8000
    735    734    757   1    110.7000    313.8000
    756    734    757   1    107.8000    276.1440
    734    735    736   1    112.7000    488.2728
    734    735    758   1    110.7000    313.8000
    734    735    759   1    110.7000    313.8000
    736    735    758   1    110.7000    313.8000
    736    735    759   1    110.7000    313.8000
    758    735    759   1    107.8000    276.1440
    735    736    737   1    112.7000    488.2728
    735    736    760   1    110.7000    313.8000
    735    736    761   1    110.7000    313.8000
    737    736    760   1    110.7000    313.8000
    737    736    761   1    110.7000    313.8000
    760    736    761   1    107.8000    276.1440
    736    737    738   1    112.7000    488.2728
    736    737    762   1    110.7000    313.8000
    736    737    763   1    110.7000    313.8000
    738    737    762   1    110.7000    313.8000
    738    737    763   1    110.7000    313.8000
    762    737    763   1    107.8000    276.1440
    737    738    739   1    112.7000    488.2728
    737    738    764   1    110.7000    313.8000
    737    738    765   1    110.7000    313.8000
    739    738    764   1    110.7000    313.8000
    739    738    765   1    110.7000    313.8000
    764    738    765   1    107.8000    276.1440
    738    739    740   1    112.7000    488.2728
    738    739    766   1    110.7000    313.8000
    738    739    767   1    110.7000    313.8000
    740    739    766   1    110.7000    313.8000
    740    739    767   1    110.7000    313.8000
    766    739    767   1    107.8000    276.1440
    739    740    741   1    112.7000    488.2728
    739    740    768   1    110.7000    313.8000
    739    740    769   1    110.7000    313.8000
    741    740    768   1    110.7000    313.8000
    741    740    769   1    110.7000    313.8000
    768    740    769   1    107.8000    276.1440
    740    741    742   1    111.1000    527.1840
    740    741    770   1    110.7000    313.8000
    740    741    771   1    110.7000    313.8000
    742    741    770   1    109.5000    292.8800
    742    741    771   1    109.5000    292.8800
    770    741    771   1    107.8000    276.1440
    741    742    743   1    120.4000    669.4400
    741    742    744   1    116.6000    585.7600
    743    742    744   1    122.9000    669.4400
    742    744    745   1    121.9000    418.4000
    742    744    772   1    119.8000    292.8800
    745    744    772   1    118.4000    317.9840
    744    745    746   1    110.7230    585.7600
    744    745    773   1    109.5000    292.8800
    744    745    774   1    109.5000    292.8800
    746    745    773   1    110.7000    313.8000
    746    745    774   1    110.7000    313.8000
    773    745    774   1    107.8000    276.1440
    745    746    747   1    112.7000    488.2728
    745    746    775   1    110.7000    313.8000
    745    746    776   1    110.7000    313.8000
    747    746    775   1    110.7000    313.8000
    747    746    776   1    110.7000    313.8000
    775    746    776   1    107.8000    276.1440
    746    747    748   1    112.7000    488.2728
    746    747    777   1    110.7000    313.8000
    746    747    778   1    110.7000    313.8000
    748    747    777   1    110.7000    313.8000
    748    747    778   1    110.7000    313.8000
    777    747    778   1    107.8000    276.1440
    747    748    749   1    112.7000    488.2728
    747    748    779   1    110.7000    313.8000
    747    748    780   1    110.7000    313.8000
    749    748    779   1    110.7000    313.8000
    749    748    780   1    110.7000    313.8000
    779    748    780   1    107.8000    276.1440
    748    749    750   1    112.7000    488.2728
    748    749    781   1    110.7000    313.8000
    748    749    782   1    110.7000    313.8000
    750    749    781   1    110.7000    313.8000
    750    749    782   1    110.7000    313.8000
    781    749    782   1    107.8000    276.1440
    749    750    751   1    110.7230    585.7600
    749    750    783   1    110.7000    313.8000
    749    750    784   1    110.7000    313.8000
    751    750    783   1    109.5000    292.8800
    751    750    784   1    109.5000    292.8800
    783    750    784   1    107.8000    276.1440
    750    751    785   1    118.4000    317.9840
    750    751    786   1    121.9000    418.4000
    785    751    786   1    119.8000    292.8800
    751    786    787   1    122.9000    669.4400
    751    786    788   1    116.6000    585.7600
    787    786    788   1    120.4000    669.4400
    786    788    789   1    111.1000    527.1840
    786    788    808   1    109.5000    292.8800
    786    788    809   1    109.5000    292.8800
    789    788    808   1    110.7000    313.8000
    789    788    809   1    110.7000    313.8000
    808    788    809   1    107.8000    276.1440
    788    789    790   1    112.7000    488.2728
    788    789    810   1    110.7000    313.8000
    788    789    811   1    110.7000    313.8000
    790    789    810   1    110.7000    313.8000
    790    789    811   1    110.7000    313.8000
    810    789    811   1    107.8000    276.1440
    789    790    791   1    112.7000    488.2728
    789    790    812   1    110.7000    313.8000
    789    790    813   1    110.7000    313.8000
    791    790    812   1    110.7000    313.8000
    791    790    813   1    110.7000    313.8000
    812    790    813   1    107.8000    276.1440
    790    791    792   1    112.7000    488.2728
    790    791    814   1    110.7000    313.8000
    790    791    815   1    110.7000    313.8000
    792    791    814   1    110.7000    313.8000
    792    791    815   1    110.7000    313.8000
    814    791    815   1    107.8000    276.1440
    791    792    793   1    112.7000    488.2728
    791    792    816   1    110.7000    313.8000
    791    792    817   1    110.7000    313.8000
    793    792    816   1    110.7000    313.8000
    793    792    817   1    110.7000    313.8000
    816    792    817   1    107.8000    276.1440
    792    793    794   1    112.7000    488.2728
    792    793    818   1    110.7000    313.8000
    792    793    819   1    110.7000    313.8000
    794    793    818   1    110.7000    313.8000
    794    793    819   1    110.7000    313.8000
    818    793    819   1    107.8000    276.1440
    793    794    795   1    112.7000    488.2728
    793    794    820   1    110.7000    313.8000
    793    794    821   1    110.7000    313.8000
    795    794    820   1    110.7000    313.8000
    795    794    821   1    110.7000    313.8000
    820    794    821   1    107.8000    276.1440
    794    795    796   1    112.7000    488.2728
    794    795    822   1    110.7000    313.8000
    794    795    823   1    110.7000    313.8000
    796    795    822   1    110.7000    313.8000
    796    795    823   1    110.7000    313.8000
    822    795    823   1    107.8000    276.1440
    795    796    797   1    112.7000    488.2728
    795    796    824   1    110.7000    313.8000
    795    796    825   1    110.7000    313.8000
    797    796    824   1    110.7000    313.8000
    797    796    825   1    110.7000    313.8000
    824    796    825   1    107.8000    276.1440
    796    797    798   1    111.1000    527.1840
    796    797    826   1    110.7000    313.8000
    796    797    827   1    110.7000    313.8000
    798    797    826   1    109.5000    292.8800
    798    797    827   1    109.5000    292.8800
    826    797    827   1    107.8000    276.1440
    797    798    799   1    120.4000    669.4400
    797    798    800   1    116.6000    585.7600
    799    798    800   1    122.9000    669.4400
    798    800    801   1    121.9000    418.4000
    798    800    828   1    119.8000    292.8800
    801    800    828   1    118.4000    317.9840
    800    801    802   1    110.7230    585.7600
    800    801    829   1    109.5000    292.8800
    800    801    830   1    109.5000    292.8800
    802    801    829   1    110.7000    313.8000
    802    801    830   1    110.7000    313.8000
    829    801    830   1    107.8000    276.1440
    801    802    803   1    112.7000    488.2728
    801    802    831   1    110.7000    313.8000
    801    802    832   1    110.7000    313.8000
    803    802    831   1    110.7000    313.8000
    803    802    832   1    110.7000    313.8000
    831    802    832   1    107.8000    276.1440
    802    803    804   1    112.7000    488.2728
    802    803    833   1    110.7000    313.8000
    802    803    834   1    110.7000    313.8000
    804    803    833   1    110.7000    313.8000
    804    803    834   1    110.7000    313.8000
    833    803    834   1    107.8000    276.1440
    803    804    805   1    112.7000    488.2728
    803    804    835   1    110.7000    313.8000
    803    804    836   1    110.7000    313.8000
    805    804    835   1    110.7000    313.8000
    805    804    836   1    110.7000    313.8000
    835    804    836   1    107.8000    276.1440
    804    805    806   1    112.7000    488.2728
    804    805    837   1    110.7000    313.8000
    804    805    838   1    110.7000    313.8000
    806    805    837   1    110.7000    313.8000
    806    805    838   1    110.7000    313.8000
    837    805    838   1    107.8000    276.1440
    805    806    807   1    110.7230    585.7600
    805    806    839   1    110.7000    313.8000
    805    806    840   1    110.7000    313.8000
    807    806    839   1    109.5000    292.8800
    807    806    840   1    109.5000    292.8800
    839    806    840   1    107.8000    276.1440
    806    807    841   1    118.4000    317.9840
    806    807    842   1    121.9000    418.4000
    841    807    842   1    119.8000    292.8800
    807    842    843   1    122.9000    669.4400
    807    842    844   1    116.6000    585.7600
    843    842    844   1    120.4000    669.4400
    842    844    845   1    111.1000    527.1840
    842    844    864   1    109.5000    292.8800
    842    844    865   1    109.5000    292.8800
    845    844    864   1    110.7000    313.8000
    845    844    865   1    110.7000    313.8000
    864    844    865   1    107.8000    276.1440
    844    845    846   1    112.7000    488.2728
    844    845    866   1    110.7000    313.8000
    844    845    867   1    110.7000    313.8000
    846    845    866   1    110.7000    313.8000
    846    845    867   1    110.7000    313.8000
    866    845    867   1    107.8000    276.1440
    845    846    847   1    112.7000    488.2728
    845    846    868   1    110.7000    313.8000
    845    846    869   1    110.7000    313.8000
    847    846    868   1    110.7000    313.8000
    847    846    869   1    110.7000    313.8000
    868    846    869   1    107.8000    276.1440
    846    847    848   1    112.7000    488.2728
    846    847    870   1    110.7000    313.8000
    846    847    871   1    110.7000    313.8000
    848    847    870   1    110.7000    313.8000
    848    847    871   1    110.7000    313.8000
    870    847    871   1    107.8000    276.1440
    847    848    849   1    112.7000    488.2728
    847    848    872   1    110.7000    313.8000
    847    848    873   1    110.7000    313.8000
    849    848    872   1    110.7000    313.8000
    849    848    873   1    110.7000    313.8000
    872    848    873   1    107.8000    276.1440
    848    849    850   1    112.7000    488.2728
    848    849    874   1    110.7000    313.8000
    848    849    875   1    110.7000    313.8000
    850    849    874   1    110.7000    313.8000
    850    849    875   1    110.7000    313.8000
    874    849    875   1    107.8000    276.1440
    849    850    851   1    112.7000    488.2728
    849    850    876   1    110.7000    313.8000
    849    850    877   1    110.7000    313.8000
    851    850    876   1    110.7000    313.8000
    851    850    877   1    110.7000    313.8000
    876    850    877   1    107.8000    276.1440
    850    851    852   1    112.7000    488.2728
    850    851    878   1    110.7000    313.8000
    850    851    879   1    110.7000    313.8000
    852    851    878   1    110.7000    313.8000
    852    851    879   1    110.7000    313.8000
    878    851    879   1    107.8000    276.1440
    851    852    853   1    112.7000    488.2728
    851    852    880   1    110.7000    313.8000
    851    852    881   1    110.7000    313.8000
    853    852    880   1    110.7000    313.8000
    853    852    881   1    110.7000    313.8000
    880    852    881   1    107.8000    276.1440
    852    853    854   1    111.1000    527.1840
    852    853    882   1    110.7000    313.8000
    852    853    883   1    110.7000    313.8000
    854    853    882   1    109.5000    292.8800
    854    853    883   1    109.5000    292.8800
    882    853    883   1    107.8000    276.1440
    853    854    855   1    120.4000    669.4400
    853    854    856   1    116.6000    585.7600
    855    854    856   1    122.9000    669.4400
    854    856    857   1    121.9000    418.4000
    854    856    884   1    119.8000    292.8800
    857    856    884   1    118.4000    317.9840
    856    857    858   1    110.7230    585.7600
    856    857    885   1    109.5000    292.8800
    856    857    886   1    109.5000    292.8800
    858    857    885   1    110.7000    313.8000
    858    857    886   1    110.7000    313.8000
    885    857    886   1    107.8000    276.1440
    857    858    859   1    112.7000    488.2728
    857    858    887   1    110.7000    313.8000
    857    858    888   1    110.7000    313.8000
    859    858    887   1    110.7000    313.8000
    859    858    888   1    110.7000    313.8000
    887    858    888   1    107.8000    276.1440
    858    859    860   1    112.7000    488.2728
    858    859    889   1    110.7000    313.8000
    858    859    890   1    110.7000    313.8000
    860    859    889   1    110.7000    313.8000
    860    859    890   1    110.7000    313.8000
    889    859    890   1    107.8000    276.1440
    859    860    861   1    112.7000    488.2728
    859    860    891   1    110.7000    313.8000
    859    860    892   1    110.7000    313.8000
    861    860    891   1    110.7000    313.8000
    861    860    892   1    110.7000    313.8000
    891    860    892   1    107.8000    276.1440
    860    861    862   1    112.7000    488.2728
    860    861    893   1    110.7000    313.8000
    860    861    894   1    110.7000    313.8000
    862    861    893   1    110.7000    313.8000
    862    861    894   1    110.7000    313.8000
    893    861    894   1    107.8000    276.1440
    861    862    863   1    110.7230    585.7600
    861    862    895   1    110.7000    313.8000
    861    862    896   1    110.7000    313.8000
    863    862    895   1    109.5000    292.8800
    863    862    896   1    109.5000    292.8800
    895    862    896   1    107.8000    276.1440
    862    863    897   1    118.4000    317.9840
    862    863    898   1    121.9000    418.4000
    897    863    898   1    119.8000    292.8800
    863    898    899   1    122.9000    669.4400
    863    898    900   1    116.6000    585.7600
    899    898    900   1    120.4000    669.4400
    898    900    901   1    111.1000    527.1840
    898    900    920   1    109.5000    292.8800
    898    900    921   1    109.5000    292.8800
    901    900    920   1    110.7000    313.8000
    901    900    921   1    110.7000    313.8000
    920    900    921   1    107.8000    276.1440
    900    901    902   1    112.7000    488.2728
    900    901    922   1    110.7000    313.8000
    900    901    923   1    110.7000    313.8000
    902    901    922   1    110.7000    313.8000
    902    901    923   1    110.7000    313.8000
    922    901    923   1    107.8000    276.1440
    901    902    903   1    112.7000    488.2728
    901    902    924   1    110.7000    313.8000
    901    902    925   1    110.7000    313.8000
    903    902    924   1    110.7000    313.8000
    903    902    925   1    110.7000    313.8000
    924    902    925   1    107.8000    276.1440
    902    903    904   1    112.7000    488.2728
    902    903    926   1    110.7000    313.8000
    902    903    927   1    110.7000    313.8000
    904    903    926   1    110.7000    313.8000
    904    903    927   1    110.7000    313.8000
    926    903    927   1    107.8000    276.1440
    903    904    905   1    112.7000    488.2728
    903    904    928   1    110.7000    313.8000
    903    904    929   1    110.7000    313.8000
    905    904    928   1    110.7000    313.8000
    905    904    929   1    110.7000    313.8000
    928    904    929   1    107.8000    276.1440
    904    905    906   1    112.7000    488.2728
    904    905    930   1    110.7000    313.8000
    904    905    931   1    110.7000    313.8000
    906    905    930   1    110.7000    313.8000
    906    905    931   1    110.7000    313.8000
    930    905    931   1    107.8000    276.1440
    905    906    907   1    112.7000    488.2728
    905    906    932   1    110.7000    313.8000
    905    906    933   1    110.7000    313.8000
    907    906    932   1    110.7000    313.8000
    907    906    933   1    110.7000    313.8000
    932    906    933   1    107.8000    276.1440
    906    907    908   1    112.7000    488.2728
    906    907    934   1    110.7000    313.8000
    906    907    935   1    110.7000    313.8000
    908    907    934   1    110.7000    313.8000
    908    907    935   1    110.7000    313.8000
    934    907    935   1    107.8000    276.1440
    907    908    909   1    112.7000    488.2728
    907    908    936   1    110.7000    313.8000
    907    908    937   1    110.7000    313.8000
    909    908    936   1    110.7000    313.8000
    909    908    937   1    110.7000    313.8000
    936    908    937   1    107.8000    276.1440
    908    909    910   1    111.1000    527.1840
    908    909    938   1    110.7000    313.8000
    908    909    939   1    110.7000    313.8000
    910    909    938   1    109.5000    292.8800
    910    909    939   1    109.5000    292.8800
    938    909    939   1    107.8000    276.1440
    909    910    911   1    120.4000    669.4400
    909    910    912   1    116.6000    585.7600
    911    910    912   1    122.9000    669.4400
    910    912    913   1    121.9000    418.4000
    910    912    940   1    119.8000    292.8800
    913    912    940   1    118.4000    317.9840
    912    913    914   1    110.7230    585.7600
    912    913    941   1    109.5000    292.8800
    912    913    942   1    109.5000    292.8800
    914    913    941   1    110.7000    313.8000
    914    913    942   1    110.7000    313.8000
    941    913    942   1    107.8000    276.1440
    913    914    915   1    112.7000    488.2728
    913    914    943   1    110.7000    313.8000
    913    914    944   1    110.7000    313.8000
    915    914    943   1    110.7000    313.8000
    915    914    944   1    110.7000    313.8000
    943    914    944   1    107.8000    276.1440
    914    915    916   1    112.7000    488.2728
    914    915    945   1    110.7000    313.8000
    914    915    946   1    110.7000    313.8000
    916    915    945   1    110.7000    313.8000
    916    915    946   1    110.7000    313.8000
    945    915    946   1    107.8000    276.1440
    915    916    917   1    112.7000    488.2728
    915    916    947   1    110.7000    313.8000
    915    916    948   1    110.7000    313.8000
    917    916    947   1    110.7000    313.8000
    917    916    948   1    110.7000    313.8000
    947    916    948   1    107.8000    276.1440
    916    917    918   1    112.7000    488.2728
    916    917    949   1    110.7000    313.8000
    916    917    950   1    110.7000    313.8000
    918    917    949   1    110.7000    313.8000
    918    917    950   1    110.7000    313.8000
    949    917    950   1    107.8000    276.1440
    917    918    919   1    110.7230    585.7600
    917    918    951   1    110.7000    313.8000
    917    918    952   1    110.7000    313.8000
    919    918    951   1    109.5000    292.8800
    919    918    952   1    109.5000    292.8800
    951    918    952   1    107.8000    276.1440
    918    919    953   1    118.4000    317.9840
    918    919    954   1    121.9000    418.4000
    953    919    954   1    119.8000    292.8800
    919    954    955   1    122.9000    669.4400
    919    954    956   1    116.6000    585.7600
    955    954    956   1    120.4000    669.4400
    954    956    957   1    111.1000    527.1840
    954    956    976   1    109.5000    292.8800
    954    956    977   1    109.5000    292.8800
    957    956    976   1    110.7000    313.8000
    957    956    977   1    110.7000    313.8000
    976    956    977   1    107.8000    276.1440
    956    957    958   1    112.7000    488.2728
    956    957    978   1    110.7000    313.8000
    956    957    979   1    110.7000    313.8000
    958    957    978   1    110.7000    313.8000
    958    957    979   1    110.7000    313.8000
    978    957    979   1    107.8000    276.1440
    957    958    959   1    112.7000    488.2728
    957    958    980   1    110.7000    313.8000
    957    958    981   1    110.7000    313.8000
    959    958    980   1    110.7000    313.8000
    959    958    981   1    110.7000    313.8000
    980    958    981   1    107.8000    276.1440
    958    959    960   1    112.7000    488.2728
    958    959    982   1    110.7000    313.8000
    958    959    983   1    110.7000    313.8000
    960    959    982   1    110.7000    313.8000
    960    959    983   1    110.7000    313.8000
    982    959    983   1    107.8000    276.1440
    959    960    961   1    112.7000    488.2728
    959    960    984   1    110.7000    313.8000
    959    960    985   1    110.7000    313.8000
    961    960    984   1    110.7000    313.8000
    961    960    985   1    110.7000    313.8000
    984    960    985   1    107.8000    276.1440
    960    961    962   1    112.7000    488.2728
    960    961    986   1    110.7000    313.8000
    960    961    987   1    110.7000    313.8000
    962    961    986   1    110.7000    313.8000
    962    961    987   1    110.7000    313.8000
    986    961    987   1    107.8000    276.1440
    961    962    963   1    112.7000    488.2728
    961    962    988   1    110.7000    313.8000
    961    962    989   1    110.7000    313.8000
    963    962    988   1    110.7000    313.8000
    963    962    989   1    110.7000    313.8000
    988    962    989   1    107.8000    276.1440
    962    963    964   1    112.7000    488.2728
    962    963    990   1    110.7000    313.8000
    962    963    991   1    110.7000    313.8000
    964    963    990   1    110.7000    313.8000
    964    963    991   1    110.7000    313.8000
    990    963    991   1    107.8000    276.1440
    963    964    965   1    112.7000    488.2728
    963    964    992   1    110.7000    313.8000
    963    964    993   1    110.7000    313.8000
    965    964    992   1    110.7000    313.8000
    965    964    993   1    110.7000    313.8000
    992    964    993   1    107.8000    276.1440
    964    965    966   1    111.1000    527.1840
    964    965    994   1    110.7000    313.8000
    964    965    995   1    110.7000    313.8000
    966    965    994   1    109.5000    292.8800
    966    965    995   1    109.5000    292.8800
    994    965    995   1    107.8000    276.1440
    965    966    967   1    120.4000    669.4400
    965    966    968   1    116.6000    585.7600
    967    966    968   1    122.9000    669.4400
    966    968    969   1    121.9000    418.4000
    966    968    996   1    119.8000    292.8800
    969    968    996   1    118.4000    317.9840
    968    969    970   1    110.7230    585.7600
    968    969    997   1    109.5000    292.8800
    968    969    998   1    109.5000    292.8800
    970    969    997   1    110.7000    313.8000
    970    969    998   1    110.7000    313.8000
    997    969    998   1    107.8000    276.1440
    969    970    971   1    112.7000    488.2728
    969    970    999   1    110.7000    313.8000
    969    970   1000   1    110.7000    313.8000
    971    970    999   1    110.7000    313.8000
    971    970   1000   1    110.7000    313.8000
    999    970   1000   1    107.8000    276.1440
    970    971    972   1    112.7000    488.2728
    970    971   1001   1    110.7000    313.8000
    970    971   1002   1    110.7000    313.8000
    972    971   1001   1    110.7000    313.8000
    972    971   1002   1    110.7000    313.8000
   1001    971   1002   1    107.8000    276.1440
    971    972    973   1    112.7000    488.2728
    971    972   1003   1    110.7000    313.8000
    971    972   1004   1    110.7000    313.8000
    973    972   1003   1    110.7000    313.8000
    973    972   1004   1    110.7000    313.8000
   1003    972   1004   1    107.8000    276.1440
    972    973    974   1    112.7000    488.2728
    972    973   1005   1    110.7000    313.8000
    972    973   1006   1    110.7000    313.8000
    974    973   1005   1    110.7000    313.8000
    974    973   1006   1    110.7000    313.8000
   1005    973   1006   1    107.8000    276.1440
    973    974    975   1    110.7230    585.7600
    973    974   1007   1    110.7000    313.8000
    973    974   1008   1    110.7000    313.8000
    975    974   1007   1    109.5000    292.8800
    975    974   1008   1    109.5000    292.8800
   1007    974   1008   1    107.8000    276.1440
    974    975   1009   1    118.4000    317.9840
    974    975   1010   1    121.9000    418.4000
   1009    975   1010   1    119.8000    292.8800
    975   1010   1011   1    122.9000    669.4400
    975   1010   1012   1    116.6000    585.7600
   1011   1010   1012   1    120.4000    669.4400
   1010   1012   1013   1    111.1000    527.1840
   1010   1012   1032   1    109.5000    292.8800
   1010   1012   1033   1    109.5000    292.8800
   1013   1012   1032   1    110.7000    313.8000
   1013   1012   1033   1    110.7000    313.8000
   1032   1012   1033   1    107.8000    276.1440
   1012   1013   1014   1    112.7000    488.2728
   1012   1013   1034   1    110.7000    313.8000
   1012   1013   1035   1    110.7000    313.8000
   1014   1013   1034   1    110.7000    313.8000
   1014   1013   1035   1    110.7000    313.8000
   1034   1013   1035   1    107.8000    276.1440
   1013   1014   1015   1    112.7000    488.2728
   1013   1014   1036   1    110.7000    313.8000
   1013   1014   1037   1    110.7000    313.8000
   1015   1014   1036   1    110.7000    313.8000
   1015   1014   1037   1    110.7000    313.8000
   1036   1014   1037   1    107.8000    276.1440
   1014   1015   1016   1    112.7000    488.2728
   1014   1015   1038   1    110.7000    313.8000
   1014   1015   1039   1    110.7000    313.8000
   1016   1015   1038   1    110.7000    313.8000
   1016   1015   1039   1    110.7000    313.8000
   1038   1015   1039   1    107.8000    276.1440
   1015   1016   1017   1    112.7000    488.2728
   1015   1016   1040   1    110.7000    313.8000
   1015   1016   1041   1    110.7000    313.8000
   1017   1016   1040   1    110.7000    313.8000
   1017   1016   1041   1    110.7000    313.8000
   1040   1016   1041   1    107.8000    276.1440
   1016   1017   1018   1    112.7000    488.2728
   1016   1017   1042   1    110.7000    313.8000
   1016   1017   1043   1    110.7000    313.8000
   1018   1017   1042   1    110.7000    313.8000
   1018   1017   1043   1    110.7000    313.8000
   1042   1017   1043   1    107.8000    276.1440
   1017   1018   1019   1    112.7000    488.2728
   1017   1018   1044   1    110.7000    313.8000
   1017   1018   1045   1    110.7000    313.8000
   1019   1018   1044   1    110.7000    313.8000
   1019   1018   1045   1    110.7000    313.8000
   1044   1018   1045   1    107.8000    276.1440
   1018   1019   1020   1    112.7000    488.2728
   1018   1019   1046   1    110.7000    313.8000
   1018   1019   1047   1    110.7000    313.8000
   1020   1019   1046   1    110.7000    313.8000
   1020   1019   1047   1    110.7000    313.8000
   1046   1019   1047   1    107.8000    276.1440
   1019   1020   1021   1    112.7000    488.2728
   1019   1020   1048   1    110.7000    313.8000
   1019   1020   1049   1    110.7000    313.8000
   1021   1020   1048   1    110.7000    313.8000
   1021   1020   1049   1    110.7000    313.8000
   1048   1020   1049   1    107.8000    276.1440
   1020   1021   1022   1    111.1000    527.1840
   1020   1021   1050   1    110.7000    313.8000
   1020   1021   1051   1    110.7000    313.8000
   1022   1021   1050   1    109.5000    292.8800
   1022   1021   1051   1    109.5000    292.8800
   1050   1021   1051   1    107.8000    276.1440
   1021   1022   1023   1    120.4000    669.4400
   1021   1022   1024   1    116.6000    585.7600
   1023   1022   1024   1    122.9000    669.4400
   1022   1024   1025   1    121.9000    418.4000
   1022   1024   1052   1    119.8000    292.8800
   1025   1024   1052   1    118.4000    317.9840
   1024   1025   1026   1    110.7230    585.7600
   1024   1025   1053   1    109.5000    292.8800
   1024   1025   1054   1    109.5000    292.8800
   1026   1025   1053   1    110.7000    313.8000
   1026   1025   1054   1    110.7000    313.8000
   1053   1025   1054   1    107.8000    276.1440
   1025   1026   1027   1    112.7000    488.2728
   1025   1026   1055   1    110.7000    313.8000
   1025   1026   1056   1    110.7000    313.8000
   1027   1026   1055   1    110.7000    313.8000
   1027   1026   1056   1    110.7000    313.8000
   1055   1026   1056   1    107.8000    276.1440
   1026   1027   1028   1    112.7000    488.2728
   1026   1027   1057   1    110.7000    313.8000
   1026   1027   1058   1    110.7000    313.8000
   1028   1027   1057   1    110.7000    313.8000
   1028   1027   1058   1    110.7000    313.8000
   1057   1027   1058   1    107.8000    276.1440
   1027   1028   1029   1    112.7000    488.2728
   1027   1028   1059   1    110.7000    313.8000
   1027   1028   1060   1    110.7000    313.8000
   1029   1028   1059   1    110.7000    313.8000
   1029   1028   1060   1    110.7000    313.8000
   1059   1028   1060   1    107.8000    276.1440
   1028   1029   1030   1    112.7000    488.2728
   1028   1029   1061   1    110.7000    313.8000
   1028   1029   1062   1    110.7000    313.8000
   1030   1029   1061   1    110.7000    313.8000
   1030   1029   1062   1    110.7000    313.8000
   1061   1029   1062   1    107.8000    276.1440
   1029   1030   1031   1    110.7230    585.7600
   1029   1030   1063   1    110.7000    313.8000
   1029   1030   1064   1    110.7000    313.8000
   1031   1030   1063   1    109.5000    292.8800
   1031   1030   1064   1    109.5000    292.8800
   1063   1030   1064   1    107.8000    276.1440
   1030   1031   1065   1    118.4000    317.9840
   1030   1031   1066   1    121.9000    418.4000
   1065   1031   1066   1    119.8000    292.8800
   1031   1066   1067   1    122.9000    669.4400
   1031   1066   1068   1    116.6000    585.7600
   1067   1066   1068   1    120.4000    669.4400
   1066   1068   1069   1    111.1000    527.1840
   1066   1068   1088   1    109.5000    292.8800
   1066   1068   1089   1    109.5000    292.8800
   1069   1068   1088   1    110.7000    313.8000
   1069   1068   1089   1    110.7000    313.8000
   1088   1068   1089   1    107.8000    276.1440
   1068   1069   1070   1    112.7000    488.2728
   1068   1069   1090   1    110.7000    313.8000
   1068   1069   1091   1    110.7000    313.8000
   1070   1069   1090   1    110.7000    313.8000
   1070   1069   1091   1    110.7000    313.8000
   1090   1069   1091   1    107.8000    276.1440
   1069   1070   1071   1    112.7000    488.2728
   1069   1070   1092   1    110.7000    313.8000
   1069   1070   1093   1    110.7000    313.8000
   1071   1070   1092   1    110.7000    313.8000
   1071   1070   1093   1    110.7000    313.8000
   1092   1070   1093   1    107.8000    276.1440
   1070   1071   1072   1    112.7000    488.2728
   1070   1071   1094   1    110.7000    313.8000
   1070   1071   1095   1    110.7000    313.8000
   1072   1071   1094   1    110.7000    313.8000
   1072   1071   1095   1    110.7000    313.8000
   1094   1071   1095   1    107.8000    276.1440
   1071   1072   1073   1    112.7000    488.2728
   1071   1072   1096   1    110.7000    313.8000
   1071   1072   1097   1    110.7000    313.8000
   1073   1072   1096   1    110.7000    313.8000
   1073   1072   1097   1    110.7000    313.8000
   1096   1072   1097   1    107.8000    276.1440
   1072   1073   1074   1    112.7000    488.2728
   1072   1073   1098   1    110.7000    313.8000
   1072   1073   1099   1    110.7000    313.8000
   1074   1073   1098   1    110.7000    313.8000
   1074   1073   1099   1    110.7000    313.8000
   1098   1073   1099   1    107.8000    276.1440
   1073   1074   1075   1    112.7000    488.2728
   1073   1074   1100   1    110.7000    313.8000
   1073   1074   1101   1    110.7000    313.8000
   1075   1074   1100   1    110.7000    313.8000
   1075   1074   1101   1    110.7000    313.8000
   1100   1074   1101   1    107.8000    276.1440
   1074   1075   1076   1    112.7000    488.2728
   1074   1075   1102   1    110.7000    313.8000
   1074   1075   1103   1    110.7000    313.8000
   1076   1075   1102   1    110.7000    313.8000
   1076   1075   1103   1    110.7000    313.8000
   1102   1075   1103   1    107.8000    276.1440
   1075   1076   1077   1    112.7000    488.2728
   1075   1076   1104   1    110.7000    313.8000
   1075   1076   1105   1    110.7000    313.8000
   1077   1076   1104   1    110.7000    313.8000
   1077   1076   1105   1    110.7000    313.8000
   1104   1076   1105   1    107.8000    276.1440
   1076   1077   1078   1    111.1000    527.1840
   1076   1077   1106   1    110.7000    313.8000
   1076   1077   1107   1    110.7000    313.8000
   1078   1077   1106   1    109.5000    292.8800
   1078   1077   1107   1    109.5000    292.8800
   1106   1077   1107   1    107.8000    276.1440
   1077   1078   1079   1    120.4000    669.4400
   1077   1078   1080   1    116.6000    585.7600
   1079   1078   1080   1    122.9000    669.4400
   1078   1080   1081   1    121.9000    418.4000
   1078   1080   1108   1    119.8000    292.8800
   1081   1080   1108   1    118.4000    317.9840
   1080   1081   1082   1    110.7230    585.7600
   1080   1081   1109   1    109.5000    292.8800
   1080   1081   1110   1    109.5000    292.8800
   1082   1081   1109   1    110.7000    313.8000
   1082   1081   1110   1    110.7000    313.8000
   1109   1081   1110   1    107.8000    276.1440
   1081   1082   1083   1    112.7000    488.2728
   1081   1082   1111   1    110.7000    313.8000
   1081   1082   1112   1    110.7000    313.8000
   1083   1082   1111   1    110.7000    313.8000
   1083   1082   1112   1    110.7000    313.8000
   1111   1082   1112   1    107.8000    276.1440
   1082   1083   1084   1    112.7000    488.2728
   1082   1083   1113   1    110.7000    313.8000
   1082   1083   1114   1    110.7000    313.8000
   1084   1083   1113   1    110.7000    313.8000
   1084   1083   1114   1    110.7000    313.8000
   1113   1083   1114   1    107.8000    276.1440
   1083   1084   1085   1    112.7000    488.2728
   1083   1084   1115   1    110.7000    313.8000
   1083   1084   1116   1    110.7000    313.8000
   1085   1084   1115   1    110.7000    313.8000
   1085   1084   1116   1    110.7000    313.8000
   1115   1084   1116   1    107.8000    276.1440
   1084   1085   1086   1    112.7000    488.2728
   1084   1085   1117   1    110.7000    313.8000
   1084   1085   1118   1    110.7000    313.8000
   1086   1085   1117   1    110.7000    313.8000
   1086   1085   1118   1    110.7000    313.8000
   1117   1085   1118   1    107.8000    276.1440
   1085   1086   1087   1    109.4700    470.2816
   1085   1086   1119   1    110.7000    313.8000
   1085   1086   1120   1    110.7000    313.8000
   1087   1086   1119   1    109.5000    292.8800
   1087   1086   1120   1    109.5000    292.8800
   1119   1086   1120   1    107.8000    276.1440
   1086   1087   1121   1    109.5000    292.8800
   1086   1087   1122   1    109.5000    292.8800
   1121   1087   1122   1    106.4000    364.8448

[ dihedrals ]
; Proper dihedrals
      2      1      3      4   5     0.00000     2.52295     0.00000  0.0
      2      1      3     23   5     0.00000     0.00000     0.00000  0.0
      2      1      3     24   5     0.00000     0.00000     0.00000  0.0
     57      1      3      4   5     6.23834    -0.04184     0.00000  0.0
     57      1      3     23   5     0.00000     0.00000     0.00000  0.0
     57      1      3     24   5     0.00000     0.00000     0.00000  0.0
      1      3      4      5   5    -8.00818    -1.52298     2.46438  0.0
      1      3      4     25   5     0.00000     0.00000    -0.94140  0.0
      1      3      4     26   5     0.00000     0.00000    -0.94140  0.0
     23      3      4      5   5     0.00000     0.00000     1.25520  0.0
     23      3      4     25   5     0.00000     0.00000     1.25520  0.0
     23      3      4     26   5     0.00000     0.00000     1.25520  0.0
     24      3      4      5   5     0.00000     0.00000     1.25520  0.0
     24      3      4     25   5     0.00000     0.00000     1.25520  0.0
     24      3      4     26   5     0.00000     0.00000     1.25520  0.0
      3      4      5      6   5     4.74884    -0.63178     1.67360  0.0
      3      4      5     27   5     0.00000     0.00000     1.25520  0.0
      3      4      5     28   5     0.00000     0.00000     1.25520  0.0
     25      4      5      6   5     0.00000     0.00000     1.25520  0.0
     25      4      5     27   5     0.00000     0.00000     1.25520  0.0
     25      4      5     28   5     0.00000     0.00000     1.25520  0.0
     26      4      5      6   5     0.00000     0.00000     1.25520  0.0
     26      4      5     27   5     0.00000     0.00000     1.25520  0.0
     26      4      5     28   5     0.00000     0.00000     1.25520  0.0
      4      5      6      7   5     4.74884    -0.63178     1.67360  0.0
      4      5      6     29   5     0.00000     0.00000     1.25520  0.0
      4      5      6     30   5     0.00000     0.00000     1.25520  0.0
     27      5      6      7   5     0.00000     0.00000     1.25520  0.0
     27      5      6     29   5     0.00000     0.00000     1.25520  0.0
     27      5      6     30   5     0.00000     0.00000     1.25520  0.0
     28      5      6      7   5     0.00000     0.00000     1.25520  0.0
     28      5      6     29   5     0.00000     0.00000     1.25520  0.0
     28      5      6     30   5     0.00000     0.00000     1.25520  0.0
      5      6      7      8   5     4.74884    -0.63178     1.67360  0.0
      5      6      7     31   5     0.00000     0.00000     1.25520  0.0
      5      6      7     32   5     0.00000     0.00000     1.25520  0.0
     29      6      7      8   5     0.00000     0.00000     1.25520  0.0
     29      6      7     31   5     0.00000     0.00000     1.25520  0.0
     29      6      7     32   5     0.00000     0.00000     1.25520  0.0
     30      6      7      8   5     0.00000     0.00000     1.25520  0.0
     30      6      7     31   5     0.00000     0.00000     1.25520  0.0
     30      6      7     32   5     0.00000     0.00000     1.25520  0.0
      6      7      8      9   5     4.74884    -0.63178     1.67360  0.0
      6      7      8     33   5     0.00000     0.00000     1.25520  0.0
      6      7      8     34   5     0.00000     0.00000     1.25520  0.0
     31      7      8      9   5     0.00000     0.00000     1.25520  0.0
     31      7      8     33   5     0.00000     0.00000     1.25520  0.0
     31      7      8     34   5     0.00000     0.00000     1.25520  0.0
     32      7      8      9   5     0.00000     0.00000     1.25520  0.0
     32      7      8     33   5     0.00000     0.00000     1.25520  0.0
     32      7      8     34   5     0.00000     0.00000     1.25520  0.0
      7      8      9     10   5     4.74884    -0.63178     1.67360  0.0
      7      8      9     35   5     0.00000     0.00000     1.25520  0.0
      7      8      9     36   5     0.00000     0.00000     1.25520  0.0
     33      8      9     10   5     0.00000     0.00000     1.25520  0.0
     33      8      9     35   5     0.00000     0.00000     1.25520  0.0
     33      8      9     36   5     0.00000     0.00000     1.25520  0.0
     34      8      9     10   5     0.00000     0.00000     1.25520  0.0
     34      8      9     35   5     0.00000     0.00000     1.25520  0.0
     34      8      9     36   5     0.00000     0.00000     1.25520  0.0
      8      9     10     11   5     4.74884    -0.63178     1.67360  0.0
      8      9     10     37   5     0.00000     0.00000     1.25520  0.0
      8      9     10     38   5     0.00000     0.00000     1.25520  0.0
     35      9     10     11   5     0.00000     0.00000     1.25520  0.0
     35      9     10     37   5     0.00000     0.00000     1.25520  0.0
     35      9     10     38   5     0.00000     0.00000     1.25520  0.0
     36      9     10     11   5     0.00000     0.00000     1.25520  0.0
     36      9     10     37   5     0.00000     0.00000     1.25520  0.0
     36      9     10     38   5     0.00000     0.00000     1.25520  0.0
      9     10     11     12   5     4.74884    -0.63178     1.67360  0.0
      9     10     11     39   5     0.00000     0.00000     1.25520  0.0
      9     10     11     40   5     0.00000     0.00000     1.25520  0.0
     37     10     11     12   5     0.00000     0.00000     1.25520  0.0
     37     10     11     39   5     0.00000     0.00000     1.25520  0.0
     37     10     11     40   5     0.00000     0.00000     1.25520  0.0
     38     10     11     12   5     0.00000     0.00000     1.25520  0.0
     38     10     11     39   5     0.00000     0.00000     1.25520  0.0
     38     10     11     40   5     0.00000     0.00000     1.25520  0.0
     10     11     12     13   5    -8.00818    -1.52298     2.46438  0.0
     10     11     12     41   5     0.00000     0.00000     1.25520  0.0
     10     11     12     42   5     0.00000     0.00000     1.25520  0.0
     39     11     12     13   5     0.00000     0.00000    -0.94140  0.0
     39     11     12     41   5     0.00000     0.00000     1.25520  0.0
     39     11     12     42   5     0.00000     0.00000     1.25520  0.0
     40     11     12     13   5     0.00000     0.00000    -0.94140  0.0
     40     11     12     41   5     0.00000     0.00000     1.25520  0.0
     40     11     12     42   5     0.00000     0.00000     1.25520  0.0
     11     12     13     14   5     0.00000     2.52295     0.00000  0.0
     11     12     13     15   5    11.69428    -0.66526    -1.56900  0.0
     41     12     13     14   5     0.00000     0.00000     0.00000  0.0
     41     12     13     15   5     0.00000     0.00000     0.00000  0.0
     42     12     13     14   5     0.00000     0.00000     0.00000  0.0
     42     12     13     15   5     0.00000     0.00000     0.00000  0.0
     12     13     15     16   5    12.53945    12.88254     0.00000  0.0
     12     13     15     43   5     0.00000    20.50160     0.00000  0.0
     14     13     15     16   5     0.00000    25.47638     0.00000  0.0
     14     13     15     43   5     0.00000    20.50160     0.00000  0.0
     13     15     16     17   5    -3.67774    -0.67781     0.28033  0.0
     13     15     16     44   5     0.00000     0.00000     0.00000  0.0
     13     15     16     45   5     0.00000     0.00000     0.00000  0.0
     43     15     16     17   5     0.00000     0.00000     0.00000  0.0
     43     15     16     44   5     0.00000     0.00000     0.00000  0.0
     43     15     16     45   5     0.00000     0.00000     0.00000  0.0
     15     16     17     18   5     3.67355     4.10869     2.37651  0.0
     15     16     17     46   5     0.00000     0.00000     1.25520  0.0
     15     16     17     47   5     0.00000     0.00000     1.25520  0.0
     44     16     17     18   5     0.00000     0.00000     1.25520  0.0
     44     16     17     46   5     0.00000     0.00000     1.25520  0.0
     44     16     17     47   5     0.00000     0.00000     1.25520  0.0
     45     16     17     18   5     0.00000     0.00000     1.25520  0.0
     45     16     17     46   5     0.00000     0.00000     1.25520  0.0
     45     16     17     47   5     0.00000     0.00000     1.25520  0.0
     16     17     18     19   5     4.74884    -0.63178     1.67360  0.0
     16     17     18     48   5     0.00000     0.00000     1.25520  0.0
     16     17     18     49   5     0.00000     0.00000     1.25520  0.0
     46     17     18     19   5     0.00000     0.00000     1.25520  0.0
     46     17     18     48   5     0.00000     0.00000     1.25520  0.0
     46     17     18     49   5     0.00000     0.00000     1.25520  0.0
     47     17     18     19   5     0.00000     0.00000     1.25520  0.0
     47     17     18     48   5     0.00000     0.00000     1.25520  0.0
     47     17     18     49   5     0.00000     0.00000     1.25520  0.0
     17     18     19     20   5     4.74884    -0.63178     1.67360  0.0
     17     18     19     50   5     0.00000     0.00000     1.25520  0.0
     17     18     19     51   5     0.00000     0.00000     1.25520  0.0
     48     18     19     20   5     0.00000     0.00000     1.25520  0.0
     48     18     19     50   5     0.00000     0.00000     1.25520  0.0
     48     18     19     51   5     0.00000     0.00000     1.25520  0.0
     49     18     19     20   5     0.00000     0.00000     1.25520  0.0
     49     18     19     50   5     0.00000     0.00000     1.25520  0.0
     49     18     19     51   5     0.00000     0.00000     1.25520  0.0
     18     19     20     21   5     4.74884    -0.63178     1.67360  0.0
     18     19     20     52   5     0.00000     0.00000     1.25520  0.0
     18     19     20     53   5     0.00000     0.00000     1.25520  0.0
     50     19     20     21   5     0.00000     0.00000     1.25520  0.0
     50     19     20     52   5     0.00000     0.00000     1.25520  0.0
     50     19     20     53   5     0.00000     0.00000     1.25520  0.0
     51     19     20     21   5     0.00000     0.00000     1.25520  0.0
     51     19     20     52   5     0.00000     0.00000     1.25520  0.0
     51     19     20     53   5     0.00000     0.00000     1.25520  0.0
     19     20     21     22   5     3.67355     4.10869     2.37651  0.0
     19     20     21     54   5     0.00000     0.00000     1.25520  0.0
     19     20     21     55   5     0.00000     0.00000     1.25520  0.0
     52     20     21     22   5     0.00000     0.00000     1.25520  0.0
     52     20     21     54   5     0.00000     0.00000     1.25520  0.0
     52     20     21     55   5     0.00000     0.00000     1.25520  0.0
     53     20     21     22   5     0.00000     0.00000     1.25520  0.0
     53     20     21     54   5     0.00000     0.00000     1.25520  0.0
     53     20     21     55   5     0.00000     0.00000     1.25520  0.0
     20     21     22     56   5     0.00000     0.00000     0.00000  0.0
     20     21     22     58   5    -3.67774    -0.67781     0.28033  0.0
     54     21     22     56   5     0.00000     0.00000     0.00000  0.0
     54     21     22     58   5     0.00000     0.00000     0.00000  0.0
     55     21     22     56   5     0.00000     0.00000     0.00000  0.0
     55     21     22     58   5     0.00000     0.00000     0.00000  0.0
     21     22     58     59   5     0.00000    25.47638     0.00000  0.0
     21     22     58     60   5    12.53945    12.88254     0.00000  0.0
     56     22     58     59   5     0.00000    20.50160     0.00000  0.0
     56     22     58     60   5     0.00000    20.50160     0.00000  0.0
     22     58     60     61   5    11.69428    -0.66526    -1.56900  0.0
     22     58     60     80   5     0.00000     0.00000     0.00000  0.0
     22     58     60     81   5     0.00000     0.00000     0.00000  0.0
     59     58     60     61   5     0.00000     2.52295     0.00000  0.0
     59     58     60     80   5     0.00000     0.00000     0.00000  0.0
     59     58     60     81   5     0.00000     0.00000     0.00000  0.0
     58     60     61     62   5    -8.00818    -1.52298     2.46438  0.0
     58     60     61     82   5     0.00000     0.00000    -0.94140  0.0
     58     60     61     83   5     0.00000     0.00000    -0.94140  0.0
     80     60     61     62   5     0.00000     0.00000     1.25520  0.0
     80     60     61     82   5     0.00000     0.00000     1.25520  0.0
     80     60     61     83   5     0.00000     0.00000     1.25520  0.0
     81     60     61     62   5     0.00000     0.00000     1.25520  0.0
     81     60     61     82   5     0.00000     0.00000     1.25520  0.0
     81     60     61     83   5     0.00000     0.00000     1.25520  0.0
     60     61     62     63   5     4.74884    -0.63178     1.67360  0.0
     60     61     62     84   5     0.00000     0.00000     1.25520  0.0
     60     61     62     85   5     0.00000     0.00000     1.25520  0.0
     82     61     62     63   5     0.00000     0.00000     1.25520  0.0
     82     61     62     84   5     0.00000     0.00000     1.25520  0.0
     82     61     62     85   5     0.00000     0.00000     1.25520  0.0
     83     61     62     63   5     0.00000     0.00000     1.25520  0.0
     83     61     62     84   5     0.00000     0.00000     1.25520  0.0
     83     61     62     85   5     0.00000     0.00000     1.25520  0.0
     61     62     63     64   5     4.74884    -0.63178     1.67360  0.0
     61     62     63     86   5     0.00000     0.00000     1.25520  0.0
     61     62     63     87   5     0.00000     0.00000     1.25520  0.0
     84     62     63     64   5     0.00000     0.00000     1.25520  0.0
     84     62     63     86   5     0.00000     0.00000     1.25520  0.0
     84     62     63     87   5     0.00000     0.00000     1.25520  0.0
     85     62     63     64   5     0.00000     0.00000     1.25520  0.0
     85     62     63     86   5     0.00000     0.00000     1.25520  0.0
     85     62     63     87   5     0.00000     0.00000     1.25520  0.0
     62     63     64     65   5     4.74884    -0.63178     1.67360  0.0
     62     63     64     88   5     0.00000     0.00000     1.25520  0.0
     62     63     64     89   5     0.00000     0.00000     1.25520  0.0
     86     63     64     65   5     0.00000     0.00000     1.25520  0.0
     86     63     64     88   5     0.00000     0.00000     1.25520  0.0
     86     63     64     89   5     0.00000     0.00000     1.25520  0.0
     87     63     64     65   5     0.00000     0.00000     1.25520  0.0
     87     63     64     88   5     0.00000     0.00000     1.25520  0.0
     87     63     64     89   5     0.00000     0.00000     1.25520  0.0
     63     64     65     66   5     4.74884    -0.63178     1.67360  0.0
     63     64     65     90   5     0.00000     0.00000     1.25520  0.0
     63     64     65     91   5     0.00000     0.00000     1.25520  0.0
     88     64     65     66   5     0.00000     0.00000     1.25520  0.0
     88     64     65     90   5     0.00000     0.00000     1.25520  0.0
     88     64     65     91   5     0.00000     0.00000     1.25520  0.0
     89     64     65     66   5     0.00000     0.00000     1.25520  0.0
     89     64     65     90   5     0.00000     0.00000     1.25520  0.0
     89     64     65     91   5     0.00000     0.00000     1.25520  0.0
     64     65     66     67   5     4.74884    -0.63178     1.67360  0.0
     64     65     66     92   5     0.00000     0.00000     1.25520  0.0
     64     65     66     93   5     0.00000     0.00000     1.25520  0.0
     90     65     66     67   5     0.00000     0.00000     1.25520  0.0
     90     65     66     92   5     0.00000     0.00000     1.25520  0.0
     90     65     66     93   5     0.00000     0.00000     1.25520  0.0
     91     65     66     67   5     0.00000     0.00000     1.25520  0.0
     91     65     66     92   5     0.00000     0.00000     1.25520  0.0
     91     65     66     93   5     0.00000     0.00000     1.25520  0.0
     65     66     67     68   5     4.74884    -0.63178     1.67360  0.0
     65     66     67     94   5     0.00000     0.00000     1.25520  0.0
     65     66     67     95   5     0.00000     0.00000     1.25520  0.0
     92     66     67     68   5     0.00000     0.00000     1.25520  0.0
     92     66     67     94   5     0.00000     0.00000     1.25520  0.0
     92     66     67     95   5     0.00000     0.00000     1.25520  0.0
     93     66     67     68   5     0.00000     0.00000     1.25520  0.0
     93     66     67     94   5     0.00000     0.00000     1.25520  0.0
     93     66     67     95   5     0.00000     0.00000     1.25520  0.0
     66     67     68     69   5     4.74884    -0.63178     1.67360  0.0
     66     67     68     96   5     0.00000     0.00000     1.25520  0.0
     66     67     68     97   5     0.00000     0.00000     1.25520  0.0
     94     67     68     69   5     0.00000     0.00000     1.25520  0.0
     94     67     68     96   5     0.00000     0.00000     1.25520  0.0
     94     67     68     97   5     0.00000     0.00000     1.25520  0.0
     95     67     68     69   5     0.00000     0.00000     1.25520  0.0
     95     67     68     96   5     0.00000     0.00000     1.25520  0.0
     95     67     68     97   5     0.00000     0.00000     1.25520  0.0
     67     68     69     70   5    -8.00818    -1.52298     2.46438  0.0
     67     68     69     98   5     0.00000     0.00000     1.25520  0.0
     67     68     69     99   5     0.00000     0.00000     1.25520  0.0
     96     68     69     70   5     0.00000     0.00000    -0.94140  0.0
     96     68     69     98   5     0.00000     0.00000     1.25520  0.0
     96     68     69     99   5     0.00000     0.00000     1.25520  0.0
     97     68     69     70   5     0.00000     0.00000    -0.94140  0.0
     97     68     69     98   5     0.00000     0.00000     1.25520  0.0
     97     68     69     99   5     0.00000     0.00000     1.25520  0.0
     68     69     70     71   5     0.00000     2.52295     0.00000  0.0
     68     69     70     72   5    11.69428    -0.66526    -1.56900  0.0
     98     69     70     71   5     0.00000     0.00000     0.00000  0.0
     98     69     70     72   5     0.00000     0.00000     0.00000  0.0
     99     69     70     71   5     0.00000     0.00000     0.00000  0.0
     99     69     70     72   5     0.00000     0.00000     0.00000  0.0
     69     70     72     73   5    12.53945    12.88254     0.00000  0.0
     69     70     72    100   5     0.00000    20.50160     0.00000  0.0
     71     70     72     73   5     0.00000    25.47638     0.00000  0.0
     71     70     72    100   5     0.00000    20.50160     0.00000  0.0
     70     72     73     74   5    -3.67774    -0.67781     0.28033  0.0
     70     72     73    101   5     0.00000     0.00000     0.00000  0.0
     70     72     73    102   5     0.00000     0.00000     0.00000  0.0
    100     72     73     74   5     0.00000     0.00000     0.00000  0.0
    100     72     73    101   5     0.00000     0.00000     0.00000  0.0
    100     72     73    102   5     0.00000     0.00000     0.00000  0.0
     72     73     74     75   5     3.67355     4.10869     2.37651  0.0
     72     73     74    103   5     0.00000     0.00000     1.25520  0.0
     72     73     74    104   5     0.00000     0.00000     1.25520  0.0
    101     73     74     75   5     0.00000     0.00000     1.25520  0.0
    101     73     74    103   5     0.00000     0.00000     1.25520  0.0
    101     73     74    104   5     0.00000     0.00000     1.25520  0.0
    102     73     74     75   5     0.00000     0.00000     1.25520  0.0
    102     73     74    103   5     0.00000     0.00000     1.25520  0.0
    102     73     74    104   5     0.00000     0.00000     1.25520  0.0
     73     74     75     76   5     4.74884    -0.63178     1.67360  0.0
     73     74     75    105   5     0.00000     0.00000     1.25520  0.0
     73     74     75    106   5     0.00000     0.00000     1.25520  0.0
    103     74     75     76   5     0.00000     0.00000     1.25520  0.0
    103     74     75    105   5     0.00000     0.00000     1.25520  0.0
    103     74     75    106   5     0.00000     0.00000     1.25520  0.0
    104     74     75     76   5     0.00000     0.00000     1.25520  0.0
    104     74     75    105   5     0.00000     0.00000     1.25520  0.0
    104     74     75    106   5     0.00000     0.00000     1.25520  0.0
     74     75     76     77   5     4.74884    -0.63178     1.67360  0.0
     74     75     76    107   5     0.00000     0.00000     1.25520  0.0
     74     75     76    108   5     0.00000     0.00000     1.25520  0.0
    105     75     76     77   5     0.00000     0.00000     1.25520  0.0
    105     75     76    107   5     0.00000     0.00000     1.25520  0.0
    105     75     76    108   5     0.00000     0.00000     1.25520  0.0
    106     75     76     77   5     0.00000     0.00000     1.25520  0.0
    106     75     76    107   5     0.00000     0.00000     1.25520  0.0
    106     75     76    108   5     0.00000     0.00000     1.25520  0.0
     75     76     77     78   5     4.74884    -0.63178     1.67360  0.0
     75     76     77    109   5     0.00000     0.00000     1.25520  0.0
     75     76     77    110   5     0.00000     0.00000     1.25520  0.0
    107     76     77     78   5     0.00000     0.00000     1.25520  0.0
    107     76     77    109   5     0.00000     0.00000     1.25520  0.0
    107     76     77    110   5     0.00000     0.00000     1.25520  0.0
    108     76     77     78   5     0.00000     0.00000     1.25520  0.0
    108     76     77    109   5     0.00000     0.00000     1.25520  0.0
    108     76     77    110   5     0.00000     0.00000     1.25520  0.0
     76     77     78     79   5     3.67355     4.10869     2.37651  0.0
     76     77     78    111   5     0.00000     0.00000     1.25520  0.0
     76     77     78    112   5     0.00000     0.00000     1.25520  0.0
    109     77     78     79   5     0.00000     0.00000     1.25520  0.0
    109     77     78    111   5     0.00000     0.00000     1.25520  0.0
    109     77     78    112   5     0.00000     0.00000     1.25520  0.0
    110     77     78     79   5     0.00000     0.00000     1.25520  0.0
    110     77     78    111   5     0.00000     0.00000     1.25520  0.0
    110     77     78    112   5     0.00000     0.00000     1.25520  0.0
     77     78     79    113   5     0.00000     0.00000     0.00000  0.0
     77     78     79    114   5    -3.67774    -0.67781     0.28033  0.0
    111     78     79    113   5     0.00000     0.00000     0.00000  0.0
    111     78     79    114   5     0.00000     0.00000     0.00000  0.0
    112     78     79    113   5     0.00000     0.00000     0.00000  0.0
    112     78     79    114   5     0.00000     0.00000     0.00000  0.0
     78     79    114    115   5     0.00000    25.47638     0.00000  0.0
     78     79    114    116   5    12.53945    12.88254     0.00000  0.0
    113     79    114    115   5     0.00000    20.50160     0.00000  0.0
    113     79    114    116   5     0.00000    20.50160     0.00000  0.0
     79    114    116    117   5    11.69428    -0.66526    -1.56900  0.0
     79    114    116    136   5     0.00000     0.00000     0.00000  0.0
     79    114    116    137   5     0.00000     0.00000     0.00000  0.0
    115    114    116    117   5     0.00000     2.52295     0.00000  0.0
    115    114    116    136   5     0.00000     0.00000     0.00000  0.0
    115    114    116    137   5     0.00000     0.00000     0.00000  0.0
    114    116    117    118   5    -8.00818    -1.52298     2.46438  0.0
    114    116    117    138   5     0.00000     0.00000    -0.94140  0.0
    114    116    117    139   5     0.00000     0.00000    -0.94140  0.0
    136    116    117    118   5     0.00000     0.00000     1.25520  0.0
    136    116    117    138   5     0.00000     0.00000     1.25520  0.0
    136    116    117    139   5     0.00000     0.00000     1.25520  0.0
    137    116    117    118   5     0.00000     0.00000     1.25520  0.0
    137    116    117    138   5     0.00000     0.00000     1.25520  0.0
    137    116    117    139   5     0.00000     0.00000     1.25520  0.0
    116    117    118    119   5     4.74884    -0.63178     1.67360  0.0
    116    117    118    140   5     0.00000     0.00000     1.25520  0.0
    116    117    118    141   5     0.00000     0.00000     1.25520  0.0
    138    117    118    119   5     0.00000     0.00000     1.25520  0.0
    138    117    118    140   5     0.00000     0.00000     1.25520  0.0
    138    117    118    141   5     0.00000     0.00000     1.25520  0.0
    139    117    118    119   5     0.00000     0.00000     1.25520  0.0
    139    117    118    140   5     0.00000     0.00000     1.25520  0.0
    139    117    118    141   5     0.00000     0.00000     1.25520  0.0
    117    118    119    120   5     4.74884    -0.63178     1.67360  0.0
    117    118    119    142   5     0.00000     0.00000     1.25520  0.0
    117    118    119    143   5     0.00000     0.00000     1.25520  0.0
    140    118    119    120   5     0.00000     0.00000     1.25520  0.0
    140    118    119    142   5     0.00000     0.00000     1.25520  0.0
    140    118    119    143   5     0.00000     0.00000     1.25520  0.0
    141    118    119    120   5     0.00000     0.00000     1.25520  0.0
    141    118    119    142   5     0.00000     0.00000     1.25520  0.0
    141    118    119    143   5     0.00000     0.00000     1.25520  0.0
    118    119    120    121   5     4.74884    -0.63178     1.67360  0.0
    118    119    120    144   5     0.00000     0.00000     1.25520  0.0
    118    119    120    145   5     0.00000     0.00000     1.25520  0.0
    142    119    120    121   5     0.00000     0.00000     1.25520  0.0
    142    119    120    144   5     0.00000     0.00000     1.25520  0.0
    142    119    120    145   5     0.00000     0.00000     1.25520  0.0
    143    119    120    121   5     0.00000     0.00000     1.25520  0.0
    143    119    120    144   5     0.00000     0.00000     1.25520  0.0
    143    119    120    145   5     0.00000     0.00000     1.25520  0.0
    119    120    121    122   5     4.74884    -0.63178     1.67360  0.0
    119    120    121    146   5     0.00000     0.00000     1.25520  0.0
    119    120    121    147   5     0.00000     0.00000     1.25520  0.0
    144    120    121    122   5     0.00000     0.00000     1.25520  0.0
    144    120    121    146   5     0.00000     0.00000     1.25520  0.0
    144    120    121    147   5     0.00000     0.00000     1.25520  0.0
    145    120    121    122   5     0.00000     0.00000     1.25520  0.0
    145    120    121    146   5     0.00000     0.00000     1.25520  0.0
    145    120    121    147   5     0.00000     0.00000     1.25520  0.0
    120    121    122    123   5     4.74884    -0.63178     1.67360  0.0
    120    121    122    148   5     0.00000     0.00000     1.25520  0.0
    120    121    122    149   5     0.00000     0.00000     1.25520  0.0
    146    121    122    123   5     0.00000     0.00000     1.25520  0.0
    146    121    122    148   5     0.00000     0.00000     1.25520  0.0
    146    121    122    149   5     0.00000     0.00000     1.25520  0.0
    147    121    122    123   5     0.00000     0.00000     1.25520  0.0
    147    121    122    148   5     0.00000     0.00000     1.25520  0.0
    147    121    122    149   5     0.00000     0.00000     1.25520  0.0
    121    122    123    124   5     4.74884    -0.63178     1.67360  0.0
    121    122    123    150   5     0.00000     0.00000     1.25520  0.0
    121    122    123    151   5     0.00000     0.00000     1.25520  0.0
    148    122    123    124   5     0.00000     0.00000     1.25520  0.0
    148    122    123    150   5     0.00000     0.00000     1.25520  0.0
    148    122    123    151   5     0.00000     0.00000     1.25520  0.0
    149    122    123    124   5     0.00000     0.00000     1.25520  0.0
    149    122    123    150   5     0.00000     0.00000     1.25520  0.0
    149    122    123    151   5     0.00000     0.00000     1.25520  0.0
    122    123    124    125   5     4.74884    -0.63178     1.67360  0.0
    122    123    124    152   5     0.00000     0.00000     1.25520  0.0
    122    123    124    153   5     0.00000     0.00000     1.25520  0.0
    150    123    124    125   5     0.00000     0.00000     1.25520  0.0
    150    123    124    152   5     0.00000     0.00000     1.25520  0.0
    150    123    124    153   5     0.00000     0.00000     1.25520  0.0
    151    123    124    125   5     0.00000     0.00000     1.25520  0.0
    151    123    124    152   5     0.00000     0.00000     1.25520  0.0
    151    123    124    153   5     0.00000     0.00000     1.25520  0.0
    123    124    125    126   5    -8.00818    -1.52298     2.46438  0.0
    123    124    125    154   5     0.00000     0.00000     1.25520  0.0
    123    124    125    155   5     0.00000     0.00000     1.25520  0.0
    152    124    125    126   5     0.00000     0.00000    -0.94140  0.0
    152    124    125    154   5     0.00000     0.00000     1.25520  0.0
    152    124    125    155   5     0.00000     0.00000     1.25520  0.0
    153    124    125    126   5     0.00000     0.00000    -0.94140  0.0
    153    124    125    154   5     0.00000     0.00000     1.25520  0.0
    153    124    125    155   5     0.00000     0.00000     1.25520  0.0
    124    125    126    127   5     0.00000     2.52295     0.00000  0.0
    124    125    126    128   5    11.69428    -0.66526    -1.56900  0.0
    154    125    126    127   5     0.00000     0.00000     0.00000  0.0
    154    125    126    128   5     0.00000     0.00000     0.00000  0.0
    155    125    126    127   5     0.00000     0.00000     0.00000  0.0
    155    125    126    128   5     0.00000     0.00000     0.00000  0.0
    125    126    128    129   5    12.53945    12.88254     0.00000  0.0
    125    126    128    156   5     0.00000    20.50160     0.00000  0.0
    127    126    128    129   5     0.00000    25.47638     0.00000  0.0
    127    126    128    156   5     0.00000    20.50160     0.00000  0.0
    126    128    129    130   5    -3.67774    -0.67781     0.28033  0.0
    126    128    129    157   5     0.00000     0.00000     0.00000  0.0
    126    128    129    158   5     0.00000     0.00000     0.00000  0.0
    156    128    129    130   5     0.00000     0.00000     0.00000  0.0
    156    128    129    157   5     0.00000     0.00000     0.00000  0.0
    156    128    129    158   5     0.00000     0.00000     0.00000  0.0
    128    129    130    131   5     3.67355     4.10869     2.37651  0.0
    128    129    130    159   5     0.00000     0.00000     1.25520  0.0
    128    129    130    160   5     0.00000     0.00000     1.25520  0.0
    157    129    130    131   5     0.00000     0.00000     1.25520  0.0
    157    129    130    159   5     0.00000     0.00000     1.25520  0.0
    157    129    130    160   5     0.00000     0.00000     1.25520  0.0
    158    129    130    131   5     0.00000     0.00000     1.25520  0.0
    158    129    130    159   5     0.00000     0.00000     1.25520  0.0
    158    129    130    160   5     0.00000     0.00000     1.25520  0.0
    129    130    131    132   5     4.74884    -0.63178     1.67360  0.0
    129    130    131    161   5     0.00000     0.00000     1.25520  0.0
    129    130    131    162   5     0.00000     0.00000     1.25520  0.0
    159    130    131    132   5     0.00000     0.00000     1.25520  0.0
    159    130    131    161   5     0.00000     0.00000     1.25520  0.0
    159    130    131    162   5     0.00000     0.00000     1.25520  0.0
    160    130    131    132   5     0.00000     0.00000     1.25520  0.0
    160    130    131    161   5     0.00000     0.00000     1.25520  0.0
    160    130    131    162   5     0.00000     0.00000     1.25520  0.0
    130    131    132    133   5     4.74884    -0.63178     1.67360  0.0
    130    131    132    163   5     0.00000     0.00000     1.25520  0.0
    130    131    132    164   5     0.00000     0.00000     1.25520  0.0
    161    131    132    133   5     0.00000     0.00000     1.25520  0.0
    161    131    132    163   5     0.00000     0.00000     1.25520  0.0
    161    131    132    164   5     0.00000     0.00000     1.25520  0.0
    162    131    132    133   5     0.00000     0.00000     1.25520  0.0
    162    131    132    163   5     0.00000     0.00000     1.25520  0.0
    162    131    132    164   5     0.00000     0.00000     1.25520  0.0
    131    132    133    134   5     4.74884    -0.63178     1.67360  0.0
    131    132    133    165   5     0.00000     0.00000     1.25520  0.0
    131    132    133    166   5     0.00000     0.00000     1.25520  0.0
    163    132    133    134   5     0.00000     0.00000     1.25520  0.0
    163    132    133    165   5     0.00000     0.00000     1.25520  0.0
    163    132    133    166   5     0.00000     0.00000     1.25520  0.0
    164    132    133    134   5     0.00000     0.00000     1.25520  0.0
    164    132    133    165   5     0.00000     0.00000     1.25520  0.0
    164    132    133    166   5     0.00000     0.00000     1.25520  0.0
    132    133    134    135   5     3.67355     4.10869     2.37651  0.0
    132    133    134    167   5     0.00000     0.00000     1.25520  0.0
    132    133    134    168   5     0.00000     0.00000     1.25520  0.0
    165    133    134    135   5     0.00000     0.00000     1.25520  0.0
    165    133    134    167   5     0.00000     0.00000     1.25520  0.0
    165    133    134    168   5     0.00000     0.00000     1.25520  0.0
    166    133    134    135   5     0.00000     0.00000     1.25520  0.0
    166    133    134    167   5     0.00000     0.00000     1.25520  0.0
    166    133    134    168   5     0.00000     0.00000     1.25520  0.0
    133    134    135    169   5     0.00000     0.00000     0.00000  0.0
    133    134    135    170   5    -3.67774    -0.67781     0.28033  0.0
    167    134    135    169   5     0.00000     0.00000     0.00000  0.0
    167    134    135    170   5     0.00000     0.00000     0.00000  0.0
    168    134    135    169   5     0.00000     0.00000     0.00000  0.0
    168    134    135    170   5     0.00000     0.00000     0.00000  0.0
    134    135    170    171   5     0.00000    25.47638     0.00000  0.0
    134    135    170    172   5    12.53945    12.88254     0.00000  0.0
    169    135    170    171   5     0.00000    20.50160     0.00000  0.0
    169    135    170    172   5     0.00000    20.50160     0.00000  0.0
    135    170    172    173   5    11.69428    -0.66526    -1.56900  0.0
    135    170    172    192   5     0.00000     0.00000     0.00000  0.0
    135    170    172    193   5     0.00000     0.00000     0.00000  0.0
    171    170    172    173   5     0.00000     2.52295     0.00000  0.0
    171    170    172    192   5     0.00000     0.00000     0.00000  0.0
    171    170    172    193   5     0.00000     0.00000     0.00000  0.0
    170    172    173    174   5    -8.00818    -1.52298     2.46438  0.0
    170    172    173    194   5     0.00000     0.00000    -0.94140  0.0
    170    172    173    195   5     0.00000     0.00000    -0.94140  0.0
    192    172    173    174   5     0.00000     0.00000     1.25520  0.0
    192    172    173    194   5     0.00000     0.00000     1.25520  0.0
    192    172    173    195   5     0.00000     0.00000     1.25520  0.0
    193    172    173    174   5     0.00000     0.00000     1.25520  0.0
    193    172    173    194   5     0.00000     0.00000     1.25520  0.0
    193    172    173    195   5     0.00000     0.00000     1.25520  0.0
    172    173    174    175   5     4.74884    -0.63178     1.67360  0.0
    172    173    174    196   5     0.00000     0.00000     1.25520  0.0
    172    173    174    197   5     0.00000     0.00000     1.25520  0.0
    194    173    174    175   5     0.00000     0.00000     1.25520  0.0
    194    173    174    196   5     0.00000     0.00000     1.25520  0.0
    194    173    174    197   5     0.00000     0.00000     1.25520  0.0
    195    173    174    175   5     0.00000     0.00000     1.25520  0.0
    195    173    174    196   5     0.00000     0.00000     1.25520  0.0
    195    173    174    197   5     0.00000     0.00000     1.25520  0.0
    173    174    175    176   5     4.74884    -0.63178     1.67360  0.0
    173    174    175    198   5     0.00000     0.00000     1.25520  0.0
    173    174    175    199   5     0.00000     0.00000     1.25520  0.0
    196    174    175    176   5     0.00000     0.00000     1.25520  0.0
    196    174    175    198   5     0.00000     0.00000     1.25520  0.0
    196    174    175    199   5     0.00000     0.00000     1.25520  0.0
    197    174    175    176   5     0.00000     0.00000     1.25520  0.0
    197    174    175    198   5     0.00000     0.00000     1.25520  0.0
    197    174    175    199   5     0.00000     0.00000     1.25520  0.0
    174    175    176    177   5     4.74884    -0.63178     1.67360  0.0
    174    175    176    200   5     0.00000     0.00000     1.25520  0.0
    174    175    176    201   5     0.00000     0.00000     1.25520  0.0
    198    175    176    177   5     0.00000     0.00000     1.25520  0.0
    198    175    176    200   5     0.00000     0.00000     1.25520  0.0
    198    175    176    201   5     0.00000     0.00000     1.25520  0.0
    199    175    176    177   5     0.00000     0.00000     1.25520  0.0
    199    175    176    200   5     0.00000     0.00000     1.25520  0.0
    199    175    176    201   5     0.00000     0.00000     1.25520  0.0
    175    176    177    178   5     4.74884    -0.63178     1.67360  0.0
    175    176    177    202   5     0.00000     0.00000     1.25520  0.0
    175    176    177    203   5     0.00000     0.00000     1.25520  0.0
    200    176    177    178   5     0.00000     0.00000     1.25520  0.0
    200    176    177    202   5     0.00000     0.00000     1.25520  0.0
    200    176    177    203   5     0.00000     0.00000     1.25520  0.0
    201    176    177    178   5     0.00000     0.00000     1.25520  0.0
    201    176    177    202   5     0.00000     0.00000     1.25520  0.0
    201    176    177    203   5     0.00000     0.00000     1.25520  0.0
    176    177    178    179   5     4.74884    -0.63178     1.67360  0.0
    176    177    178    204   5     0.00000     0.00000     1.25520  0.0
    176    177    178    205   5     0.00000     0.00000     1.25520  0.0
    202    177    178    179   5     0.00000     0.00000     1.25520  0.0
    202    177    178    204   5     0.00000     0.00000     1.25520  0.0
    202    177    178    205   5     0.00000     0.00000     1.25520  0.0
    203    177    178    179   5     0.00000     0.00000     1.25520  0.0
    203    177    178    204   5     0.00000     0.00000     1.25520  0.0
    203    177    178    205   5     0.00000     0.00000     1.25520  0.0
    177    178    179    180   5     4.74884    -0.63178     1.67360  0.0
    177    178    179    206   5     0.00000     0.00000     1.25520  0.0
    177    178    179    207   5     0.00000     0.00000     1.25520  0.0
    204    178    179    180   5     0.00000     0.00000     1.25520  0.0
    204    178    179    206   5     0.00000     0.00000     1.25520  0.0
    204    178    179    207   5     0.00000     0.00000     1.25520  0.0
    205    178    179    180   5     0.00000     0.00000     1.25520  0.0
    205    178    179    206   5     0.00000     0.00000     1.25520  0.0
    205    178    179    207   5     0.00000     0.00000     1.25520  0.0
    178    179    180    181   5     4.74884    -0.63178     1.67360  0.0
    178    179    180    208   5     0.00000     0.00000     1.25520  0.0
    178    179    180    209   5     0.00000     0.00000     1.25520  0.0
    206    179    180    181   5     0.00000     0.00000     1.25520  0.0
    206    179    180    208   5     0.00000     0.00000     1.25520  0.0
    206    179    180    209   5     0.00000     0.00000     1.25520  0.0
    207    179    180    181   5     0.00000     0.00000     1.25520  0.0
    207    179    180    208   5     0.00000     0.00000     1.25520  0.0
    207    179    180    209   5     0.00000     0.00000     1.25520  0.0
    179    180    181    182   5    -8.00818    -1.52298     2.46438  0.0
    179    180    181    210   5     0.00000     0.00000     1.25520  0.0
    179    180    181    211   5     0.00000     0.00000     1.25520  0.0
    208    180    181    182   5     0.00000     0.00000    -0.94140  0.0
    208    180    181    210   5     0.00000     0.00000     1.25520  0.0
    208    180    181    211   5     0.00000     0.00000     1.25520  0.0
    209    180    181    182   5     0.00000     0.00000    -0.94140  0.0
    209    180    181    210   5     0.00000     0.00000     1.25520  0.0
    209    180    181    211   5     0.00000     0.00000     1.25520  0.0
    180    181    182    183   5     0.00000     2.52295     0.00000  0.0
    180    181    182    184   5    11.69428    -0.66526    -1.56900  0.0
    210    181    182    183   5     0.00000     0.00000     0.00000  0.0
    210    181    182    184   5     0.00000     0.00000     0.00000  0.0
    211    181    182    183   5     0.00000     0.00000     0.00000  0.0
    211    181    182    184   5     0.00000     0.00000     0.00000  0.0
    181    182    184    185   5    12.53945    12.88254     0.00000  0.0
    181    182    184    212   5     0.00000    20.50160     0.00000  0.0
    183    182    184    185   5     0.00000    25.47638     0.00000  0.0
    183    182    184    212   5     0.00000    20.50160     0.00000  0.0
    182    184    185    186   5    -3.67774    -0.67781     0.28033  0.0
    182    184    185    213   5     0.00000     0.00000     0.00000  0.0
    182    184    185    214   5     0.00000     0.00000     0.00000  0.0
    212    184    185    186   5     0.00000     0.00000     0.00000  0.0
    212    184    185    213   5     0.00000     0.00000     0.00000  0.0
    212    184    185    214   5     0.00000     0.00000     0.00000  0.0
    184    185    186    187   5     3.67355     4.10869     2.37651  0.0
    184    185    186    215   5     0.00000     0.00000     1.25520  0.0
    184    185    186    216   5     0.00000     0.00000     1.25520  0.0
    213    185    186    187   5     0.00000     0.00000     1.25520  0.0
    213    185    186    215   5     0.00000     0.00000     1.25520  0.0
    213    185    186    216   5     0.00000     0.00000     1.25520  0.0
    214    185    186    187   5     0.00000     0.00000     1.25520  0.0
    214    185    186    215   5     0.00000     0.00000     1.25520  0.0
    214    185    186    216   5     0.00000     0.00000     1.25520  0.0
    185    186    187    188   5     4.74884    -0.63178     1.67360  0.0
    185    186    187    217   5     0.00000     0.00000     1.25520  0.0
    185    186    187    218   5     0.00000     0.00000     1.25520  0.0
    215    186    187    188   5     0.00000     0.00000     1.25520  0.0
    215    186    187    217   5     0.00000     0.00000     1.25520  0.0
    215    186    187    218   5     0.00000     0.00000     1.25520  0.0
    216    186    187    188   5     0.00000     0.00000     1.25520  0.0
    216    186    187    217   5     0.00000     0.00000     1.25520  0.0
    216    186    187    218   5     0.00000     0.00000     1.25520  0.0
    186    187    188    189   5     4.74884    -0.63178     1.67360  0.0
    186    187    188    219   5     0.00000     0.00000     1.25520  0.0
    186    187    188    220   5     0.00000     0.00000     1.25520  0.0
    217    187    188    189   5     0.00000     0.00000     1.25520  0.0
    217    187    188    219   5     0.00000     0.00000     1.25520  0.0
    217    187    188    220   5     0.00000     0.00000     1.25520  0.0
    218    187    188    189   5     0.00000     0.00000     1.25520  0.0
    218    187    188    219   5     0.00000     0.00000     1.25520  0.0
    218    187    188    220   5     0.00000     0.00000     1.25520  0.0
    187    188    189    190   5     4.74884    -0.63178     1.67360  0.0
    187    188    189    221   5     0.00000     0.00000     1.25520  0.0
    187    188    189    222   5     0.00000     0.00000     1.25520  0.0
    219    188    189    190   5     0.00000     0.00000     1.25520  0.0
    219    188    189    221   5     0.00000     0.00000     1.25520  0.0
    219    188    189    222   5     0.00000     0.00000     1.25520  0.0
    220    188    189    190   5     0.00000     0.00000     1.25520  0.0
    220    188    189    221   5     0.00000     0.00000     1.25520  0.0
    220    188    189    222   5     0.00000     0.00000     1.25520  0.0
    188    189    190    191   5     3.67355     4.10869     2.37651  0.0
    188    189    190    223   5     0.00000     0.00000     1.25520  0.0
    188    189    190    224   5     0.00000     0.00000     1.25520  0.0
    221    189    190    191   5     0.00000     0.00000     1.25520  0.0
    221    189    190    223   5     0.00000     0.00000     1.25520  0.0
    221    189    190    224   5     0.00000     0.00000     1.25520  0.0
    222    189    190    191   5     0.00000     0.00000     1.25520  0.0
    222    189    190    223   5     0.00000     0.00000     1.25520  0.0
    222    189    190    224   5     0.00000     0.00000     1.25520  0.0
    189    190    191    225   5     0.00000     0.00000     0.00000  0.0
    189    190    191    226   5    -3.67774    -0.67781     0.28033  0.0
    223    190    191    225   5     0.00000     0.00000     0.00000  0.0
    223    190    191    226   5     0.00000     0.00000     0.00000  0.0
    224    190    191    225   5     0.00000     0.00000     0.00000  0.0
    224    190    191    226   5     0.00000     0.00000     0.00000  0.0
    190    191    226    227   5     0.00000    25.47638     0.00000  0.0
    190    191    226    228   5    12.53945    12.88254     0.00000  0.0
    225    191    226    227   5     0.00000    20.50160     0.00000  0.0
    225    191    226    228   5     0.00000    20.50160     0.00000  0.0
    191    226    228    229   5    11.69428    -0.66526    -1.56900  0.0
    191    226    228    248   5     0.00000     0.00000     0.00000  0.0
    191    226    228    249   5     0.00000     0.00000     0.00000  0.0
    227    226    228    229   5     0.00000     2.52295     0.00000  0.0
    227    226    228    248   5     0.00000     0.00000     0.00000  0.0
    227    226    228    249   5     0.00000     0.00000     0.00000  0.0
    226    228    229    230   5    -8.00818    -1.52298     2.46438  0.0
    226    228    229    250   5     0.00000     0.00000    -0.94140  0.0
    226    228    229    251   5     0.00000     0.00000    -0.94140  0.0
    248    228    229    230   5     0.00000     0.00000     1.25520  0.0
    248    228    229    250   5     0.00000     0.00000     1.25520  0.0
    248    228    229    251   5     0.00000     0.00000     1.25520  0.0
    249    228    229    230   5     0.00000     0.00000     1.25520  0.0
    249    228    229    250   5     0.00000     0.00000     1.25520  0.0
    249    228    229    251   5     0.00000     0.00000     1.25520  0.0
    228    229    230    231   5     4.74884    -0.63178     1.67360  0.0
    228    229    230    252   5     0.00000     0.00000     1.25520  0.0
    228    229    230    253   5     0.00000     0.00000     1.25520  0.0
    250    229    230    231   5     0.00000     0.00000     1.25520  0.0
    250    229    230    252   5     0.00000     0.00000     1.25520  0.0
    250    229    230    253   5     0.00000     0.00000     1.25520  0.0
    251    229    230    231   5     0.00000     0.00000     1.25520  0.0
    251    229    230    252   5     0.00000     0.00000     1.25520  0.0
    251    229    230    253   5     0.00000     0.00000     1.25520  0.0
    229    230    231    232   5     4.74884    -0.63178     1.67360  0.0
    229    230    231    254   5     0.00000     0.00000     1.25520  0.0
    229    230    231    255   5     0.00000     0.00000     1.25520  0.0
    252    230    231    232   5     0.00000     0.00000     1.25520  0.0
    252    230    231    254   5     0.00000     0.00000     1.25520  0.0
    252    230    231    255   5     0.00000     0.00000     1.25520  0.0
    253    230    231    232   5     0.00000     0.00000     1.25520  0.0
    253    230    231    254   5     0.00000     0.00000     1.25520  0.0
    253    230    231    255   5     0.00000     0.00000     1.25520  0.0
    230    231    232    233   5     4.74884    -0.63178     1.67360  0.0
    230    231    232    256   5     0.00000     0.00000     1.25520  0.0
    230    231    232    257   5     0.00000     0.00000     1.25520  0.0
    254    231    232    233   5     0.00000     0.00000     1.25520  0.0
    254    231    232    256   5     0.00000     0.00000     1.25520  0.0
    254    231    232    257   5     0.00000     0.00000     1.25520  0.0
    255    231    232    233   5     0.00000     0.00000     1.25520  0.0
    255    231    232    256   5     0.00000     0.00000     1.25520  0.0
    255    231    232    257   5     0.00000     0.00000     1.25520  0.0
    231    232    233    234   5     4.74884    -0.63178     1.67360  0.0
    231    232    233    258   5     0.00000     0.00000     1.25520  0.0
    231    232    233    259   5     0.00000     0.00000     1.25520  0.0
    256    232    233    234   5     0.00000     0.00000     1.25520  0.0
    256    232    233    258   5     0.00000     0.00000     1.25520  0.0
    256    232    233    259   5     0.00000     0.00000     1.25520  0.0
    257    232    233    234   5     0.00000     0.00000     1.25520  0.0
    257    232    233    258   5     0.00000     0.00000     1.25520  0.0
    257    232    233    259   5     0.00000     0.00000     1.25520  0.0
    232    233    234    235   5     4.74884    -0.63178     1.67360  0.0
    232    233    234    260   5     0.00000     0.00000     1.25520  0.0
    232    233    234    261   5     0.00000     0.00000     1.25520  0.0
    258    233    234    235   5     0.00000     0.00000     1.25520  0.0
    258    233    234    260   5     0.00000     0.00000     1.25520  0.0
    258    233    234    261   5     0.00000     0.00000     1.25520  0.0
    259    233    234    235   5     0.00000     0.00000     1.25520  0.0
    259    233    234    260   5     0.00000     0.00000     1.25520  0.0
    259    233    234    261   5     0.00000     0.00000     1.25520  0.0
    233    234    235    236   5     4.74884    -0.63178     1.67360  0.0
    233    234    235    262   5     0.00000     0.00000     1.25520  0.0
    233    234    235    263   5     0.00000     0.00000     1.25520  0.0
    260    234    235    236   5     0.00000     0.00000     1.25520  0.0
    260    234    235    262   5     0.00000     0.00000     1.25520  0.0
    260    234    235    263   5     0.00000     0.00000     1.25520  0.0
    261    234    235    236   5     0.00000     0.00000     1.25520  0.0
    261    234    235    262   5     0.00000     0.00000     1.25520  0.0
    261    234    235    263   5     0.00000     0.00000     1.25520  0.0
    234    235    236    237   5     4.74884    -0.63178     1.67360  0.0
    234    235    236    264   5     0.00000     0.00000     1.25520  0.0
    234    235    236    265   5     0.00000     0.00000     1.25520  0.0
    262    235    236    237   5     0.00000     0.00000     1.25520  0.0
    262    235    236    264   5     0.00000     0.00000     1.25520  0.0
    262    235    236    265   5     0.00000     0.00000     1.25520  0.0
    263    235    236    237   5     0.00000     0.00000     1.25520  0.0
    263    235    236    264   5     0.00000     0.00000     1.25520  0.0
    263    235    236    265   5     0.00000     0.00000     1.25520  0.0
    235    236    237    238   5    -8.00818    -1.52298     2.46438  0.0
    235    236    237    266   5     0.00000     0.00000     1.25520  0.0
    235    236    237    267   5     0.00000     0.00000     1.25520  0.0
    264    236    237    238   5     0.00000     0.00000    -0.94140  0.0
    264    236    237    266   5     0.00000     0.00000     1.25520  0.0
    264    236    237    267   5     0.00000     0.00000     1.25520  0.0
    265    236    237    238   5     0.00000     0.00000    -0.94140  0.0
    265    236    237    266   5     0.00000     0.00000     1.25520  0.0
    265    236    237    267   5     0.00000     0.00000     1.25520  0.0
    236    237    238    239   5     0.00000     2.52295     0.00000  0.0
    236    237    238    240   5    11.69428    -0.66526    -1.56900  0.0
    266    237    238    239   5     0.00000     0.00000     0.00000  0.0
    266    237    238    240   5     0.00000     0.00000     0.00000  0.0
    267    237    238    239   5     0.00000     0.00000     0.00000  0.0
    267    237    238    240   5     0.00000     0.00000     0.00000  0.0
    237    238    240    241   5    12.53945    12.88254     0.00000  0.0
    237    238    240    268   5     0.00000    20.50160     0.00000  0.0
    239    238    240    241   5     0.00000    25.47638     0.00000  0.0
    239    238    240    268   5     0.00000    20.50160     0.00000  0.0
    238    240    241    242   5    -3.67774    -0.67781     0.28033  0.0
    238    240    241    269   5     0.00000     0.00000     0.00000  0.0
    238    240    241    270   5     0.00000     0.00000     0.00000  0.0
    268    240    241    242   5     0.00000     0.00000     0.00000  0.0
    268    240    241    269   5     0.00000     0.00000     0.00000  0.0
    268    240    241    270   5     0.00000     0.00000     0.00000  0.0
    240    241    242    243   5     3.67355     4.10869     2.37651  0.0
    240    241    242    271   5     0.00000     0.00000     1.25520  0.0
    240    241    242    272   5     0.00000     0.00000     1.25520  0.0
    269    241    242    243   5     0.00000     0.00000     1.25520  0.0
    269    241    242    271   5     0.00000     0.00000     1.25520  0.0
    269    241    242    272   5     0.00000     0.00000     1.25520  0.0
    270    241    242    243   5     0.00000     0.00000     1.25520  0.0
    270    241    242    271   5     0.00000     0.00000     1.25520  0.0
    270    241    242    272   5     0.00000     0.00000     1.25520  0.0
    241    242    243    244   5     4.74884    -0.63178     1.67360  0.0
    241    242    243    273   5     0.00000     0.00000     1.25520  0.0
    241    242    243    274   5     0.00000     0.00000     1.25520  0.0
    271    242    243    244   5     0.00000     0.00000     1.25520  0.0
    271    242    243    273   5     0.00000     0.00000     1.25520  0.0
    271    242    243    274   5     0.00000     0.00000     1.25520  0.0
    272    242    243    244   5     0.00000     0.00000     1.25520  0.0
    272    242    243    273   5     0.00000     0.00000     1.25520  0.0
    272    242    243    274   5     0.00000     0.00000     1.25520  0.0
    242    243    244    245   5     4.74884    -0.63178     1.67360  0.0
    242    243    244    275   5     0.00000     0.00000     1.25520  0.0
    242    243    244    276   5     0.00000     0.00000     1.25520  0.0
    273    243    244    245   5     0.00000     0.00000     1.25520  0.0
    273    243    244    275   5     0.00000     0.00000     1.25520  0.0
    273    243    244    276   5     0.00000     0.00000     1.25520  0.0
    274    243    244    245   5     0.00000     0.00000     1.25520  0.0
    274    243    244    275   5     0.00000     0.00000     1.25520  0.0
    274    243    244    276   5     0.00000     0.00000     1.25520  0.0
    243    244    245    246   5     4.74884    -0.63178     1.67360  0.0
    243    244    245    277   5     0.00000     0.00000     1.25520  0.0
    243    244    245    278   5     0.00000     0.00000     1.25520  0.0
    275    244    245    246   5     0.00000     0.00000     1.25520  0.0
    275    244    245    277   5     0.00000     0.00000     1.25520  0.0
    275    244    245    278   5     0.00000     0.00000     1.25520  0.0
    276    244    245    246   5     0.00000     0.00000     1.25520  0.0
    276    244    245    277   5     0.00000     0.00000     1.25520  0.0
    276    244    245    278   5     0.00000     0.00000     1.25520  0.0
    244    245    246    247   5     3.67355     4.10869     2.37651  0.0
    244    245    246    279   5     0.00000     0.00000     1.25520  0.0
    244    245    246    280   5     0.00000     0.00000     1.25520  0.0
    277    245    246    247   5     0.00000     0.00000     1.25520  0.0
    277    245    246    279   5     0.00000     0.00000     1.25520  0.0
    277    245    246    280   5     0.00000     0.00000     1.25520  0.0
    278    245    246    247   5     0.00000     0.00000     1.25520  0.0
    278    245    246    279   5     0.00000     0.00000     1.25520  0.0
    278    245    246    280   5     0.00000     0.00000     1.25520  0.0
    245    246    247    281   5     0.00000     0.00000     0.00000  0.0
    245    246    247    282   5    -3.67774    -0.67781     0.28033  0.0
    279    246    247    281   5     0.00000     0.00000     0.00000  0.0
    279    246    247    282   5     0.00000     0.00000     0.00000  0.0
    280    246    247    281   5     0.00000     0.00000     0.00000  0.0
    280    246    247    282   5     0.00000     0.00000     0.00000  0.0
    246    247    282    283   5     0.00000    25.47638     0.00000  0.0
    246    247    282    284   5    12.53945    12.88254     0.00000  0.0
    281    247    282    283   5     0.00000    20.50160     0.00000  0.0
    281    247    282    284   5     0.00000    20.50160     0.00000  0.0
    247    282    284    285   5    11.69428    -0.66526    -1.56900  0.0
    247    282    284    304   5     0.00000     0.00000     0.00000  0.0
    247    282    284    305   5     0.00000     0.00000     0.00000  0.0
    283    282    284    285   5     0.00000     2.52295     0.00000  0.0
    283    282    284    304   5     0.00000     0.00000     0.00000  0.0
    283    282    284    305   5     0.00000     0.00000     0.00000  0.0
    282    284    285    286   5    -8.00818    -1.52298     2.46438  0.0
    282    284    285    306   5     0.00000     0.00000    -0.94140  0.0
    282    284    285    307   5     0.00000     0.00000    -0.94140  0.0
    304    284    285    286   5     0.00000     0.00000     1.25520  0.0
    304    284    285    306   5     0.00000     0.00000     1.25520  0.0
    304    284    285    307   5     0.00000     0.00000     1.25520  0.0
    305    284    285    286   5     0.00000     0.00000     1.25520  0.0
    305    284    285    306   5     0.00000     0.00000     1.25520  0.0
    305    284    285    307   5     0.00000     0.00000     1.25520  0.0
    284    285    286    287   5     4.74884    -0.63178     1.67360  0.0
    284    285    286    308   5     0.00000     0.00000     1.25520  0.0
    284    285    286    309   5     0.00000     0.00000     1.25520  0.0
    306    285    286    287   5     0.00000     0.00000     1.25520  0.0
    306    285    286    308   5     0.00000     0.00000     1.25520  0.0
    306    285    286    309   5     0.00000     0.00000     1.25520  0.0
    307    285    286    287   5     0.00000     0.00000     1.25520  0.0
    307    285    286    308   5     0.00000     0.00000     1.25520  0.0
    307    285    286    309   5     0.00000     0.00000     1.25520  0.0
    285    286    287    288   5     4.74884    -0.63178     1.67360  0.0
    285    286    287    310   5     0.00000     0.00000     1.25520  0.0
    285    286    287    311   5     0.00000     0.00000     1.25520  0.0
    308    286    287    288   5     0.00000     0.00000     1.25520  0.0
    308    286    287    310   5     0.00000     0.00000     1.25520  0.0
    308    286    287    311   5     0.00000     0.00000     1.25520  0.0
    309    286    287    288   5     0.00000     0.00000     1.25520  0.0
    309    286    287    310   5     0.00000     0.00000     1.25520  0.0
    309    286    287    311   5     0.00000     0.00000     1.25520  0.0
    286    287    288    289   5     4.74884    -0.63178     1.67360  0.0
    286    287    288    312   5     0.00000     0.00000     1.25520  0.0
    286    287    288    313   5     0.00000     0.00000     1.25520  0.0
    310    287    288    289   5     0.00000     0.00000     1.25520  0.0
    310    287    288    312   5     0.00000     0.00000     1.25520  0.0
    310    287    288    313   5     0.00000     0.00000     1.25520  0.0
    311    287    288    289   5     0.00000     0.00000     1.25520  0.0
    311    287    288    312   5     0.00000     0.00000     1.25520  0.0
    311    287    288    313   5     0.00000     0.00000     1.25520  0.0
    287    288    289    290   5     4.74884    -0.63178     1.67360  0.0
    287    288    289    314   5     0.00000     0.00000     1.25520  0.0
    287    288    289    315   5     0.00000     0.00000     1.25520  0.0
    312    288    289    290   5     0.00000     0.00000     1.25520  0.0
    312    288    289    314   5     0.00000     0.00000     1.25520  0.0
    312    288    289    315   5     0.00000     0.00000     1.25520  0.0
    313    288    289    290   5     0.00000     0.00000     1.25520  0.0
    313    288    289    314   5     0.00000     0.00000     1.25520  0.0
    313    288    289    315   5     0.00000     0.00000     1.25520  0.0
    288    289    290    291   5     4.74884    -0.63178     1.67360  0.0
    288    289    290    316   5     0.00000     0.00000     1.25520  0.0
    288    289    290    317   5     0.00000     0.00000     1.25520  0.0
    314    289    290    291   5     0.00000     0.00000     1.25520  0.0
    314    289    290    316   5     0.00000     0.00000     1.25520  0.0
    314    289    290    317   5     0.00000     0.00000     1.25520  0.0
    315    289    290    291   5     0.00000     0.00000     1.25520  0.0
    315    289    290    316   5     0.00000     0.00000     1.25520  0.0
    315    289    290    317   5     0.00000     0.00000     1.25520  0.0
    289    290    291    292   5     4.74884    -0.63178     1.67360  0.0
    289    290    291    318   5     0.00000     0.00000     1.25520  0.0
    289    290    291    319   5     0.00000     0.00000     1.25520  0.0
    316    290    291    292   5     0.00000     0.00000     1.25520  0.0
    316    290    291    318   5     0.00000     0.00000     1.25520  0.0
    316    290    291    319   5     0.00000     0.00000     1.25520  0.0
    317    290    291    292   5     0.00000     0.00000     1.25520  0.0
    317    290    291    318   5     0.00000     0.00000     1.25520  0.0
    317    290    291    319   5     0.00000     0.00000     1.25520  0.0
    290    291    292    293   5     4.74884    -0.63178     1.67360  0.0
    290    291    292    320   5     0.00000     0.00000     1.25520  0.0
    290    291    292    321   5     0.00000     0.00000     1.25520  0.0
    318    291    292    293   5     0.00000     0.00000     1.25520  0.0
    318    291    292    320   5     0.00000     0.00000     1.25520  0.0
    318    291    292    321   5     0.00000     0.00000     1.25520  0.0
    319    291    292    293   5     0.00000     0.00000     1.25520  0.0
    319    291    292    320   5     0.00000     0.00000     1.25520  0.0
    319    291    292    321   5     0.00000     0.00000     1.25520  0.0
    291    292    293    294   5    -8.00818    -1.52298     2.46438  0.0
    291    292    293    322   5     0.00000     0.00000     1.25520  0.0
    291    292    293    323   5     0.00000     0.00000     1.25520  0.0
    320    292    293    294   5     0.00000     0.00000    -0.94140  0.0
    320    292    293    322   5     0.00000     0.00000     1.25520  0.0
    320    292    293    323   5     0.00000     0.00000     1.25520  0.0
    321    292    293    294   5     0.00000     0.00000    -0.94140  0.0
    321    292    293    322   5     0.00000     0.00000     1.25520  0.0
    321    292    293    323   5     0.00000     0.00000     1.25520  0.0
    292    293    294    295   5     0.00000     2.52295     0.00000  0.0
    292    293    294    296   5    11.69428    -0.66526    -1.56900  0.0
    322    293    294    295   5     0.00000     0.00000     0.00000  0.0
    322    293    294    296   5     0.00000     0.00000     0.00000  0.0
    323    293    294    295   5     0.00000     0.00000     0.00000  0.0
    323    293    294    296   5     0.00000     0.00000     0.00000  0.0
    293    294    296    297   5    12.53945    12.88254     0.00000  0.0
    293    294    296    324   5     0.00000    20.50160     0.00000  0.0
    295    294    296    297   5     0.00000    25.47638     0.00000  0.0
    295    294    296    324   5     0.00000    20.50160     0.00000  0.0
    294    296    297    298   5    -3.67774    -0.67781     0.28033  0.0
    294    296    297    325   5     0.00000     0.00000     0.00000  0.0
    294    296    297    326   5     0.00000     0.00000     0.00000  0.0
    324    296    297    298   5     0.00000     0.00000     0.00000  0.0
    324    296    297    325   5     0.00000     0.00000     0.00000  0.0
    324    296    297    326   5     0.00000     0.00000     0.00000  0.0
    296    297    298    299   5     3.67355     4.10869     2.37651  0.0
    296    297    298    327   5     0.00000     0.00000     1.25520  0.0
    296    297    298    328   5     0.00000     0.00000     1.25520  0.0
    325    297    298    299   5     0.00000     0.00000     1.25520  0.0
    325    297    298    327   5     0.00000     0.00000     1.25520  0.0
    325    297    298    328   5     0.00000     0.00000     1.25520  0.0
    326    297    298    299   5     0.00000     0.00000     1.25520  0.0
    326    297    298    327   5     0.00000     0.00000     1.25520  0.0
    326    297    298    328   5     0.00000     0.00000     1.25520  0.0
    297    298    299    300   5     4.74884    -0.63178     1.67360  0.0
    297    298    299    329   5     0.00000     0.00000     1.25520  0.0
    297    298    299    330   5     0.00000     0.00000     1.25520  0.0
    327    298    299    300   5     0.00000     0.00000     1.25520  0.0
    327    298    299    329   5     0.00000     0.00000     1.25520  0.0
    327    298    299    330   5     0.00000     0.00000     1.25520  0.0
    328    298    299    300   5     0.00000     0.00000     1.25520  0.0
    328    298    299    329   5     0.00000     0.00000     1.25520  0.0
    328    298    299    330   5     0.00000     0.00000     1.25520  0.0
    298    299    300    301   5     4.74884    -0.63178     1.67360  0.0
    298    299    300    331   5     0.00000     0.00000     1.25520  0.0
    298    299    300    332   5     0.00000     0.00000     1.25520  0.0
    329    299    300    301   5     0.00000     0.00000     1.25520  0.0
    329    299    300    331   5     0.00000     0.00000     1.25520  0.0
    329    299    300    332   5     0.00000     0.00000     1.25520  0.0
    330    299    300    301   5     0.00000     0.00000     1.25520  0.0
    330    299    300    331   5     0.00000     0.00000     1.25520  0.0
    330    299    300    332   5     0.00000     0.00000     1.25520  0.0
    299    300    301    302   5     4.74884    -0.63178     1.67360  0.0
    299    300    301    333   5     0.00000     0.00000     1.25520  0.0
    299    300    301    334   5     0.00000     0.00000     1.25520  0.0
    331    300    301    302   5     0.00000     0.00000     1.25520  0.0
    331    300    301    333   5     0.00000     0.00000     1.25520  0.0
    331    300    301    334   5     0.00000     0.00000     1.25520  0.0
    332    300    301    302   5     0.00000     0.00000     1.25520  0.0
    332    300    301    333   5     0.00000     0.00000     1.25520  0.0
    332    300    301    334   5     0.00000     0.00000     1.25520  0.0
    300    301    302    303   5     3.67355     4.10869     2.37651  0.0
    300    301    302    335   5     0.00000     0.00000     1.25520  0.0
    300    301    302    336   5     0.00000     0.00000     1.25520  0.0
    333    301    302    303   5     0.00000     0.00000     1.25520  0.0
    333    301    302    335   5     0.00000     0.00000     1.25520  0.0
    333    301    302    336   5     0.00000     0.00000     1.25520  0.0
    334    301    302    303   5     0.00000     0.00000     1.25520  0.0
    334    301    302    335   5     0.00000     0.00000     1.25520  0.0
    334    301    302    336   5     0.00000     0.00000     1.25520  0.0
    301    302    303    337   5     0.00000     0.00000     0.00000  0.0
    301    302    303    338   5    -3.67774    -0.67781     0.28033  0.0
    335    302    303    337   5     0.00000     0.00000     0.00000  0.0
    335    302    303    338   5     0.00000     0.00000     0.00000  0.0
    336    302    303    337   5     0.00000     0.00000     0.00000  0.0
    336    302    303    338   5     0.00000     0.00000     0.00000  0.0
    302    303    338    339   5     0.00000    25.47638     0.00000  0.0
    302    303    338    340   5    12.53945    12.88254     0.00000  0.0
    337    303    338    339   5     0.00000    20.50160     0.00000  0.0
    337    303    338    340   5     0.00000    20.50160     0.00000  0.0
    303    338    340    341   5    11.69428    -0.66526    -1.56900  0.0
    303    338    340    360   5     0.00000     0.00000     0.00000  0.0
    303    338    340    361   5     0.00000     0.00000     0.00000  0.0
    339    338    340    341   5     0.00000     2.52295     0.00000  0.0
    339    338    340    360   5     0.00000     0.00000     0.00000  0.0
    339    338    340    361   5     0.00000     0.00000     0.00000  0.0
    338    340    341    342   5    -8.00818    -1.52298     2.46438  0.0
    338    340    341    362   5     0.00000     0.00000    -0.94140  0.0
    338    340    341    363   5     0.00000     0.00000    -0.94140  0.0
    360    340    341    342   5     0.00000     0.00000     1.25520  0.0
    360    340    341    362   5     0.00000     0.00000     1.25520  0.0
    360    340    341    363   5     0.00000     0.00000     1.25520  0.0
    361    340    341    342   5     0.00000     0.00000     1.25520  0.0
    361    340    341    362   5     0.00000     0.00000     1.25520  0.0
    361    340    341    363   5     0.00000     0.00000     1.25520  0.0
    340    341    342    343   5     4.74884    -0.63178     1.67360  0.0
    340    341    342    364   5     0.00000     0.00000     1.25520  0.0
    340    341    342    365   5     0.00000     0.00000     1.25520  0.0
    362    341    342    343   5     0.00000     0.00000     1.25520  0.0
    362    341    342    364   5     0.00000     0.00000     1.25520  0.0
    362    341    342    365   5     0.00000     0.00000     1.25520  0.0
    363    341    342    343   5     0.00000     0.00000     1.25520  0.0
    363    341    342    364   5     0.00000     0.00000     1.25520  0.0
    363    341    342    365   5     0.00000     0.00000     1.25520  0.0
    341    342    343    344   5     4.74884    -0.63178     1.67360  0.0
    341    342    343    366   5     0.00000     0.00000     1.25520  0.0
    341    342    343    367   5     0.00000     0.00000     1.25520  0.0
    364    342    343    344   5     0.00000     0.00000     1.25520  0.0
    364    342    343    366   5     0.00000     0.00000     1.25520  0.0
    364    342    343    367   5     0.00000     0.00000     1.25520  0.0
    365    342    343    344   5     0.00000     0.00000     1.25520  0.0
    365    342    343    366   5     0.00000     0.00000     1.25520  0.0
    365    342    343    367   5     0.00000     0.00000     1.25520  0.0
    342    343    344    345   5     4.74884    -0.63178     1.67360  0.0
    342    343    344    368   5     0.00000     0.00000     1.25520  0.0
    342    343    344    369   5     0.00000     0.00000     1.25520  0.0
    366    343    344    345   5     0.00000     0.00000     1.25520  0.0
    366    343    344    368   5     0.00000     0.00000     1.25520  0.0
    366    343    344    369   5     0.00000     0.00000     1.25520  0.0
    367    343    344    345   5     0.00000     0.00000     1.25520  0.0
    367    343    344    368   5     0.00000     0.00000     1.25520  0.0
    367    343    344    369   5     0.00000     0.00000     1.25520  0.0
    343    344    345    346   5     4.74884    -0.63178     1.67360  0.0
    343    344    345    370   5     0.00000     0.00000     1.25520  0.0
    343    344    345    371   5     0.00000     0.00000     1.25520  0.0
    368    344    345    346   5     0.00000     0.00000     1.25520  0.0
    368    344    345    370   5     0.00000     0.00000     1.25520  0.0
    368    344    345    371   5     0.00000     0.00000     1.25520  0.0
    369    344    345    346   5     0.00000     0.00000     1.25520  0.0
    369    344    345    370   5     0.00000     0.00000     1.25520  0.0
    369    344    345    371   5     0.00000     0.00000     1.25520  0.0
    344    345    346    347   5     4.74884    -0.63178     1.67360  0.0
    344    345    346    372   5     0.00000     0.00000     1.25520  0.0
    344    345    346    373   5     0.00000     0.00000     1.25520  0.0
    370    345    346    347   5     0.00000     0.00000     1.25520  0.0
    370    345    346    372   5     0.00000     0.00000     1.25520  0.0
    370    345    346    373   5     0.00000     0.00000     1.25520  0.0
    371    345    346    347   5     0.00000     0.00000     1.25520  0.0
    371    345    346    372   5     0.00000     0.00000     1.25520  0.0
    371    345    346    373   5     0.00000     0.00000     1.25520  0.0
    345    346    347    348   5     4.74884    -0.63178     1.67360  0.0
    345    346    347    374   5     0.00000     0.00000     1.25520  0.0
    345    346    347    375   5     0.00000     0.00000     1.25520  0.0
    372    346    347    348   5     0.00000     0.00000     1.25520  0.0
    372    346    347    374   5     0.00000     0.00000     1.25520  0.0
    372    346    347    375   5     0.00000     0.00000     1.25520  0.0
    373    346    347    348   5     0.00000     0.00000     1.25520  0.0
    373    346    347    374   5     0.00000     0.00000     1.25520  0.0
    373    346    347    375   5     0.00000     0.00000     1.25520  0.0
    346    347    348    349   5     4.74884    -0.63178     1.67360  0.0
    346    347    348    376   5     0.00000     0.00000     1.25520  0.0
    346    347    348    377   5     0.00000     0.00000     1.25520  0.0
    374    347    348    349   5     0.00000     0.00000     1.25520  0.0
    374    347    348    376   5     0.00000     0.00000     1.25520  0.0
    374    347    348    377   5     0.00000     0.00000     1.25520  0.0
    375    347    348    349   5     0.00000     0.00000     1.25520  0.0
    375    347    348    376   5     0.00000     0.00000     1.25520  0.0
    375    347    348    377   5     0.00000     0.00000     1.25520  0.0
    347    348    349    350   5    -8.00818    -1.52298     2.46438  0.0
    347    348    349    378   5     0.00000     0.00000     1.25520  0.0
    347    348    349    379   5     0.00000     0.00000     1.25520  0.0
    376    348    349    350   5     0.00000     0.00000    -0.94140  0.0
    376    348    349    378   5     0.00000     0.00000     1.25520  0.0
    376    348    349    379   5     0.00000     0.00000     1.25520  0.0
    377    348    349    350   5     0.00000     0.00000    -0.94140  0.0
    377    348    349    378   5     0.00000     0.00000     1.25520  0.0
    377    348    349    379   5     0.00000     0.00000     1.25520  0.0
    348    349    350    351   5     0.00000     2.52295     0.00000  0.0
    348    349    350    352   5    11.69428    -0.66526    -1.56900  0.0
    378    349    350    351   5     0.00000     0.00000     0.00000  0.0
    378    349    350    352   5     0.00000     0.00000     0.00000  0.0
    379    349    350    351   5     0.00000     0.00000     0.00000  0.0
    379    349    350    352   5     0.00000     0.00000     0.00000  0.0
    349    350    352    353   5    12.53945    12.88254     0.00000  0.0
    349    350    352    380   5     0.00000    20.50160     0.00000  0.0
    351    350    352    353   5     0.00000    25.47638     0.00000  0.0
    351    350    352    380   5     0.00000    20.50160     0.00000  0.0
    350    352    353    354   5    -3.67774    -0.67781     0.28033  0.0
    350    352    353    381   5     0.00000     0.00000     0.00000  0.0
    350    352    353    382   5     0.00000     0.00000     0.00000  0.0
    380    352    353    354   5     0.00000     0.00000     0.00000  0.0
    380    352    353    381   5     0.00000     0.00000     0.00000  0.0
    380    352    353    382   5     0.00000     0.00000     0.00000  0.0
    352    353    354    355   5     3.67355     4.10869     2.37651  0.0
    352    353    354    383   5     0.00000     0.00000     1.25520  0.0
    352    353    354    384   5     0.00000     0.00000     1.25520  0.0
    381    353    354    355   5     0.00000     0.00000     1.25520  0.0
    381    353    354    383   5     0.00000     0.00000     1.25520  0.0
    381    353    354    384   5     0.00000     0.00000     1.25520  0.0
    382    353    354    355   5     0.00000     0.00000     1.25520  0.0
    382    353    354    383   5     0.00000     0.00000     1.25520  0.0
    382    353    354    384   5     0.00000     0.00000     1.25520  0.0
    353    354    355    356   5     4.74884    -0.63178     1.67360  0.0
    353    354    355    385   5     0.00000     0.00000     1.25520  0.0
    353    354    355    386   5     0.00000     0.00000     1.25520  0.0
    383    354    355    356   5     0.00000     0.00000     1.25520  0.0
    383    354    355    385   5     0.00000     0.00000     1.25520  0.0
    383    354    355    386   5     0.00000     0.00000     1.25520  0.0
    384    354    355    356   5     0.00000     0.00000     1.25520  0.0
    384    354    355    385   5     0.00000     0.00000     1.25520  0.0
    384    354    355    386   5     0.00000     0.00000     1.25520  0.0
    354    355    356    357   5     4.74884    -0.63178     1.67360  0.0
    354    355    356    387   5     0.00000     0.00000     1.25520  0.0
    354    355    356    388   5     0.00000     0.00000     1.25520  0.0
    385    355    356    357   5     0.00000     0.00000     1.25520  0.0
    385    355    356    387   5     0.00000     0.00000     1.25520  0.0
    385    355    356    388   5     0.00000     0.00000     1.25520  0.0
    386    355    356    357   5     0.00000     0.00000     1.25520  0.0
    386    355    356    387   5     0.00000     0.00000     1.25520  0.0
    386    355    356    388   5     0.00000     0.00000     1.25520  0.0
    355    356    357    358   5     4.74884    -0.63178     1.67360  0.0
    355    356    357    389   5     0.00000     0.00000     1.25520  0.0
    355    356    357    390   5     0.00000     0.00000     1.25520  0.0
    387    356    357    358   5     0.00000     0.00000     1.25520  0.0
    387    356    357    389   5     0.00000     0.00000     1.25520  0.0
    387    356    357    390   5     0.00000     0.00000     1.25520  0.0
    388    356    357    358   5     0.00000     0.00000     1.25520  0.0
    388    356    357    389   5     0.00000     0.00000     1.25520  0.0
    388    356    357    390   5     0.00000     0.00000     1.25520  0.0
    356    357    358    359   5     3.67355     4.10869     2.37651  0.0
    356    357    358    391   5     0.00000     0.00000     1.25520  0.0
    356    357    358    392   5     0.00000     0.00000     1.25520  0.0
    389    357    358    359   5     0.00000     0.00000     1.25520  0.0
    389    357    358    391   5     0.00000     0.00000     1.25520  0.0
    389    357    358    392   5     0.00000     0.00000     1.25520  0.0
    390    357    358    359   5     0.00000     0.00000     1.25520  0.0
    390    357    358    391   5     0.00000     0.00000     1.25520  0.0
    390    357    358    392   5     0.00000     0.00000     1.25520  0.0
    357    358    359    393   5     0.00000     0.00000     0.00000  0.0
    357    358    359    394   5    -3.67774    -0.67781     0.28033  0.0
    391    358    359    393   5     0.00000     0.00000     0.00000  0.0
    391    358    359    394   5     0.00000     0.00000     0.00000  0.0
    392    358    359    393   5     0.00000     0.00000     0.00000  0.0
    392    358    359    394   5     0.00000     0.00000     0.00000  0.0
    358    359    394    395   5     0.00000    25.47638     0.00000  0.0
    358    359    394    396   5    12.53945    12.88254     0.00000  0.0
    393    359    394    395   5     0.00000    20.50160     0.00000  0.0
    393    359    394    396   5     0.00000    20.50160     0.00000  0.0
    359    394    396    397   5    11.69428    -0.66526    -1.56900  0.0
    359    394    396    416   5     0.00000     0.00000     0.00000  0.0
    359    394    396    417   5     0.00000     0.00000     0.00000  0.0
    395    394    396    397   5     0.00000     2.52295     0.00000  0.0
    395    394    396    416   5     0.00000     0.00000     0.00000  0.0
    395    394    396    417   5     0.00000     0.00000     0.00000  0.0
    394    396    397    398   5    -8.00818    -1.52298     2.46438  0.0
    394    396    397    418   5     0.00000     0.00000    -0.94140  0.0
    394    396    397    419   5     0.00000     0.00000    -0.94140  0.0
    416    396    397    398   5     0.00000     0.00000     1.25520  0.0
    416    396    397    418   5     0.00000     0.00000     1.25520  0.0
    416    396    397    419   5     0.00000     0.00000     1.25520  0.0
    417    396    397    398   5     0.00000     0.00000     1.25520  0.0
    417    396    397    418   5     0.00000     0.00000     1.25520  0.0
    417    396    397    419   5     0.00000     0.00000     1.25520  0.0
    396    397    398    399   5     4.74884    -0.63178     1.67360  0.0
    396    397    398    420   5     0.00000     0.00000     1.25520  0.0
    396    397    398    421   5     0.00000     0.00000     1.25520  0.0
    418    397    398    399   5     0.00000     0.00000     1.25520  0.0
    418    397    398    420   5     0.00000     0.00000     1.25520  0.0
    418    397    398    421   5     0.00000     0.00000     1.25520  0.0
    419    397    398    399   5     0.00000     0.00000     1.25520  0.0
    419    397    398    420   5     0.00000     0.00000     1.25520  0.0
    419    397    398    421   5     0.00000     0.00000     1.25520  0.0
    397    398    399    400   5     4.74884    -0.63178     1.67360  0.0
    397    398    399    422   5     0.00000     0.00000     1.25520  0.0
    397    398    399    423   5     0.00000     0.00000     1.25520  0.0
    420    398    399    400   5     0.00000     0.00000     1.25520  0.0
    420    398    399    422   5     0.00000     0.00000     1.25520  0.0
    420    398    399    423   5     0.00000     0.00000     1.25520  0.0
    421    398    399    400   5     0.00000     0.00000     1.25520  0.0
    421    398    399    422   5     0.00000     0.00000     1.25520  0.0
    421    398    399    423   5     0.00000     0.00000     1.25520  0.0
    398    399    400    401   5     4.74884    -0.63178     1.67360  0.0
    398    399    400    424   5     0.00000     0.00000     1.25520  0.0
    398    399    400    425   5     0.00000     0.00000     1.25520  0.0
    422    399    400    401   5     0.00000     0.00000     1.25520  0.0
    422    399    400    424   5     0.00000     0.00000     1.25520  0.0
    422    399    400    425   5     0.00000     0.00000     1.25520  0.0
    423    399    400    401   5     0.00000     0.00000     1.25520  0.0
    423    399    400    424   5     0.00000     0.00000     1.25520  0.0
    423    399    400    425   5     0.00000     0.00000     1.25520  0.0
    399    400    401    402   5     4.74884    -0.63178     1.67360  0.0
    399    400    401    426   5     0.00000     0.00000     1.25520  0.0
    399    400    401    427   5     0.00000     0.00000     1.25520  0.0
    424    400    401    402   5     0.00000     0.00000     1.25520  0.0
    424    400    401    426   5     0.00000     0.00000     1.25520  0.0
    424    400    401    427   5     0.00000     0.00000     1.25520  0.0
    425    400    401    402   5     0.00000     0.00000     1.25520  0.0
    425    400    401    426   5     0.00000     0.00000     1.25520  0.0
    425    400    401    427   5     0.00000     0.00000     1.25520  0.0
    400    401    402    403   5     4.74884    -0.63178     1.67360  0.0
    400    401    402    428   5     0.00000     0.00000     1.25520  0.0
    400    401    402    429   5     0.00000     0.00000     1.25520  0.0
    426    401    402    403   5     0.00000     0.00000     1.25520  0.0
    426    401    402    428   5     0.00000     0.00000     1.25520  0.0
    426    401    402    429   5     0.00000     0.00000     1.25520  0.0
    427    401    402    403   5     0.00000     0.00000     1.25520  0.0
    427    401    402    428   5     0.00000     0.00000     1.25520  0.0
    427    401    402    429   5     0.00000     0.00000     1.25520  0.0
    401    402    403    404   5     4.74884    -0.63178     1.67360  0.0
    401    402    403    430   5     0.00000     0.00000     1.25520  0.0
    401    402    403    431   5     0.00000     0.00000     1.25520  0.0
    428    402    403    404   5     0.00000     0.00000     1.25520  0.0
    428    402    403    430   5     0.00000     0.00000     1.25520  0.0
    428    402    403    431   5     0.00000     0.00000     1.25520  0.0
    429    402    403    404   5     0.00000     0.00000     1.25520  0.0
    429    402    403    430   5     0.00000     0.00000     1.25520  0.0
    429    402    403    431   5     0.00000     0.00000     1.25520  0.0
    402    403    404    405   5     4.74884    -0.63178     1.67360  0.0
    402    403    404    432   5     0.00000     0.00000     1.25520  0.0
    402    403    404    433   5     0.00000     0.00000     1.25520  0.0
    430    403    404    405   5     0.00000     0.00000     1.25520  0.0
    430    403    404    432   5     0.00000     0.00000     1.25520  0.0
    430    403    404    433   5     0.00000     0.00000     1.25520  0.0
    431    403    404    405   5     0.00000     0.00000     1.25520  0.0
    431    403    404    432   5     0.00000     0.00000     1.25520  0.0
    431    403    404    433   5     0.00000     0.00000     1.25520  0.0
    403    404    405    406   5    -8.00818    -1.52298     2.46438  0.0
    403    404    405    434   5     0.00000     0.00000     1.25520  0.0
    403    404    405    435   5     0.00000     0.00000     1.25520  0.0
    432    404    405    406   5     0.00000     0.00000    -0.94140  0.0
    432    404    405    434   5     0.00000     0.00000     1.25520  0.0
    432    404    405    435   5     0.00000     0.00000     1.25520  0.0
    433    404    405    406   5     0.00000     0.00000    -0.94140  0.0
    433    404    405    434   5     0.00000     0.00000     1.25520  0.0
    433    404    405    435   5     0.00000     0.00000     1.25520  0.0
    404    405    406    407   5     0.00000     2.52295     0.00000  0.0
    404    405    406    408   5    11.69428    -0.66526    -1.56900  0.0
    434    405    406    407   5     0.00000     0.00000     0.00000  0.0
    434    405    406    408   5     0.00000     0.00000     0.00000  0.0
    435    405    406    407   5     0.00000     0.00000     0.00000  0.0
    435    405    406    408   5     0.00000     0.00000     0.00000  0.0
    405    406    408    409   5    12.53945    12.88254     0.00000  0.0
    405    406    408    436   5     0.00000    20.50160     0.00000  0.0
    407    406    408    409   5     0.00000    25.47638     0.00000  0.0
    407    406    408    436   5     0.00000    20.50160     0.00000  0.0
    406    408    409    410   5    -3.67774    -0.67781     0.28033  0.0
    406    408    409    437   5     0.00000     0.00000     0.00000  0.0
    406    408    409    438   5     0.00000     0.00000     0.00000  0.0
    436    408    409    410   5     0.00000     0.00000     0.00000  0.0
    436    408    409    437   5     0.00000     0.00000     0.00000  0.0
    436    408    409    438   5     0.00000     0.00000     0.00000  0.0
    408    409    410    411   5     3.67355     4.10869     2.37651  0.0
    408    409    410    439   5     0.00000     0.00000     1.25520  0.0
    408    409    410    440   5     0.00000     0.00000     1.25520  0.0
    437    409    410    411   5     0.00000     0.00000     1.25520  0.0
    437    409    410    439   5     0.00000     0.00000     1.25520  0.0
    437    409    410    440   5     0.00000     0.00000     1.25520  0.0
    438    409    410    411   5     0.00000     0.00000     1.25520  0.0
    438    409    410    439   5     0.00000     0.00000     1.25520  0.0
    438    409    410    440   5     0.00000     0.00000     1.25520  0.0
    409    410    411    412   5     4.74884    -0.63178     1.67360  0.0
    409    410    411    441   5     0.00000     0.00000     1.25520  0.0
    409    410    411    442   5     0.00000     0.00000     1.25520  0.0
    439    410    411    412   5     0.00000     0.00000     1.25520  0.0
    439    410    411    441   5     0.00000     0.00000     1.25520  0.0
    439    410    411    442   5     0.00000     0.00000     1.25520  0.0
    440    410    411    412   5     0.00000     0.00000     1.25520  0.0
    440    410    411    441   5     0.00000     0.00000     1.25520  0.0
    440    410    411    442   5     0.00000     0.00000     1.25520  0.0
    410    411    412    413   5     4.74884    -0.63178     1.67360  0.0
    410    411    412    443   5     0.00000     0.00000     1.25520  0.0
    410    411    412    444   5     0.00000     0.00000     1.25520  0.0
    441    411    412    413   5     0.00000     0.00000     1.25520  0.0
    441    411    412    443   5     0.00000     0.00000     1.25520  0.0
    441    411    412    444   5     0.00000     0.00000     1.25520  0.0
    442    411    412    413   5     0.00000     0.00000     1.25520  0.0
    442    411    412    443   5     0.00000     0.00000     1.25520  0.0
    442    411    412    444   5     0.00000     0.00000     1.25520  0.0
    411    412    413    414   5     4.74884    -0.63178     1.67360  0.0
    411    412    413    445   5     0.00000     0.00000     1.25520  0.0
    411    412    413    446   5     0.00000     0.00000     1.25520  0.0
    443    412    413    414   5     0.00000     0.00000     1.25520  0.0
    443    412    413    445   5     0.00000     0.00000     1.25520  0.0
    443    412    413    446   5     0.00000     0.00000     1.25520  0.0
    444    412    413    414   5     0.00000     0.00000     1.25520  0.0
    444    412    413    445   5     0.00000     0.00000     1.25520  0.0
    444    412    413    446   5     0.00000     0.00000     1.25520  0.0
    412    413    414    415   5     3.67355     4.10869     2.37651  0.0
    412    413    414    447   5     0.00000     0.00000     1.25520  0.0
    412    413    414    448   5     0.00000     0.00000     1.25520  0.0
    445    413    414    415   5     0.00000     0.00000     1.25520  0.0
    445    413    414    447   5     0.00000     0.00000     1.25520  0.0
    445    413    414    448   5     0.00000     0.00000     1.25520  0.0
    446    413    414    415   5     0.00000     0.00000     1.25520  0.0
    446    413    414    447   5     0.00000     0.00000     1.25520  0.0
    446    413    414    448   5     0.00000     0.00000     1.25520  0.0
    413    414    415    449   5     0.00000     0.00000     0.00000  0.0
    413    414    415    450   5    -3.67774    -0.67781     0.28033  0.0
    447    414    415    449   5     0.00000     0.00000     0.00000  0.0
    447    414    415    450   5     0.00000     0.00000     0.00000  0.0
    448    414    415    449   5     0.00000     0.00000     0.00000  0.0
    448    414    415    450   5     0.00000     0.00000     0.00000  0.0
    414    415    450    451   5     0.00000    25.47638     0.00000  0.0
    414    415    450    452   5    12.53945    12.88254     0.00000  0.0
    449    415    450    451   5     0.00000    20.50160     0.00000  0.0
    449    415    450    452   5     0.00000    20.50160     0.00000  0.0
    415    450    452    453   5    11.69428    -0.66526    -1.56900  0.0
    415    450    452    472   5     0.00000     0.00000     0.00000  0.0
    415    450    452    473   5     0.00000     0.00000     0.00000  0.0
    451    450    452    453   5     0.00000     2.52295     0.00000  0.0
    451    450    452    472   5     0.00000     0.00000     0.00000  0.0
    451    450    452    473   5     0.00000     0.00000     0.00000  0.0
    450    452    453    454   5    -8.00818    -1.52298     2.46438  0.0
    450    452    453    474   5     0.00000     0.00000    -0.94140  0.0
    450    452    453    475   5     0.00000     0.00000    -0.94140  0.0
    472    452    453    454   5     0.00000     0.00000     1.25520  0.0
    472    452    453    474   5     0.00000     0.00000     1.25520  0.0
    472    452    453    475   5     0.00000     0.00000     1.25520  0.0
    473    452    453    454   5     0.00000     0.00000     1.25520  0.0
    473    452    453    474   5     0.00000     0.00000     1.25520  0.0
    473    452    453    475   5     0.00000     0.00000     1.25520  0.0
    452    453    454    455   5     4.74884    -0.63178     1.67360  0.0
    452    453    454    476   5     0.00000     0.00000     1.25520  0.0
    452    453    454    477   5     0.00000     0.00000     1.25520  0.0
    474    453    454    455   5     0.00000     0.00000     1.25520  0.0
    474    453    454    476   5     0.00000     0.00000     1.25520  0.0
    474    453    454    477   5     0.00000     0.00000     1.25520  0.0
    475    453    454    455   5     0.00000     0.00000     1.25520  0.0
    475    453    454    476   5     0.00000     0.00000     1.25520  0.0
    475    453    454    477   5     0.00000     0.00000     1.25520  0.0
    453    454    455    456   5     4.74884    -0.63178     1.67360  0.0
    453    454    455    478   5     0.00000     0.00000     1.25520  0.0
    453    454    455    479   5     0.00000     0.00000     1.25520  0.0
    476    454    455    456   5     0.00000     0.00000     1.25520  0.0
    476    454    455    478   5     0.00000     0.00000     1.25520  0.0
    476    454    455    479   5     0.00000     0.00000     1.25520  0.0
    477    454    455    456   5     0.00000     0.00000     1.25520  0.0
    477    454    455    478   5     0.00000     0.00000     1.25520  0.0
    477    454    455    479   5     0.00000     0.00000     1.25520  0.0
    454    455    456    457   5     4.74884    -0.63178     1.67360  0.0
    454    455    456    480   5     0.00000     0.00000     1.25520  0.0
    454    455    456    481   5     0.00000     0.00000     1.25520  0.0
    478    455    456    457   5     0.00000     0.00000     1.25520  0.0
    478    455    456    480   5     0.00000     0.00000     1.25520  0.0
    478    455    456    481   5     0.00000     0.00000     1.25520  0.0
    479    455    456    457   5     0.00000     0.00000     1.25520  0.0
    479    455    456    480   5     0.00000     0.00000     1.25520  0.0
    479    455    456    481   5     0.00000     0.00000     1.25520  0.0
    455    456    457    458   5     4.74884    -0.63178     1.67360  0.0
    455    456    457    482   5     0.00000     0.00000     1.25520  0.0
    455    456    457    483   5     0.00000     0.00000     1.25520  0.0
    480    456    457    458   5     0.00000     0.00000     1.25520  0.0
    480    456    457    482   5     0.00000     0.00000     1.25520  0.0
    480    456    457    483   5     0.00000     0.00000     1.25520  0.0
    481    456    457    458   5     0.00000     0.00000     1.25520  0.0
    481    456    457    482   5     0.00000     0.00000     1.25520  0.0
    481    456    457    483   5     0.00000     0.00000     1.25520  0.0
    456    457    458    459   5     4.74884    -0.63178     1.67360  0.0
    456    457    458    484   5     0.00000     0.00000     1.25520  0.0
    456    457    458    485   5     0.00000     0.00000     1.25520  0.0
    482    457    458    459   5     0.00000     0.00000     1.25520  0.0
    482    457    458    484   5     0.00000     0.00000     1.25520  0.0
    482    457    458    485   5     0.00000     0.00000     1.25520  0.0
    483    457    458    459   5     0.00000     0.00000     1.25520  0.0
    483    457    458    484   5     0.00000     0.00000     1.25520  0.0
    483    457    458    485   5     0.00000     0.00000     1.25520  0.0
    457    458    459    460   5     4.74884    -0.63178     1.67360  0.0
    457    458    459    486   5     0.00000     0.00000     1.25520  0.0
    457    458    459    487   5     0.00000     0.00000     1.25520  0.0
    484    458    459    460   5     0.00000     0.00000     1.25520  0.0
    484    458    459    486   5     0.00000     0.00000     1.25520  0.0
    484    458    459    487   5     0.00000     0.00000     1.25520  0.0
    485    458    459    460   5     0.00000     0.00000     1.25520  0.0
    485    458    459    486   5     0.00000     0.00000     1.25520  0.0
    485    458    459    487   5     0.00000     0.00000     1.25520  0.0
    458    459    460    461   5     4.74884    -0.63178     1.67360  0.0
    458    459    460    488   5     0.00000     0.00000     1.25520  0.0
    458    459    460    489   5     0.00000     0.00000     1.25520  0.0
    486    459    460    461   5     0.00000     0.00000     1.25520  0.0
    486    459    460    488   5     0.00000     0.00000     1.25520  0.0
    486    459    460    489   5     0.00000     0.00000     1.25520  0.0
    487    459    460    461   5     0.00000     0.00000     1.25520  0.0
    487    459    460    488   5     0.00000     0.00000     1.25520  0.0
    487    459    460    489   5     0.00000     0.00000     1.25520  0.0
    459    460    461    462   5    -8.00818    -1.52298     2.46438  0.0
    459    460    461    490   5     0.00000     0.00000     1.25520  0.0
    459    460    461    491   5     0.00000     0.00000     1.25520  0.0
    488    460    461    462   5     0.00000     0.00000    -0.94140  0.0
    488    460    461    490   5     0.00000     0.00000     1.25520  0.0
    488    460    461    491   5     0.00000     0.00000     1.25520  0.0
    489    460    461    462   5     0.00000     0.00000    -0.94140  0.0
    489    460    461    490   5     0.00000     0.00000     1.25520  0.0
    489    460    461    491   5     0.00000     0.00000     1.25520  0.0
    460    461    462    463   5     0.00000     2.52295     0.00000  0.0
    460    461    462    464   5    11.69428    -0.66526    -1.56900  0.0
    490    461    462    463   5     0.00000     0.00000     0.00000  0.0
    490    461    462    464   5     0.00000     0.00000     0.00000  0.0
    491    461    462    463   5     0.00000     0.00000     0.00000  0.0
    491    461    462    464   5     0.00000     0.00000     0.00000  0.0
    461    462    464    465   5    12.53945    12.88254     0.00000  0.0
    461    462    464    492   5     0.00000    20.50160     0.00000  0.0
    463    462    464    465   5     0.00000    25.47638     0.00000  0.0
    463    462    464    492   5     0.00000    20.50160     0.00000  0.0
    462    464    465    466   5    -3.67774    -0.67781     0.28033  0.0
    462    464    465    493   5     0.00000     0.00000     0.00000  0.0
    462    464    465    494   5     0.00000     0.00000     0.00000  0.0
    492    464    465    466   5     0.00000     0.00000     0.00000  0.0
    492    464    465    493   5     0.00000     0.00000     0.00000  0.0
    492    464    465    494   5     0.00000     0.00000     0.00000  0.0
    464    465    466    467   5     3.67355     4.10869     2.37651  0.0
    464    465    466    495   5     0.00000     0.00000     1.25520  0.0
    464    465    466    496   5     0.00000     0.00000     1.25520  0.0
    493    465    466    467   5     0.00000     0.00000     1.25520  0.0
    493    465    466    495   5     0.00000     0.00000     1.25520  0.0
    493    465    466    496   5     0.00000     0.00000     1.25520  0.0
    494    465    466    467   5     0.00000     0.00000     1.25520  0.0
    494    465    466    495   5     0.00000     0.00000     1.25520  0.0
    494    465    466    496   5     0.00000     0.00000     1.25520  0.0
    465    466    467    468   5     4.74884    -0.63178     1.67360  0.0
    465    466    467    497   5     0.00000     0.00000     1.25520  0.0
    465    466    467    498   5     0.00000     0.00000     1.25520  0.0
    495    466    467    468   5     0.00000     0.00000     1.25520  0.0
    495    466    467    497   5     0.00000     0.00000     1.25520  0.0
    495    466    467    498   5     0.00000     0.00000     1.25520  0.0
    496    466    467    468   5     0.00000     0.00000     1.25520  0.0
    496    466    467    497   5     0.00000     0.00000     1.25520  0.0
    496    466    467    498   5     0.00000     0.00000     1.25520  0.0
    466    467    468    469   5     4.74884    -0.63178     1.67360  0.0
    466    467    468    499   5     0.00000     0.00000     1.25520  0.0
    466    467    468    500   5     0.00000     0.00000     1.25520  0.0
    497    467    468    469   5     0.00000     0.00000     1.25520  0.0
    497    467    468    499   5     0.00000     0.00000     1.25520  0.0
    497    467    468    500   5     0.00000     0.00000     1.25520  0.0
    498    467    468    469   5     0.00000     0.00000     1.25520  0.0
    498    467    468    499   5     0.00000     0.00000     1.25520  0.0
    498    467    468    500   5     0.00000     0.00000     1.25520  0.0
    467    468    469    470   5     4.74884    -0.63178     1.67360  0.0
    467    468    469    501   5     0.00000     0.00000     1.25520  0.0
    467    468    469    502   5     0.00000     0.00000     1.25520  0.0
    499    468    469    470   5     0.00000     0.00000     1.25520  0.0
    499    468    469    501   5     0.00000     0.00000     1.25520  0.0
    499    468    469    502   5     0.00000     0.00000     1.25520  0.0
    500    468    469    470   5     0.00000     0.00000     1.25520  0.0
    500    468    469    501   5     0.00000     0.00000     1.25520  0.0
    500    468    469    502   5     0.00000     0.00000     1.25520  0.0
    468    469    470    471   5     3.67355     4.10869     2.37651  0.0
    468    469    470    503   5     0.00000     0.00000     1.25520  0.0
    468    469    470    504   5     0.00000     0.00000     1.25520  0.0
    501    469    470    471   5     0.00000     0.00000     1.25520  0.0
    501    469    470    503   5     0.00000     0.00000     1.25520  0.0
    501    469    470    504   5     0.00000     0.00000     1.25520  0.0
    502    469    470    471   5     0.00000     0.00000     1.25520  0.0
    502    469    470    503   5     0.00000     0.00000     1.25520  0.0
    502    469    470    504   5     0.00000     0.00000     1.25520  0.0
    469    470    471    505   5     0.00000     0.00000     0.00000  0.0
    469    470    471    506   5    -3.67774    -0.67781     0.28033  0.0
    503    470    471    505   5     0.00000     0.00000     0.00000  0.0
    503    470    471    506   5     0.00000     0.00000     0.00000  0.0
    504    470    471    505   5     0.00000     0.00000     0.00000  0.0
    504    470    471    506   5     0.00000     0.00000     0.00000  0.0
    470    471    506    507   5     0.00000    25.47638     0.00000  0.0
    470    471    506    508   5    12.53945    12.88254     0.00000  0.0
    505    471    506    507   5     0.00000    20.50160     0.00000  0.0
    505    471    506    508   5     0.00000    20.50160     0.00000  0.0
    471    506    508    509   5    11.69428    -0.66526    -1.56900  0.0
    471    506    508    528   5     0.00000     0.00000     0.00000  0.0
    471    506    508    529   5     0.00000     0.00000     0.00000  0.0
    507    506    508    509   5     0.00000     2.52295     0.00000  0.0
    507    506    508    528   5     0.00000     0.00000     0.00000  0.0
    507    506    508    529   5     0.00000     0.00000     0.00000  0.0
    506    508    509    510   5    -8.00818    -1.52298     2.46438  0.0
    506    508    509    530   5     0.00000     0.00000    -0.94140  0.0
    506    508    509    531   5     0.00000     0.00000    -0.94140  0.0
    528    508    509    510   5     0.00000     0.00000     1.25520  0.0
    528    508    509    530   5     0.00000     0.00000     1.25520  0.0
    528    508    509    531   5     0.00000     0.00000     1.25520  0.0
    529    508    509    510   5     0.00000     0.00000     1.25520  0.0
    529    508    509    530   5     0.00000     0.00000     1.25520  0.0
    529    508    509    531   5     0.00000     0.00000     1.25520  0.0
    508    509    510    511   5     4.74884    -0.63178     1.67360  0.0
    508    509    510    532   5     0.00000     0.00000     1.25520  0.0
    508    509    510    533   5     0.00000     0.00000     1.25520  0.0
    530    509    510    511   5     0.00000     0.00000     1.25520  0.0
    530    509    510    532   5     0.00000     0.00000     1.25520  0.0
    530    509    510    533   5     0.00000     0.00000     1.25520  0.0
    531    509    510    511   5     0.00000     0.00000     1.25520  0.0
    531    509    510    532   5     0.00000     0.00000     1.25520  0.0
    531    509    510    533   5     0.00000     0.00000     1.25520  0.0
    509    510    511    512   5     4.74884    -0.63178     1.67360  0.0
    509    510    511    534   5     0.00000     0.00000     1.25520  0.0
    509    510    511    535   5     0.00000     0.00000     1.25520  0.0
    532    510    511    512   5     0.00000     0.00000     1.25520  0.0
    532    510    511    534   5     0.00000     0.00000     1.25520  0.0
    532    510    511    535   5     0.00000     0.00000     1.25520  0.0
    533    510    511    512   5     0.00000     0.00000     1.25520  0.0
    533    510    511    534   5     0.00000     0.00000     1.25520  0.0
    533    510    511    535   5     0.00000     0.00000     1.25520  0.0
    510    511    512    513   5     4.74884    -0.63178     1.67360  0.0
    510    511    512    536   5     0.00000     0.00000     1.25520  0.0
    510    511    512    537   5     0.00000     0.00000     1.25520  0.0
    534    511    512    513   5     0.00000     0.00000     1.25520  0.0
    534    511    512    536   5     0.00000     0.00000     1.25520  0.0
    534    511    512    537   5     0.00000     0.00000     1.25520  0.0
    535    511    512    513   5     0.00000     0.00000     1.25520  0.0
    535    511    512    536   5     0.00000     0.00000     1.25520  0.0
    535    511    512    537   5     0.00000     0.00000     1.25520  0.0
    511    512    513    514   5     4.74884    -0.63178     1.67360  0.0
    511    512    513    538   5     0.00000     0.00000     1.25520  0.0
    511    512    513    539   5     0.00000     0.00000     1.25520  0.0
    536    512    513    514   5     0.00000     0.00000     1.25520  0.0
    536    512    513    538   5     0.00000     0.00000     1.25520  0.0
    536    512    513    539   5     0.00000     0.00000     1.25520  0.0
    537    512    513    514   5     0.00000     0.00000     1.25520  0.0
    537    512    513    538   5     0.00000     0.00000     1.25520  0.0
    537    512    513    539   5     0.00000     0.00000     1.25520  0.0
    512    513    514    515   5     4.74884    -0.63178     1.67360  0.0
    512    513    514    540   5     0.00000     0.00000     1.25520  0.0
    512    513    514    541   5     0.00000     0.00000     1.25520  0.0
    538    513    514    515   5     0.00000     0.00000     1.25520  0.0
    538    513    514    540   5     0.00000     0.00000     1.25520  0.0
    538    513    514    541   5     0.00000     0.00000     1.25520  0.0
    539    513    514    515   5     0.00000     0.00000     1.25520  0.0
    539    513    514    540   5     0.00000     0.00000     1.25520  0.0
    539    513    514    541   5     0.00000     0.00000     1.25520  0.0
    513    514    515    516   5     4.74884    -0.63178     1.67360  0.0
    513    514    515    542   5     0.00000     0.00000     1.25520  0.0
    513    514    515    543   5     0.00000     0.00000     1.25520  0.0
    540    514    515    516   5     0.00000     0.00000     1.25520  0.0
    540    514    515    542   5     0.00000     0.00000     1.25520  0.0
    540    514    515    543   5     0.00000     0.00000     1.25520  0.0
    541    514    515    516   5     0.00000     0.00000     1.25520  0.0
    541    514    515    542   5     0.00000     0.00000     1.25520  0.0
    541    514    515    543   5     0.00000     0.00000     1.25520  0.0
    514    515    516    517   5     4.74884    -0.63178     1.67360  0.0
    514    515    516    544   5     0.00000     0.00000     1.25520  0.0
    514    515    516    545   5     0.00000     0.00000     1.25520  0.0
    542    515    516    517   5     0.00000     0.00000     1.25520  0.0
    542    515    516    544   5     0.00000     0.00000     1.25520  0.0
    542    515    516    545   5     0.00000     0.00000     1.25520  0.0
    543    515    516    517   5     0.00000     0.00000     1.25520  0.0
    543    515    516    544   5     0.00000     0.00000     1.25520  0.0
    543    515    516    545   5     0.00000     0.00000     1.25520  0.0
    515    516    517    518   5    -8.00818    -1.52298     2.46438  0.0
    515    516    517    546   5     0.00000     0.00000     1.25520  0.0
    515    516    517    547   5     0.00000     0.00000     1.25520  0.0
    544    516    517    518   5     0.00000     0.00000    -0.94140  0.0
    544    516    517    546   5     0.00000     0.00000     1.25520  0.0
    544    516    517    547   5     0.00000     0.00000     1.25520  0.0
    545    516    517    518   5     0.00000     0.00000    -0.94140  0.0
    545    516    517    546   5     0.00000     0.00000     1.25520  0.0
    545    516    517    547   5     0.00000     0.00000     1.25520  0.0
    516    517    518    519   5     0.00000     2.52295     0.00000  0.0
    516    517    518    520   5    11.69428    -0.66526    -1.56900  0.0
    546    517    518    519   5     0.00000     0.00000     0.00000  0.0
    546    517    518    520   5     0.00000     0.00000     0.00000  0.0
    547    517    518    519   5     0.00000     0.00000     0.00000  0.0
    547    517    518    520   5     0.00000     0.00000     0.00000  0.0
    517    518    520    521   5    12.53945    12.88254     0.00000  0.0
    517    518    520    548   5     0.00000    20.50160     0.00000  0.0
    519    518    520    521   5     0.00000    25.47638     0.00000  0.0
    519    518    520    548   5     0.00000    20.50160     0.00000  0.0
    518    520    521    522   5    -3.67774    -0.67781     0.28033  0.0
    518    520    521    549   5     0.00000     0.00000     0.00000  0.0
    518    520    521    550   5     0.00000     0.00000     0.00000  0.0
    548    520    521    522   5     0.00000     0.00000     0.00000  0.0
    548    520    521    549   5     0.00000     0.00000     0.00000  0.0
    548    520    521    550   5     0.00000     0.00000     0.00000  0.0
    520    521    522    523   5     3.67355     4.10869     2.37651  0.0
    520    521    522    551   5     0.00000     0.00000     1.25520  0.0
    520    521    522    552   5     0.00000     0.00000     1.25520  0.0
    549    521    522    523   5     0.00000     0.00000     1.25520  0.0
    549    521    522    551   5     0.00000     0.00000     1.25520  0.0
    549    521    522    552   5     0.00000     0.00000     1.25520  0.0
    550    521    522    523   5     0.00000     0.00000     1.25520  0.0
    550    521    522    551   5     0.00000     0.00000     1.25520  0.0
    550    521    522    552   5     0.00000     0.00000     1.25520  0.0
    521    522    523    524   5     4.74884    -0.63178     1.67360  0.0
    521    522    523    553   5     0.00000     0.00000     1.25520  0.0
    521    522    523    554   5     0.00000     0.00000     1.25520  0.0
    551    522    523    524   5     0.00000     0.00000     1.25520  0.0
    551    522    523    553   5     0.00000     0.00000     1.25520  0.0
    551    522    523    554   5     0.00000     0.00000     1.25520  0.0
    552    522    523    524   5     0.00000     0.00000     1.25520  0.0
    552    522    523    553   5     0.00000     0.00000     1.25520  0.0
    552    522    523    554   5     0.00000     0.00000     1.25520  0.0
    522    523    524    525   5     4.74884    -0.63178     1.67360  0.0
    522    523    524    555   5     0.00000     0.00000     1.25520  0.0
    522    523    524    556   5     0.00000     0.00000     1.25520  0.0
    553    523    524    525   5     0.00000     0.00000     1.25520  0.0
    553    523    524    555   5     0.00000     0.00000     1.25520  0.0
    553    523    524    556   5     0.00000     0.00000     1.25520  0.0
    554    523    524    525   5     0.00000     0.00000     1.25520  0.0
    554    523    524    555   5     0.00000     0.00000     1.25520  0.0
    554    523    524    556   5     0.00000     0.00000     1.25520  0.0
    523    524    525    526   5     4.74884    -0.63178     1.67360  0.0
    523    524    525    557   5     0.00000     0.00000     1.25520  0.0
    523    524    525    558   5     0.00000     0.00000     1.25520  0.0
    555    524    525    526   5     0.00000     0.00000     1.25520  0.0
    555    524    525    557   5     0.00000     0.00000     1.25520  0.0
    555    524    525    558   5     0.00000     0.00000     1.25520  0.0
    556    524    525    526   5     0.00000     0.00000     1.25520  0.0
    556    524    525    557   5     0.00000     0.00000     1.25520  0.0
    556    524    525    558   5     0.00000     0.00000     1.25520  0.0
    524    525    526    527   5     3.67355     4.10869     2.37651  0.0
    524    525    526    559   5     0.00000     0.00000     1.25520  0.0
    524    525    526    560   5     0.00000     0.00000     1.25520  0.0
    557    525    526    527   5     0.00000     0.00000     1.25520  0.0
    557    525    526    559   5     0.00000     0.00000     1.25520  0.0
    557    525    526    560   5     0.00000     0.00000     1.25520  0.0
    558    525    526    527   5     0.00000     0.00000     1.25520  0.0
    558    525    526    559   5     0.00000     0.00000     1.25520  0.0
    558    525    526    560   5     0.00000     0.00000     1.25520  0.0
    525    526    527    561   5     0.00000     0.00000     0.00000  0.0
    525    526    527    562   5    -3.67774    -0.67781     0.28033  0.0
    559    526    527    561   5     0.00000     0.00000     0.00000  0.0
    559    526    527    562   5     0.00000     0.00000     0.00000  0.0
    560    526    527    561   5     0.00000     0.00000     0.00000  0.0
    560    526    527    562   5     0.00000     0.00000     0.00000  0.0
    526    527    562    563   5     0.00000    25.47638     0.00000  0.0
    526    527    562    564   5    12.53945    12.88254     0.00000  0.0
    561    527    562    563   5     0.00000    20.50160     0.00000  0.0
    561    527    562    564   5     0.00000    20.50160     0.00000  0.0
    527    562    564    565   5    11.69428    -0.66526    -1.56900  0.0
    527    562    564    584   5     0.00000     0.00000     0.00000  0.0
    527    562    564    585   5     0.00000     0.00000     0.00000  0.0
    563    562    564    565   5     0.00000     2.52295     0.00000  0.0
    563    562    564    584   5     0.00000     0.00000     0.00000  0.0
    563    562    564    585   5     0.00000     0.00000     0.00000  0.0
    562    564    565    566   5    -8.00818    -1.52298     2.46438  0.0
    562    564    565    586   5     0.00000     0.00000    -0.94140  0.0
    562    564    565    587   5     0.00000     0.00000    -0.94140  0.0
    584    564    565    566   5     0.00000     0.00000     1.25520  0.0
    584    564    565    586   5     0.00000     0.00000     1.25520  0.0
    584    564    565    587   5     0.00000     0.00000     1.25520  0.0
    585    564    565    566   5     0.00000     0.00000     1.25520  0.0
    585    564    565    586   5     0.00000     0.00000     1.25520  0.0
    585    564    565    587   5     0.00000     0.00000     1.25520  0.0
    564    565    566    567   5     4.74884    -0.63178     1.67360  0.0
    564    565    566    588   5     0.00000     0.00000     1.25520  0.0
    564    565    566    589   5     0.00000     0.00000     1.25520  0.0
    586    565    566    567   5     0.00000     0.00000     1.25520  0.0
    586    565    566    588   5     0.00000     0.00000     1.25520  0.0
    586    565    566    589   5     0.00000     0.00000     1.25520  0.0
    587    565    566    567   5     0.00000     0.00000     1.25520  0.0
    587    565    566    588   5     0.00000     0.00000     1.25520  0.0
    587    565    566    589   5     0.00000     0.00000     1.25520  0.0
    565    566    567    568   5     4.74884    -0.63178     1.67360  0.0
    565    566    567    590   5     0.00000     0.00000     1.25520  0.0
    565    566    567    591   5     0.00000     0.00000     1.25520  0.0
    588    566    567    568   5     0.00000     0.00000     1.25520  0.0
    588    566    567    590   5     0.00000     0.00000     1.25520  0.0
    588    566    567    591   5     0.00000     0.00000     1.25520  0.0
    589    566    567    568   5     0.00000     0.00000     1.25520  0.0
    589    566    567    590   5     0.00000     0.00000     1.25520  0.0
    589    566    567    591   5     0.00000     0.00000     1.25520  0.0
    566    567    568    569   5     4.74884    -0.63178     1.67360  0.0
    566    567    568    592   5     0.00000     0.00000     1.25520  0.0
    566    567    568    593   5     0.00000     0.00000     1.25520  0.0
    590    567    568    569   5     0.00000     0.00000     1.25520  0.0
    590    567    568    592   5     0.00000     0.00000     1.25520  0.0
    590    567    568    593   5     0.00000     0.00000     1.25520  0.0
    591    567    568    569   5     0.00000     0.00000     1.25520  0.0
    591    567    568    592   5     0.00000     0.00000     1.25520  0.0
    591    567    568    593   5     0.00000     0.00000     1.25520  0.0
    567    568    569    570   5     4.74884    -0.63178     1.67360  0.0
    567    568    569    594   5     0.00000     0.00000     1.25520  0.0
    567    568    569    595   5     0.00000     0.00000     1.25520  0.0
    592    568    569    570   5     0.00000     0.00000     1.25520  0.0
    592    568    569    594   5     0.00000     0.00000     1.25520  0.0
    592    568    569    595   5     0.00000     0.00000     1.25520  0.0
    593    568    569    570   5     0.00000     0.00000     1.25520  0.0
    593    568    569    594   5     0.00000     0.00000     1.25520  0.0
    593    568    569    595   5     0.00000     0.00000     1.25520  0.0
    568    569    570    571   5     4.74884    -0.63178     1.67360  0.0
    568    569    570    596   5     0.00000     0.00000     1.25520  0.0
    568    569    570    597   5     0.00000     0.00000     1.25520  0.0
    594    569    570    571   5     0.00000     0.00000     1.25520  0.0
    594    569    570    596   5     0.00000     0.00000     1.25520  0.0
    594    569    570    597   5     0.00000     0.00000     1.25520  0.0
    595    569    570    571   5     0.00000     0.00000     1.25520  0.0
    595    569    570    596   5     0.00000     0.00000     1.25520  0.0
    595    569    570    597   5     0.00000     0.00000     1.25520  0.0
    569    570    571    572   5     4.74884    -0.63178     1.67360  0.0
    569    570    571    598   5     0.00000     0.00000     1.25520  0.0
    569    570    571    599   5     0.00000     0.00000     1.25520  0.0
    596    570    571    572   5     0.00000     0.00000     1.25520  0.0
    596    570    571    598   5     0.00000     0.00000     1.25520  0.0
    596    570    571    599   5     0.00000     0.00000     1.25520  0.0
    597    570    571    572   5     0.00000     0.00000     1.25520  0.0
    597    570    571    598   5     0.00000     0.00000     1.25520  0.0
    597    570    571    599   5     0.00000     0.00000     1.25520  0.0
    570    571    572    573   5     4.74884    -0.63178     1.67360  0.0
    570    571    572    600   5     0.00000     0.00000     1.25520  0.0
    570    571    572    601   5     0.00000     0.00000     1.25520  0.0
    598    571    572    573   5     0.00000     0.00000     1.25520  0.0
    598    571    572    600   5     0.00000     0.00000     1.25520  0.0
    598    571    572    601   5     0.00000     0.00000     1.25520  0.0
    599    571    572    573   5     0.00000     0.00000     1.25520  0.0
    599    571    572    600   5     0.00000     0.00000     1.25520  0.0
    599    571    572    601   5     0.00000     0.00000     1.25520  0.0
    571    572    573    574   5    -8.00818    -1.52298     2.46438  0.0
    571    572    573    602   5     0.00000     0.00000     1.25520  0.0
    571    572    573    603   5     0.00000     0.00000     1.25520  0.0
    600    572    573    574   5     0.00000     0.00000    -0.94140  0.0
    600    572    573    602   5     0.00000     0.00000     1.25520  0.0
    600    572    573    603   5     0.00000     0.00000     1.25520  0.0
    601    572    573    574   5     0.00000     0.00000    -0.94140  0.0
    601    572    573    602   5     0.00000     0.00000     1.25520  0.0
    601    572    573    603   5     0.00000     0.00000     1.25520  0.0
    572    573    574    575   5     0.00000     2.52295     0.00000  0.0
    572    573    574    576   5    11.69428    -0.66526    -1.56900  0.0
    602    573    574    575   5     0.00000     0.00000     0.00000  0.0
    602    573    574    576   5     0.00000     0.00000     0.00000  0.0
    603    573    574    575   5     0.00000     0.00000     0.00000  0.0
    603    573    574    576   5     0.00000     0.00000     0.00000  0.0
    573    574    576    577   5    12.53945    12.88254     0.00000  0.0
    573    574    576    604   5     0.00000    20.50160     0.00000  0.0
    575    574    576    577   5     0.00000    25.47638     0.00000  0.0
    575    574    576    604   5     0.00000    20.50160     0.00000  0.0
    574    576    577    578   5    -3.67774    -0.67781     0.28033  0.0
    574    576    577    605   5     0.00000     0.00000     0.00000  0.0
    574    576    577    606   5     0.00000     0.00000     0.00000  0.0
    604    576    577    578   5     0.00000     0.00000     0.00000  0.0
    604    576    577    605   5     0.00000     0.00000     0.00000  0.0
    604    576    577    606   5     0.00000     0.00000     0.00000  0.0
    576    577    578    579   5     3.67355     4.10869     2.37651  0.0
    576    577    578    607   5     0.00000     0.00000     1.25520  0.0
    576    577    578    608   5     0.00000     0.00000     1.25520  0.0
    605    577    578    579   5     0.00000     0.00000     1.25520  0.0
    605    577    578    607   5     0.00000     0.00000     1.25520  0.0
    605    577    578    608   5     0.00000     0.00000     1.25520  0.0
    606    577    578    579   5     0.00000     0.00000     1.25520  0.0
    606    577    578    607   5     0.00000     0.00000     1.25520  0.0
    606    577    578    608   5     0.00000     0.00000     1.25520  0.0
    577    578    579    580   5     4.74884    -0.63178     1.67360  0.0
    577    578    579    609   5     0.00000     0.00000     1.25520  0.0
    577    578    579    610   5     0.00000     0.00000     1.25520  0.0
    607    578    579    580   5     0.00000     0.00000     1.25520  0.0
    607    578    579    609   5     0.00000     0.00000     1.25520  0.0
    607    578    579    610   5     0.00000     0.00000     1.25520  0.0
    608    578    579    580   5     0.00000     0.00000     1.25520  0.0
    608    578    579    609   5     0.00000     0.00000     1.25520  0.0
    608    578    579    610   5     0.00000     0.00000     1.25520  0.0
    578    579    580    581   5     4.74884    -0.63178     1.67360  0.0
    578    579    580    611   5     0.00000     0.00000     1.25520  0.0
    578    579    580    612   5     0.00000     0.00000     1.25520  0.0
    609    579    580    581   5     0.00000     0.00000     1.25520  0.0
    609    579    580    611   5     0.00000     0.00000     1.25520  0.0
    609    579    580    612   5     0.00000     0.00000     1.25520  0.0
    610    579    580    581   5     0.00000     0.00000     1.25520  0.0
    610    579    580    611   5     0.00000     0.00000     1.25520  0.0
    610    579    580    612   5     0.00000     0.00000     1.25520  0.0
    579    580    581    582   5     4.74884    -0.63178     1.67360  0.0
    579    580    581    613   5     0.00000     0.00000     1.25520  0.0
    579    580    581    614   5     0.00000     0.00000     1.25520  0.0
    611    580    581    582   5     0.00000     0.00000     1.25520  0.0
    611    580    581    613   5     0.00000     0.00000     1.25520  0.0
    611    580    581    614   5     0.00000     0.00000     1.25520  0.0
    612    580    581    582   5     0.00000     0.00000     1.25520  0.0
    612    580    581    613   5     0.00000     0.00000     1.25520  0.0
    612    580    581    614   5     0.00000     0.00000     1.25520  0.0
    580    581    582    583   5     3.67355     4.10869     2.37651  0.0
    580    581    582    615   5     0.00000     0.00000     1.25520  0.0
    580    581    582    616   5     0.00000     0.00000     1.25520  0.0
    613    581    582    583   5     0.00000     0.00000     1.25520  0.0
    613    581    582    615   5     0.00000     0.00000     1.25520  0.0
    613    581    582    616   5     0.00000     0.00000     1.25520  0.0
    614    581    582    583   5     0.00000     0.00000     1.25520  0.0
    614    581    582    615   5     0.00000     0.00000     1.25520  0.0
    614    581    582    616   5     0.00000     0.00000     1.25520  0.0
    581    582    583    617   5     0.00000     0.00000     0.00000  0.0
    581    582    583    618   5    -3.67774    -0.67781     0.28033  0.0
    615    582    583    617   5     0.00000     0.00000     0.00000  0.0
    615    582    583    618   5     0.00000     0.00000     0.00000  0.0
    616    582    583    617   5     0.00000     0.00000     0.00000  0.0
    616    582    583    618   5     0.00000     0.00000     0.00000  0.0
    582    583    618    619   5     0.00000    25.47638     0.00000  0.0
    582    583    618    620   5    12.53945    12.88254     0.00000  0.0
    617    583    618    619   5     0.00000    20.50160     0.00000  0.0
    617    583    618    620   5     0.00000    20.50160     0.00000  0.0
    583    618    620    621   5    11.69428    -0.66526    -1.56900  0.0
    583    618    620    640   5     0.00000     0.00000     0.00000  0.0
    583    618    620    641   5     0.00000     0.00000     0.00000  0.0
    619    618    620    621   5     0.00000     2.52295     0.00000  0.0
    619    618    620    640   5     0.00000     0.00000     0.00000  0.0
    619    618    620    641   5     0.00000     0.00000     0.00000  0.0
    618    620    621    622   5    -8.00818    -1.52298     2.46438  0.0
    618    620    621    642   5     0.00000     0.00000    -0.94140  0.0
    618    620    621    643   5     0.00000     0.00000    -0.94140  0.0
    640    620    621    622   5     0.00000     0.00000     1.25520  0.0
    640    620    621    642   5     0.00000     0.00000     1.25520  0.0
    640    620    621    643   5     0.00000     0.00000     1.25520  0.0
    641    620    621    622   5     0.00000     0.00000     1.25520  0.0
    641    620    621    642   5     0.00000     0.00000     1.25520  0.0
    641    620    621    643   5     0.00000     0.00000     1.25520  0.0
    620    621    622    623   5     4.74884    -0.63178     1.67360  0.0
    620    621    622    644   5     0.00000     0.00000     1.25520  0.0
    620    621    622    645   5     0.00000     0.00000     1.25520  0.0
    642    621    622    623   5     0.00000     0.00000     1.25520  0.0
    642    621    622    644   5     0.00000     0.00000     1.25520  0.0
    642    621    622    645   5     0.00000     0.00000     1.25520  0.0
    643    621    622    623   5     0.00000     0.00000     1.25520  0.0
    643    621    622    644   5     0.00000     0.00000     1.25520  0.0
    643    621    622    645   5     0.00000     0.00000     1.25520  0.0
    621    622    623    624   5     4.74884    -0.63178     1.67360  0.0
    621    622    623    646   5     0.00000     0.00000     1.25520  0.0
    621    622    623    647   5     0.00000     0.00000     1.25520  0.0
    644    622    623    624   5     0.00000     0.00000     1.25520  0.0
    644    622    623    646   5     0.00000     0.00000     1.25520  0.0
    644    622    623    647   5     0.00000     0.00000     1.25520  0.0
    645    622    623    624   5     0.00000     0.00000     1.25520  0.0
    645    622    623    646   5     0.00000     0.00000     1.25520  0.0
    645    622    623    647   5     0.00000     0.00000     1.25520  0.0
    622    623    624    625   5     4.74884    -0.63178     1.67360  0.0
    622    623    624    648   5     0.00000     0.00000     1.25520  0.0
    622    623    624    649   5     0.00000     0.00000     1.25520  0.0
    646    623    624    625   5     0.00000     0.00000     1.25520  0.0
    646    623    624    648   5     0.00000     0.00000     1.25520  0.0
    646    623    624    649   5     0.00000     0.00000     1.25520  0.0
    647    623    624    625   5     0.00000     0.00000     1.25520  0.0
    647    623    624    648   5     0.00000     0.00000     1.25520  0.0
    647    623    624    649   5     0.00000     0.00000     1.25520  0.0
    623    624    625    626   5     4.74884    -0.63178     1.67360  0.0
    623    624    625    650   5     0.00000     0.00000     1.25520  0.0
    623    624    625    651   5     0.00000     0.00000     1.25520  0.0
    648    624    625    626   5     0.00000     0.00000     1.25520  0.0
    648    624    625    650   5     0.00000     0.00000     1.25520  0.0
    648    624    625    651   5     0.00000     0.00000     1.25520  0.0
    649    624    625    626   5     0.00000     0.00000     1.25520  0.0
    649    624    625    650   5     0.00000     0.00000     1.25520  0.0
    649    624    625    651   5     0.00000     0.00000     1.25520  0.0
    624    625    626    627   5     4.74884    -0.63178     1.67360  0.0
    624    625    626    652   5     0.00000     0.00000     1.25520  0.0
    624    625    626    653   5     0.00000     0.00000     1.25520  0.0
    650    625    626    627   5     0.00000     0.00000     1.25520  0.0
    650    625    626    652   5     0.00000     0.00000     1.25520  0.0
    650    625    626    653   5     0.00000     0.00000     1.25520  0.0
    651    625    626    627   5     0.00000     0.00000     1.25520  0.0
    651    625    626    652   5     0.00000     0.00000     1.25520  0.0
    651    625    626    653   5     0.00000     0.00000     1.25520  0.0
    625    626    627    628   5     4.74884    -0.63178     1.67360  0.0
    625    626    627    654   5     0.00000     0.00000     1.25520  0.0
    625    626    627    655   5     0.00000     0.00000     1.25520  0.0
    652    626    627    628   5     0.00000     0.00000     1.25520  0.0
    652    626    627    654   5     0.00000     0.00000     1.25520  0.0
    652    626    627    655   5     0.00000     0.00000     1.25520  0.0
    653    626    627    628   5     0.00000     0.00000     1.25520  0.0
    653    626    627    654   5     0.00000     0.00000     1.25520  0.0
    653    626    627    655   5     0.00000     0.00000     1.25520  0.0
    626    627    628    629   5     4.74884    -0.63178     1.67360  0.0
    626    627    628    656   5     0.00000     0.00000     1.25520  0.0
    626    627    628    657   5     0.00000     0.00000     1.25520  0.0
    654    627    628    629   5     0.00000     0.00000     1.25520  0.0
    654    627    628    656   5     0.00000     0.00000     1.25520  0.0
    654    627    628    657   5     0.00000     0.00000     1.25520  0.0
    655    627    628    629   5     0.00000     0.00000     1.25520  0.0
    655    627    628    656   5     0.00000     0.00000     1.25520  0.0
    655    627    628    657   5     0.00000     0.00000     1.25520  0.0
    627    628    629    630   5    -8.00818    -1.52298     2.46438  0.0
    627    628    629    658   5     0.00000     0.00000     1.25520  0.0
    627    628    629    659   5     0.00000     0.00000     1.25520  0.0
    656    628    629    630   5     0.00000     0.00000    -0.94140  0.0
    656    628    629    658   5     0.00000     0.00000     1.25520  0.0
    656    628    629    659   5     0.00000     0.00000     1.25520  0.0
    657    628    629    630   5     0.00000     0.00000    -0.94140  0.0
    657    628    629    658   5     0.00000     0.00000     1.25520  0.0
    657    628    629    659   5     0.00000     0.00000     1.25520  0.0
    628    629    630    631   5     0.00000     2.52295     0.00000  0.0
    628    629    630    632   5    11.69428    -0.66526    -1.56900  0.0
    658    629    630    631   5     0.00000     0.00000     0.00000  0.0
    658    629    630    632   5     0.00000     0.00000     0.00000  0.0
    659    629    630    631   5     0.00000     0.00000     0.00000  0.0
    659    629    630    632   5     0.00000     0.00000     0.00000  0.0
    629    630    632    633   5    12.53945    12.88254     0.00000  0.0
    629    630    632    660   5     0.00000    20.50160     0.00000  0.0
    631    630    632    633   5     0.00000    25.47638     0.00000  0.0
    631    630    632    660   5     0.00000    20.50160     0.00000  0.0
    630    632    633    634   5    -3.67774    -0.67781     0.28033  0.0
    630    632    633    661   5     0.00000     0.00000     0.00000  0.0
    630    632    633    662   5     0.00000     0.00000     0.00000  0.0
    660    632    633    634   5     0.00000     0.00000     0.00000  0.0
    660    632    633    661   5     0.00000     0.00000     0.00000  0.0
    660    632    633    662   5     0.00000     0.00000     0.00000  0.0
    632    633    634    635   5     3.67355     4.10869     2.37651  0.0
    632    633    634    663   5     0.00000     0.00000     1.25520  0.0
    632    633    634    664   5     0.00000     0.00000     1.25520  0.0
    661    633    634    635   5     0.00000     0.00000     1.25520  0.0
    661    633    634    663   5     0.00000     0.00000     1.25520  0.0
    661    633    634    664   5     0.00000     0.00000     1.25520  0.0
    662    633    634    635   5     0.00000     0.00000     1.25520  0.0
    662    633    634    663   5     0.00000     0.00000     1.25520  0.0
    662    633    634    664   5     0.00000     0.00000     1.25520  0.0
    633    634    635    636   5     4.74884    -0.63178     1.67360  0.0
    633    634    635    665   5     0.00000     0.00000     1.25520  0.0
    633    634    635    666   5     0.00000     0.00000     1.25520  0.0
    663    634    635    636   5     0.00000     0.00000     1.25520  0.0
    663    634    635    665   5     0.00000     0.00000     1.25520  0.0
    663    634    635    666   5     0.00000     0.00000     1.25520  0.0
    664    634    635    636   5     0.00000     0.00000     1.25520  0.0
    664    634    635    665   5     0.00000     0.00000     1.25520  0.0
    664    634    635    666   5     0.00000     0.00000     1.25520  0.0
    634    635    636    637   5     4.74884    -0.63178     1.67360  0.0
    634    635    636    667   5     0.00000     0.00000     1.25520  0.0
    634    635    636    668   5     0.00000     0.00000     1.25520  0.0
    665    635    636    637   5     0.00000     0.00000     1.25520  0.0
    665    635    636    667   5     0.00000     0.00000     1.25520  0.0
    665    635    636    668   5     0.00000     0.00000     1.25520  0.0
    666    635    636    637   5     0.00000     0.00000     1.25520  0.0
    666    635    636    667   5     0.00000     0.00000     1.25520  0.0
    666    635    636    668   5     0.00000     0.00000     1.25520  0.0
    635    636    637    638   5     4.74884    -0.63178     1.67360  0.0
    635    636    637    669   5     0.00000     0.00000     1.25520  0.0
    635    636    637    670   5     0.00000     0.00000     1.25520  0.0
    667    636    637    638   5     0.00000     0.00000     1.25520  0.0
    667    636    637    669   5     0.00000     0.00000     1.25520  0.0
    667    636    637    670   5     0.00000     0.00000     1.25520  0.0
    668    636    637    638   5     0.00000     0.00000     1.25520  0.0
    668    636    637    669   5     0.00000     0.00000     1.25520  0.0
    668    636    637    670   5     0.00000     0.00000     1.25520  0.0
    636    637    638    639   5     3.67355     4.10869     2.37651  0.0
    636    637    638    671   5     0.00000     0.00000     1.25520  0.0
    636    637    638    672   5     0.00000     0.00000     1.25520  0.0
    669    637    638    639   5     0.00000     0.00000     1.25520  0.0
    669    637    638    671   5     0.00000     0.00000     1.25520  0.0
    669    637    638    672   5     0.00000     0.00000     1.25520  0.0
    670    637    638    639   5     0.00000     0.00000     1.25520  0.0
    670    637    638    671   5     0.00000     0.00000     1.25520  0.0
    670    637    638    672   5     0.00000     0.00000     1.25520  0.0
    637    638    639    673   5     0.00000     0.00000     0.00000  0.0
    637    638    639    674   5    -3.67774    -0.67781     0.28033  0.0
    671    638    639    673   5     0.00000     0.00000     0.00000  0.0
    671    638    639    674   5     0.00000     0.00000     0.00000  0.0
    672    638    639    673   5     0.00000     0.00000     0.00000  0.0
    672    638    639    674   5     0.00000     0.00000     0.00000  0.0
    638    639    674    675   5     0.00000    25.47638     0.00000  0.0
    638    639    674    676   5    12.53945    12.88254     0.00000  0.0
    673    639    674    675   5     0.00000    20.50160     0.00000  0.0
    673    639    674    676   5     0.00000    20.50160     0.00000  0.0
    639    674    676    677   5    11.69428    -0.66526    -1.56900  0.0
    639    674    676    696   5     0.00000     0.00000     0.00000  0.0
    639    674    676    697   5     0.00000     0.00000     0.00000  0.0
    675    674    676    677   5     0.00000     2.52295     0.00000  0.0
    675    674    676    696   5     0.00000     0.00000     0.00000  0.0
    675    674    676    697   5     0.00000     0.00000     0.00000  0.0
    674    676    677    678   5    -8.00818    -1.52298     2.46438  0.0
    674    676    677    698   5     0.00000     0.00000    -0.94140  0.0
    674    676    677    699   5     0.00000     0.00000    -0.94140  0.0
    696    676    677    678   5     0.00000     0.00000     1.25520  0.0
    696    676    677    698   5     0.00000     0.00000     1.25520  0.0
    696    676    677    699   5     0.00000     0.00000     1.25520  0.0
    697    676    677    678   5     0.00000     0.00000     1.25520  0.0
    697    676    677    698   5     0.00000     0.00000     1.25520  0.0
    697    676    677    699   5     0.00000     0.00000     1.25520  0.0
    676    677    678    679   5     4.74884    -0.63178     1.67360  0.0
    676    677    678    700   5     0.00000     0.00000     1.25520  0.0
    676    677    678    701   5     0.00000     0.00000     1.25520  0.0
    698    677    678    679   5     0.00000     0.00000     1.25520  0.0
    698    677    678    700   5     0.00000     0.00000     1.25520  0.0
    698    677    678    701   5     0.00000     0.00000     1.25520  0.0
    699    677    678    679   5     0.00000     0.00000     1.25520  0.0
    699    677    678    700   5     0.00000     0.00000     1.25520  0.0
    699    677    678    701   5     0.00000     0.00000     1.25520  0.0
    677    678    679    680   5     4.74884    -0.63178     1.67360  0.0
    677    678    679    702   5     0.00000     0.00000     1.25520  0.0
    677    678    679    703   5     0.00000     0.00000     1.25520  0.0
    700    678    679    680   5     0.00000     0.00000     1.25520  0.0
    700    678    679    702   5     0.00000     0.00000     1.25520  0.0
    700    678    679    703   5     0.00000     0.00000     1.25520  0.0
    701    678    679    680   5     0.00000     0.00000     1.25520  0.0
    701    678    679    702   5     0.00000     0.00000     1.25520  0.0
    701    678    679    703   5     0.00000     0.00000     1.25520  0.0
    678    679    680    681   5     4.74884    -0.63178     1.67360  0.0
    678    679    680    704   5     0.00000     0.00000     1.25520  0.0
    678    679    680    705   5     0.00000     0.00000     1.25520  0.0
    702    679    680    681   5     0.00000     0.00000     1.25520  0.0
    702    679    680    704   5     0.00000     0.00000     1.25520  0.0
    702    679    680    705   5     0.00000     0.00000     1.25520  0.0
    703    679    680    681   5     0.00000     0.00000     1.25520  0.0
    703    679    680    704   5     0.00000     0.00000     1.25520  0.0
    703    679    680    705   5     0.00000     0.00000     1.25520  0.0
    679    680    681    682   5     4.74884    -0.63178     1.67360  0.0
    679    680    681    706   5     0.00000     0.00000     1.25520  0.0
    679    680    681    707   5     0.00000     0.00000     1.25520  0.0
    704    680    681    682   5     0.00000     0.00000     1.25520  0.0
    704    680    681    706   5     0.00000     0.00000     1.25520  0.0
    704    680    681    707   5     0.00000     0.00000     1.25520  0.0
    705    680    681    682   5     0.00000     0.00000     1.25520  0.0
    705    680    681    706   5     0.00000     0.00000     1.25520  0.0
    705    680    681    707   5     0.00000     0.00000     1.25520  0.0
    680    681    682    683   5     4.74884    -0.63178     1.67360  0.0
    680    681    682    708   5     0.00000     0.00000     1.25520  0.0
    680    681    682    709   5     0.00000     0.00000     1.25520  0.0
    706    681    682    683   5     0.00000     0.00000     1.25520  0.0
    706    681    682    708   5     0.00000     0.00000     1.25520  0.0
    706    681    682    709   5     0.00000     0.00000     1.25520  0.0
    707    681    682    683   5     0.00000     0.00000     1.25520  0.0
    707    681    682    708   5     0.00000     0.00000     1.25520  0.0
    707    681    682    709   5     0.00000     0.00000     1.25520  0.0
    681    682    683    684   5     4.74884    -0.63178     1.67360  0.0
    681    682    683    710   5     0.00000     0.00000     1.25520  0.0
    681    682    683    711   5     0.00000     0.00000     1.25520  0.0
    708    682    683    684   5     0.00000     0.00000     1.25520  0.0
    708    682    683    710   5     0.00000     0.00000     1.25520  0.0
    708    682    683    711   5     0.00000     0.00000     1.25520  0.0
    709    682    683    684   5     0.00000     0.00000     1.25520  0.0
    709    682    683    710   5     0.00000     0.00000     1.25520  0.0
    709    682    683    711   5     0.00000     0.00000     1.25520  0.0
    682    683    684    685   5     4.74884    -0.63178     1.67360  0.0
    682    683    684    712   5     0.00000     0.00000     1.25520  0.0
    682    683    684    713   5     0.00000     0.00000     1.25520  0.0
    710    683    684    685   5     0.00000     0.00000     1.25520  0.0
    710    683    684    712   5     0.00000     0.00000     1.25520  0.0
    710    683    684    713   5     0.00000     0.00000     1.25520  0.0
    711    683    684    685   5     0.00000     0.00000     1.25520  0.0
    711    683    684    712   5     0.00000     0.00000     1.25520  0.0
    711    683    684    713   5     0.00000     0.00000     1.25520  0.0
    683    684    685    686   5    -8.00818    -1.52298     2.46438  0.0
    683    684    685    714   5     0.00000     0.00000     1.25520  0.0
    683    684    685    715   5     0.00000     0.00000     1.25520  0.0
    712    684    685    686   5     0.00000     0.00000    -0.94140  0.0
    712    684    685    714   5     0.00000     0.00000     1.25520  0.0
    712    684    685    715   5     0.00000     0.00000     1.25520  0.0
    713    684    685    686   5     0.00000     0.00000    -0.94140  0.0
    713    684    685    714   5     0.00000     0.00000     1.25520  0.0
    713    684    685    715   5     0.00000     0.00000     1.25520  0.0
    684    685    686    687   5     0.00000     2.52295     0.00000  0.0
    684    685    686    688   5    11.69428    -0.66526    -1.56900  0.0
    714    685    686    687   5     0.00000     0.00000     0.00000  0.0
    714    685    686    688   5     0.00000     0.00000     0.00000  0.0
    715    685    686    687   5     0.00000     0.00000     0.00000  0.0
    715    685    686    688   5     0.00000     0.00000     0.00000  0.0
    685    686    688    689   5    12.53945    12.88254     0.00000  0.0
    685    686    688    716   5     0.00000    20.50160     0.00000  0.0
    687    686    688    689   5     0.00000    25.47638     0.00000  0.0
    687    686    688    716   5     0.00000    20.50160     0.00000  0.0
    686    688    689    690   5    -3.67774    -0.67781     0.28033  0.0
    686    688    689    717   5     0.00000     0.00000     0.00000  0.0
    686    688    689    718   5     0.00000     0.00000     0.00000  0.0
    716    688    689    690   5     0.00000     0.00000     0.00000  0.0
    716    688    689    717   5     0.00000     0.00000     0.00000  0.0
    716    688    689    718   5     0.00000     0.00000     0.00000  0.0
    688    689    690    691   5     3.67355     4.10869     2.37651  0.0
    688    689    690    719   5     0.00000     0.00000     1.25520  0.0
    688    689    690    720   5     0.00000     0.00000     1.25520  0.0
    717    689    690    691   5     0.00000     0.00000     1.25520  0.0
    717    689    690    719   5     0.00000     0.00000     1.25520  0.0
    717    689    690    720   5     0.00000     0.00000     1.25520  0.0
    718    689    690    691   5     0.00000     0.00000     1.25520  0.0
    718    689    690    719   5     0.00000     0.00000     1.25520  0.0
    718    689    690    720   5     0.00000     0.00000     1.25520  0.0
    689    690    691    692   5     4.74884    -0.63178     1.67360  0.0
    689    690    691    721   5     0.00000     0.00000     1.25520  0.0
    689    690    691    722   5     0.00000     0.00000     1.25520  0.0
    719    690    691    692   5     0.00000     0.00000     1.25520  0.0
    719    690    691    721   5     0.00000     0.00000     1.25520  0.0
    719    690    691    722   5     0.00000     0.00000     1.25520  0.0
    720    690    691    692   5     0.00000     0.00000     1.25520  0.0
    720    690    691    721   5     0.00000     0.00000     1.25520  0.0
    720    690    691    722   5     0.00000     0.00000     1.25520  0.0
    690    691    692    693   5     4.74884    -0.63178     1.67360  0.0
    690    691    692    723   5     0.00000     0.00000     1.25520  0.0
    690    691    692    724   5     0.00000     0.00000     1.25520  0.0
    721    691    692    693   5     0.00000     0.00000     1.25520  0.0
    721    691    692    723   5     0.00000     0.00000     1.25520  0.0
    721    691    692    724   5     0.00000     0.00000     1.25520  0.0
    722    691    692    693   5     0.00000     0.00000     1.25520  0.0
    722    691    692    723   5     0.00000     0.00000     1.25520  0.0
    722    691    692    724   5     0.00000     0.00000     1.25520  0.0
    691    692    693    694   5     4.74884    -0.63178     1.67360  0.0
    691    692    693    725   5     0.00000     0.00000     1.25520  0.0
    691    692    693    726   5     0.00000     0.00000     1.25520  0.0
    723    692    693    694   5     0.00000     0.00000     1.25520  0.0
    723    692    693    725   5     0.00000     0.00000     1.25520  0.0
    723    692    693    726   5     0.00000     0.00000     1.25520  0.0
    724    692    693    694   5     0.00000     0.00000     1.25520  0.0
    724    692    693    725   5     0.00000     0.00000     1.25520  0.0
    724    692    693    726   5     0.00000     0.00000     1.25520  0.0
    692    693    694    695   5     3.67355     4.10869     2.37651  0.0
    692    693    694    727   5     0.00000     0.00000     1.25520  0.0
    692    693    694    728   5     0.00000     0.00000     1.25520  0.0
    725    693    694    695   5     0.00000     0.00000     1.25520  0.0
    725    693    694    727   5     0.00000     0.00000     1.25520  0.0
    725    693    694    728   5     0.00000     0.00000     1.25520  0.0
    726    693    694    695   5     0.00000     0.00000     1.25520  0.0
    726    693    694    727   5     0.00000     0.00000     1.25520  0.0
    726    693    694    728   5     0.00000     0.00000     1.25520  0.0
    693    694    695    729   5     0.00000     0.00000     0.00000  0.0
    693    694    695    730   5    -3.67774    -0.67781     0.28033  0.0
    727    694    695    729   5     0.00000     0.00000     0.00000  0.0
    727    694    695    730   5     0.00000     0.00000     0.00000  0.0
    728    694    695    729   5     0.00000     0.00000     0.00000  0.0
    728    694    695    730   5     0.00000     0.00000     0.00000  0.0
    694    695    730    731   5     0.00000    25.47638     0.00000  0.0
    694    695    730    732   5    12.53945    12.88254     0.00000  0.0
    729    695    730    731   5     0.00000    20.50160     0.00000  0.0
    729    695    730    732   5     0.00000    20.50160     0.00000  0.0
    695    730    732    733   5    11.69428    -0.66526    -1.56900  0.0
    695    730    732    752   5     0.00000     0.00000     0.00000  0.0
    695    730    732    753   5     0.00000     0.00000     0.00000  0.0
    731    730    732    733   5     0.00000     2.52295     0.00000  0.0
    731    730    732    752   5     0.00000     0.00000     0.00000  0.0
    731    730    732    753   5     0.00000     0.00000     0.00000  0.0
    730    732    733    734   5    -8.00818    -1.52298     2.46438  0.0
    730    732    733    754   5     0.00000     0.00000    -0.94140  0.0
    730    732    733    755   5     0.00000     0.00000    -0.94140  0.0
    752    732    733    734   5     0.00000     0.00000     1.25520  0.0
    752    732    733    754   5     0.00000     0.00000     1.25520  0.0
    752    732    733    755   5     0.00000     0.00000     1.25520  0.0
    753    732    733    734   5     0.00000     0.00000     1.25520  0.0
    753    732    733    754   5     0.00000     0.00000     1.25520  0.0
    753    732    733    755   5     0.00000     0.00000     1.25520  0.0
    732    733    734    735   5     4.74884    -0.63178     1.67360  0.0
    732    733    734    756   5     0.00000     0.00000     1.25520  0.0
    732    733    734    757   5     0.00000     0.00000     1.25520  0.0
    754    733    734    735   5     0.00000     0.00000     1.25520  0.0
    754    733    734    756   5     0.00000     0.00000     1.25520  0.0
    754    733    734    757   5     0.00000     0.00000     1.25520  0.0
    755    733    734    735   5     0.00000     0.00000     1.25520  0.0
    755    733    734    756   5     0.00000     0.00000     1.25520  0.0
    755    733    734    757   5     0.00000     0.00000     1.25520  0.0
    733    734    735    736   5     4.74884    -0.63178     1.67360  0.0
    733    734    735    758   5     0.00000     0.00000     1.25520  0.0
    733    734    735    759   5     0.00000     0.00000     1.25520  0.0
    756    734    735    736   5     0.00000     0.00000     1.25520  0.0
    756    734    735    758   5     0.00000     0.00000     1.25520  0.0
    756    734    735    759   5     0.00000     0.00000     1.25520  0.0
    757    734    735    736   5     0.00000     0.00000     1.25520  0.0
    757    734    735    758   5     0.00000     0.00000     1.25520  0.0
    757    734    735    759   5     0.00000     0.00000     1.25520  0.0
    734    735    736    737   5     4.74884    -0.63178     1.67360  0.0
    734    735    736    760   5     0.00000     0.00000     1.25520  0.0
    734    735    736    761   5     0.00000     0.00000     1.25520  0.0
    758    735    736    737   5     0.00000     0.00000     1.25520  0.0
    758    735    736    760   5     0.00000     0.00000     1.25520  0.0
    758    735    736    761   5     0.00000     0.00000     1.25520  0.0
    759    735    736    737   5     0.00000     0.00000     1.25520  0.0
    759    735    736    760   5     0.00000     0.00000     1.25520  0.0
    759    735    736    761   5     0.00000     0.00000     1.25520  0.0
    735    736    737    738   5     4.74884    -0.63178     1.67360  0.0
    735    736    737    762   5     0.00000     0.00000     1.25520  0.0
    735    736    737    763   5     0.00000     0.00000     1.25520  0.0
    760    736    737    738   5     0.00000     0.00000     1.25520  0.0
    760    736    737    762   5     0.00000     0.00000     1.25520  0.0
    760    736    737    763   5     0.00000     0.00000     1.25520  0.0
    761    736    737    738   5     0.00000     0.00000     1.25520  0.0
    761    736    737    762   5     0.00000     0.00000     1.25520  0.0
    761    736    737    763   5     0.00000     0.00000     1.25520  0.0
    736    737    738    739   5     4.74884    -0.63178     1.67360  0.0
    736    737    738    764   5     0.00000     0.00000     1.25520  0.0
    736    737    738    765   5     0.00000     0.00000     1.25520  0.0
    762    737    738    739   5     0.00000     0.00000     1.25520  0.0
    762    737    738    764   5     0.00000     0.00000     1.25520  0.0
    762    737    738    765   5     0.00000     0.00000     1.25520  0.0
    763    737    738    739   5     0.00000     0.00000     1.25520  0.0
    763    737    738    764   5     0.00000     0.00000     1.25520  0.0
    763    737    738    765   5     0.00000     0.00000     1.25520  0.0
    737    738    739    740   5     4.74884    -0.63178     1.67360  0.0
    737    738    739    766   5     0.00000     0.00000     1.25520  0.0
    737    738    739    767   5     0.00000     0.00000     1.25520  0.0
    764    738    739    740   5     0.00000     0.00000     1.25520  0.0
    764    738    739    766   5     0.00000     0.00000     1.25520  0.0
    764    738    739    767   5     0.00000     0.00000     1.25520  0.0
    765    738    739    740   5     0.00000     0.00000     1.25520  0.0
    765    738    739    766   5     0.00000     0.00000     1.25520  0.0
    765    738    739    767   5     0.00000     0.00000     1.25520  0.0
    738    739    740    741   5     4.74884    -0.63178     1.67360  0.0
    738    739    740    768   5     0.00000     0.00000     1.25520  0.0
    738    739    740    769   5     0.00000     0.00000     1.25520  0.0
    766    739    740    741   5     0.00000     0.00000     1.25520  0.0
    766    739    740    768   5     0.00000     0.00000     1.25520  0.0
    766    739    740    769   5     0.00000     0.00000     1.25520  0.0
    767    739    740    741   5     0.00000     0.00000     1.25520  0.0
    767    739    740    768   5     0.00000     0.00000     1.25520  0.0
    767    739    740    769   5     0.00000     0.00000     1.25520  0.0
    739    740    741    742   5    -8.00818    -1.52298     2.46438  0.0
    739    740    741    770   5     0.00000     0.00000     1.25520  0.0
    739    740    741    771   5     0.00000     0.00000     1.25520  0.0
    768    740    741    742   5     0.00000     0.00000    -0.94140  0.0
    768    740    741    770   5     0.00000     0.00000     1.25520  0.0
    768    740    741    771   5     0.00000     0.00000     1.25520  0.0
    769    740    741    742   5     0.00000     0.00000    -0.94140  0.0
    769    740    741    770   5     0.00000     0.00000     1.25520  0.0
    769    740    741    771   5     0.00000     0.00000     1.25520  0.0
    740    741    742    743   5     0.00000     2.52295     0.00000  0.0
    740    741    742    744   5    11.69428    -0.66526    -1.56900  0.0
    770    741    742    743   5     0.00000     0.00000     0.00000  0.0
    770    741    742    744   5     0.00000     0.00000     0.00000  0.0
    771    741    742    743   5     0.00000     0.00000     0.00000  0.0
    771    741    742    744   5     0.00000     0.00000     0.00000  0.0
    741    742    744    745   5    12.53945    12.88254     0.00000  0.0
    741    742    744    772   5     0.00000    20.50160     0.00000  0.0
    743    742    744    745   5     0.00000    25.47638     0.00000  0.0
    743    742    744    772   5     0.00000    20.50160     0.00000  0.0
    742    744    745    746   5    -3.67774    -0.67781     0.28033  0.0
    742    744    745    773   5     0.00000     0.00000     0.00000  0.0
    742    744    745    774   5     0.00000     0.00000     0.00000  0.0
    772    744    745    746   5     0.00000     0.00000     0.00000  0.0
    772    744    745    773   5     0.00000     0.00000     0.00000  0.0
    772    744    745    774   5     0.00000     0.00000     0.00000  0.0
    744    745    746    747   5     3.67355     4.10869     2.37651  0.0
    744    745    746    775   5     0.00000     0.00000     1.25520  0.0
    744    745    746    776   5     0.00000     0.00000     1.25520  0.0
    773    745    746    747   5     0.00000     0.00000     1.25520  0.0
    773    745    746    775   5     0.00000     0.00000     1.25520  0.0
    773    745    746    776   5     0.00000     0.00000     1.25520  0.0
    774    745    746    747   5     0.00000     0.00000     1.25520  0.0
    774    745    746    775   5     0.00000     0.00000     1.25520  0.0
    774    745    746    776   5     0.00000     0.00000     1.25520  0.0
    745    746    747    748   5     4.74884    -0.63178     1.67360  0.0
    745    746    747    777   5     0.00000     0.00000     1.25520  0.0
    745    746    747    778   5     0.00000     0.00000     1.25520  0.0
    775    746    747    748   5     0.00000     0.00000     1.25520  0.0
    775    746    747    777   5     0.00000     0.00000     1.25520  0.0
    775    746    747    778   5     0.00000     0.00000     1.25520  0.0
    776    746    747    748   5     0.00000     0.00000     1.25520  0.0
    776    746    747    777   5     0.00000     0.00000     1.25520  0.0
    776    746    747    778   5     0.00000     0.00000     1.25520  0.0
    746    747    748    749   5     4.74884    -0.63178     1.67360  0.0
    746    747    748    779   5     0.00000     0.00000     1.25520  0.0
    746    747    748    780   5     0.00000     0.00000     1.25520  0.0
    777    747    748    749   5     0.00000     0.00000     1.25520  0.0
    777    747    748    779   5     0.00000     0.00000     1.25520  0.0
    777    747    748    780   5     0.00000     0.00000     1.25520  0.0
    778    747    748    749   5     0.00000     0.00000     1.25520  0.0
    778    747    748    779   5     0.00000     0.00000     1.25520  0.0
    778    747    748    780   5     0.00000     0.00000     1.25520  0.0
    747    748    749    750   5     4.74884    -0.63178     1.67360  0.0
    747    748    749    781   5     0.00000     0.00000     1.25520  0.0
    747    748    749    782   5     0.00000     0.00000     1.25520  0.0
    779    748    749    750   5     0.00000     0.00000     1.25520  0.0
    779    748    749    781   5     0.00000     0.00000     1.25520  0.0
    779    748    749    782   5     0.00000     0.00000     1.25520  0.0
    780    748    749    750   5     0.00000     0.00000     1.25520  0.0
    780    748    749    781   5     0.00000     0.00000     1.25520  0.0
    780    748    749    782   5     0.00000     0.00000     1.25520  0.0
    748    749    750    751   5     3.67355     4.10869     2.37651  0.0
    748    749    750    783   5     0.00000     0.00000     1.25520  0.0
    748    749    750    784   5     0.00000     0.00000     1.25520  0.0
    781    749    750    751   5     0.00000     0.00000     1.25520  0.0
    781    749    750    783   5     0.00000     0.00000     1.25520  0.0
    781    749    750    784   5     0.00000     0.00000     1.25520  0.0
    782    749    750    751   5     0.00000     0.00000     1.25520  0.0
    782    749    750    783   5     0.00000     0.00000     1.25520  0.0
    782    749    750    784   5     0.00000     0.00000     1.25520  0.0
    749    750    751    785   5     0.00000     0.00000     0.00000  0.0
    749    750    751    786   5    -3.67774    -0.67781     0.28033  0.0
    783    750    751    785   5     0.00000     0.00000     0.00000  0.0
    783    750    751    786   5     0.00000     0.00000     0.00000  0.0
    784    750    751    785   5     0.00000     0.00000     0.00000  0.0
    784    750    751    786   5     0.00000     0.00000     0.00000  0.0
    750    751    786    787   5     0.00000    25.47638     0.00000  0.0
    750    751    786    788   5    12.53945    12.88254     0.00000  0.0
    785    751    786    787   5     0.00000    20.50160     0.00000  0.0
    785    751    786    788   5     0.00000    20.50160     0.00000  0.0
    751    786    788    789   5    11.69428    -0.66526    -1.56900  0.0
    751    786    788    808   5     0.00000     0.00000     0.00000  0.0
    751    786    788    809   5     0.00000     0.00000     0.00000  0.0
    787    786    788    789   5     0.00000     2.52295     0.00000  0.0
    787    786    788    808   5     0.00000     0.00000     0.00000  0.0
    787    786    788    809   5     0.00000     0.00000     0.00000  0.0
    786    788    789    790   5    -8.00818    -1.52298     2.46438  0.0
    786    788    789    810   5     0.00000     0.00000    -0.94140  0.0
    786    788    789    811   5     0.00000     0.00000    -0.94140  0.0
    808    788    789    790   5     0.00000     0.00000     1.25520  0.0
    808    788    789    810   5     0.00000     0.00000     1.25520  0.0
    808    788    789    811   5     0.00000     0.00000     1.25520  0.0
    809    788    789    790   5     0.00000     0.00000     1.25520  0.0
    809    788    789    810   5     0.00000     0.00000     1.25520  0.0
    809    788    789    811   5     0.00000     0.00000     1.25520  0.0
    788    789    790    791   5     4.74884    -0.63178     1.67360  0.0
    788    789    790    812   5     0.00000     0.00000     1.25520  0.0
    788    789    790    813   5     0.00000     0.00000     1.25520  0.0
    810    789    790    791   5     0.00000     0.00000     1.25520  0.0
    810    789    790    812   5     0.00000     0.00000     1.25520  0.0
    810    789    790    813   5     0.00000     0.00000     1.25520  0.0
    811    789    790    791   5     0.00000     0.00000     1.25520  0.0
    811    789    790    812   5     0.00000     0.00000     1.25520  0.0
    811    789    790    813   5     0.00000     0.00000     1.25520  0.0
    789    790    791    792   5     4.74884    -0.63178     1.67360  0.0
    789    790    791    814   5     0.00000     0.00000     1.25520  0.0
    789    790    791    815   5     0.00000     0.00000     1.25520  0.0
    812    790    791    792   5     0.00000     0.00000     1.25520  0.0
    812    790    791    814   5     0.00000     0.00000     1.25520  0.0
    812    790    791    815   5     0.00000     0.00000     1.25520  0.0
    813    790    791    792   5     0.00000     0.00000     1.25520  0.0
    813    790    791    814   5     0.00000     0.00000     1.25520  0.0
    813    790    791    815   5     0.00000     0.00000     1.25520  0.0
    790    791    792    793   5     4.74884    -0.63178     1.67360  0.0
    790    791    792    816   5     0.00000     0.00000     1.25520  0.0
    790    791    792    817   5     0.00000     0.00000     1.25520  0.0
    814    791    792    793   5     0.00000     0.00000     1.25520  0.0
    814    791    792    816   5     0.00000     0.00000     1.25520  0.0
    814    791    792    817   5     0.00000     0.00000     1.25520  0.0
    815    791    792    793   5     0.00000     0.00000     1.25520  0.0
    815    791    792    816   5     0.00000     0.00000     1.25520  0.0
    815    791    792    817   5     0.00000     0.00000     1.25520  0.0
    791    792    793    794   5     4.74884    -0.63178     1.67360  0.0
    791    792    793    818   5     0.00000     0.00000     1.25520  0.0
    791    792    793    819   5     0.00000     0.00000     1.25520  0.0
    816    792    793    794   5     0.00000     0.00000     1.25520  0.0
    816    792    793    818   5     0.00000     0.00000     1.25520  0.0
    816    792    793    819   5     0.00000     0.00000     1.25520  0.0
    817    792    793    794   5     0.00000     0.00000     1.25520  0.0
    817    792    793    818   5     0.00000     0.00000     1.25520  0.0
    817    792    793    819   5     0.00000     0.00000     1.25520  0.0
    792    793    794    795   5     4.74884    -0.63178     1.67360  0.0
    792    793    794    820   5     0.00000     0.00000     1.25520  0.0
    792    793    794    821   5     0.00000     0.00000     1.25520  0.0
    818    793    794    795   5     0.00000     0.00000     1.25520  0.0
    818    793    794    820   5     0.00000     0.00000     1.25520  0.0
    818    793    794    821   5     0.00000     0.00000     1.25520  0.0
    819    793    794    795   5     0.00000     0.00000     1.25520  0.0
    819    793    794    820   5     0.00000     0.00000     1.25520  0.0
    819    793    794    821   5     0.00000     0.00000     1.25520  0.0
    793    794    795    796   5     4.74884    -0.63178     1.67360  0.0
    793    794    795    822   5     0.00000     0.00000     1.25520  0.0
    793    794    795    823   5     0.00000     0.00000     1.25520  0.0
    820    794    795    796   5     0.00000     0.00000     1.25520  0.0
    820    794    795    822   5     0.00000     0.00000     1.25520  0.0
    820    794    795    823   5     0.00000     0.00000     1.25520  0.0
    821    794    795    796   5     0.00000     0.00000     1.25520  0.0
    821    794    795    822   5     0.00000     0.00000     1.25520  0.0
    821    794    795    823   5     0.00000     0.00000     1.25520  0.0
    794    795    796    797   5     4.74884    -0.63178     1.67360  0.0
    794    795    796    824   5     0.00000     0.00000     1.25520  0.0
    794    795    796    825   5     0.00000     0.00000     1.25520  0.0
    822    795    796    797   5     0.00000     0.00000     1.25520  0.0
    822    795    796    824   5     0.00000     0.00000     1.25520  0.0
    822    795    796    825   5     0.00000     0.00000     1.25520  0.0
    823    795    796    797   5     0.00000     0.00000     1.25520  0.0
    823    795    796    824   5     0.00000     0.00000     1.25520  0.0
    823    795    796    825   5     0.00000     0.00000     1.25520  0.0
    795    796    797    798   5    -8.00818    -1.52298     2.46438  0.0
    795    796    797    826   5     0.00000     0.00000     1.25520  0.0
    795    796    797    827   5     0.00000     0.00000     1.25520  0.0
    824    796    797    798   5     0.00000     0.00000    -0.94140  0.0
    824    796    797    826   5     0.00000     0.00000     1.25520  0.0
    824    796    797    827   5     0.00000     0.00000     1.25520  0.0
    825    796    797    798   5     0.00000     0.00000    -0.94140  0.0
    825    796    797    826   5     0.00000     0.00000     1.25520  0.0
    825    796    797    827   5     0.00000     0.00000     1.25520  0.0
    796    797    798    799   5     0.00000     2.52295     0.00000  0.0
    796    797    798    800   5    11.69428    -0.66526    -1.56900  0.0
    826    797    798    799   5     0.00000     0.00000     0.00000  0.0
    826    797    798    800   5     0.00000     0.00000     0.00000  0.0
    827    797    798    799   5     0.00000     0.00000     0.00000  0.0
    827    797    798    800   5     0.00000     0.00000     0.00000  0.0
    797    798    800    801   5    12.53945    12.88254     0.00000  0.0
    797    798    800    828   5     0.00000    20.50160     0.00000  0.0
    799    798    800    801   5     0.00000    25.47638     0.00000  0.0
    799    798    800    828   5     0.00000    20.50160     0.00000  0.0
    798    800    801    802   5    -3.67774    -0.67781     0.28033  0.0
    798    800    801    829   5     0.00000     0.00000     0.00000  0.0
    798    800    801    830   5     0.00000     0.00000     0.00000  0.0
    828    800    801    802   5     0.00000     0.00000     0.00000  0.0
    828    800    801    829   5     0.00000     0.00000     0.00000  0.0
    828    800    801    830   5     0.00000     0.00000     0.00000  0.0
    800    801    802    803   5     3.67355     4.10869     2.37651  0.0
    800    801    802    831   5     0.00000     0.00000     1.25520  0.0
    800    801    802    832   5     0.00000     0.00000     1.25520  0.0
    829    801    802    803   5     0.00000     0.00000     1.25520  0.0
    829    801    802    831   5     0.00000     0.00000     1.25520  0.0
    829    801    802    832   5     0.00000     0.00000     1.25520  0.0
    830    801    802    803   5     0.00000     0.00000     1.25520  0.0
    830    801    802    831   5     0.00000     0.00000     1.25520  0.0
    830    801    802    832   5     0.00000     0.00000     1.25520  0.0
    801    802    803    804   5     4.74884    -0.63178     1.67360  0.0
    801    802    803    833   5     0.00000     0.00000     1.25520  0.0
    801    802    803    834   5     0.00000     0.00000     1.25520  0.0
    831    802    803    804   5     0.00000     0.00000     1.25520  0.0
    831    802    803    833   5     0.00000     0.00000     1.25520  0.0
    831    802    803    834   5     0.00000     0.00000     1.25520  0.0
    832    802    803    804   5     0.00000     0.00000     1.25520  0.0
    832    802    803    833   5     0.00000     0.00000     1.25520  0.0
    832    802    803    834   5     0.00000     0.00000     1.25520  0.0
    802    803    804    805   5     4.74884    -0.63178     1.67360  0.0
    802    803    804    835   5     0.00000     0.00000     1.25520  0.0
    802    803    804    836   5     0.00000     0.00000     1.25520  0.0
    833    803    804    805   5     0.00000     0.00000     1.25520  0.0
    833    803    804    835   5     0.00000     0.00000     1.25520  0.0
    833    803    804    836   5     0.00000     0.00000     1.25520  0.0
    834    803    804    805   5     0.00000     0.00000     1.25520  0.0
    834    803    804    835   5     0.00000     0.00000     1.25520  0.0
    834    803    804    836   5     0.00000     0.00000     1.25520  0.0
    803    804    805    806   5     4.74884    -0.63178     1.67360  0.0
    803    804    805    837   5     0.00000     0.00000     1.25520  0.0
    803    804    805    838   5     0.00000     0.00000     1.25520  0.0
    835    804    805    806   5     0.00000     0.00000     1.25520  0.0
    835    804    805    837   5     0.00000     0.00000     1.25520  0.0
    835    804    805    838   5     0.00000     0.00000     1.25520  0.0
    836    804    805    806   5     0.00000     0.00000     1.25520  0.0
    836    804    805    837   5     0.00000     0.00000     1.25520  0.0
    836    804    805    838   5     0.00000     0.00000     1.25520  0.0
    804    805    806    807   5     3.67355     4.10869     2.37651  0.0
    804    805    806    839   5     0.00000     0.00000     1.25520  0.0
    804    805    806    840   5     0.00000     0.00000     1.25520  0.0
    837    805    806    807   5     0.00000     0.00000     1.25520  0.0
    837    805    806    839   5     0.00000     0.00000     1.25520  0.0
    837    805    806    840   5     0.00000     0.00000     1.25520  0.0
    838    805    806    807   5     0.00000     0.00000     1.25520  0.0
    838    805    806    839   5     0.00000     0.00000     1.25520  0.0
    838    805    806    840   5     0.00000     0.00000     1.25520  0.0
    805    806    807    841   5     0.00000     0.00000     0.00000  0.0
    805    806    807    842   5    -3.67774    -0.67781     0.28033  0.0
    839    806    807    841   5     0.00000     0.00000     0.00000  0.0
    839    806    807    842   5     0.00000     0.00000     0.00000  0.0
    840    806    807    841   5     0.00000     0.00000     0.00000  0.0
    840    806    807    842   5     0.00000     0.00000     0.00000  0.0
    806    807    842    843   5     0.00000    25.47638     0.00000  0.0
    806    807    842    844   5    12.53945    12.88254     0.00000  0.0
    841    807    842    843   5     0.00000    20.50160     0.00000  0.0
    841    807    842    844   5     0.00000    20.50160     0.00000  0.0
    807    842    844    845   5    11.69428    -0.66526    -1.56900  0.0
    807    842    844    864   5     0.00000     0.00000     0.00000  0.0
    807    842    844    865   5     0.00000     0.00000     0.00000  0.0
    843    842    844    845   5     0.00000     2.52295     0.00000  0.0
    843    842    844    864   5     0.00000     0.00000     0.00000  0.0
    843    842    844    865   5     0.00000     0.00000     0.00000  0.0
    842    844    845    846   5    -8.00818    -1.52298     2.46438  0.0
    842    844    845    866   5     0.00000     0.00000    -0.94140  0.0
    842    844    845    867   5     0.00000     0.00000    -0.94140  0.0
    864    844    845    846   5     0.00000     0.00000     1.25520  0.0
    864    844    845    866   5     0.00000     0.00000     1.25520  0.0
    864    844    845    867   5     0.00000     0.00000     1.25520  0.0
    865    844    845    846   5     0.00000     0.00000     1.25520  0.0
    865    844    845    866   5     0.00000     0.00000     1.25520  0.0
    865    844    845    867   5     0.00000     0.00000     1.25520  0.0
    844    845    846    847   5     4.74884    -0.63178     1.67360  0.0
    844    845    846    868   5     0.00000     0.00000     1.25520  0.0
    844    845    846    869   5     0.00000     0.00000     1.25520  0.0
    866    845    846    847   5     0.00000     0.00000     1.25520  0.0
    866    845    846    868   5     0.00000     0.00000     1.25520  0.0
    866    845    846    869   5     0.00000     0.00000     1.25520  0.0
    867    845    846    847   5     0.00000     0.00000     1.25520  0.0
    867    845    846    868   5     0.00000     0.00000     1.25520  0.0
    867    845    846    869   5     0.00000     0.00000     1.25520  0.0
    845    846    847    848   5     4.74884    -0.63178     1.67360  0.0
    845    846    847    870   5     0.00000     0.00000     1.25520  0.0
    845    846    847    871   5     0.00000     0.00000     1.25520  0.0
    868    846    847    848   5     0.00000     0.00000     1.25520  0.0
    868    846    847    870   5     0.00000     0.00000     1.25520  0.0
    868    846    847    871   5     0.00000     0.00000     1.25520  0.0
    869    846    847    848   5     0.00000     0.00000     1.25520  0.0
    869    846    847    870   5     0.00000     0.00000     1.25520  0.0
    869    846    847    871   5     0.00000     0.00000     1.25520  0.0
    846    847    848    849   5     4.74884    -0.63178     1.67360  0.0
    846    847    848    872   5     0.00000     0.00000     1.25520  0.0
    846    847    848    873   5     0.00000     0.00000     1.25520  0.0
    870    847    848    849   5     0.00000     0.00000     1.25520  0.0
    870    847    848    872   5     0.00000     0.00000     1.25520  0.0
    870    847    848    873   5     0.00000     0.00000     1.25520  0.0
    871    847    848    849   5     0.00000     0.00000     1.25520  0.0
    871    847    848    872   5     0.00000     0.00000     1.25520  0.0
    871    847    848    873   5     0.00000     0.00000     1.25520  0.0
    847    848    849    850   5     4.74884    -0.63178     1.67360  0.0
    847    848    849    874   5     0.00000     0.00000     1.25520  0.0
    847    848    849    875   5     0.00000     0.00000     1.25520  0.0
    872    848    849    850   5     0.00000     0.00000     1.25520  0.0
    872    848    849    874   5     0.00000     0.00000     1.25520  0.0
    872    848    849    875   5     0.00000     0.00000     1.25520  0.0
    873    848    849    850   5     0.00000     0.00000     1.25520  0.0
    873    848    849    874   5     0.00000     0.00000     1.25520  0.0
    873    848    849    875   5     0.00000     0.00000     1.25520  0.0
    848    849    850    851   5     4.74884    -0.63178     1.67360  0.0
    848    849    850    876   5     0.00000     0.00000     1.25520  0.0
    848    849    850    877   5     0.00000     0.00000     1.25520  0.0
    874    849    850    851   5     0.00000     0.00000     1.25520  0.0
    874    849    850    876   5     0.00000     0.00000     1.25520  0.0
    874    849    850    877   5     0.00000     0.00000     1.25520  0.0
    875    849    850    851   5     0.00000     0.00000     1.25520  0.0
    875    849    850    876   5     0.00000     0.00000     1.25520  0.0
    875    849    850    877   5     0.00000     0.00000     1.25520  0.0
    849    850    851    852   5     4.74884    -0.63178     1.67360  0.0
    849    850    851    878   5     0.00000     0.00000     1.25520  0.0
    849    850    851    879   5     0.00000     0.00000     1.25520  0.0
    876    850    851    852   5     0.00000     0.00000     1.25520  0.0
    876    850    851    878   5     0.00000     0.00000     1.25520  0.0
    876    850    851    879   5     0.00000     0.00000     1.25520  0.0
    877    850    851    852   5     0.00000     0.00000     1.25520  0.0
    877    850    851    878   5     0.00000     0.00000     1.25520  0.0
    877    850    851    879   5     0.00000     0.00000     1.25520  0.0
    850    851    852    853   5     4.74884    -0.63178     1.67360  0.0
    850    851    852    880   5     0.00000     0.00000     1.25520  0.0
    850    851    852    881   5     0.00000     0.00000     1.25520  0.0
    878    851    852    853   5     0.00000     0.00000     1.25520  0.0
    878    851    852    880   5     0.00000     0.00000     1.25520  0.0
    878    851    852    881   5     0.00000     0.00000     1.25520  0.0
    879    851    852    853   5     0.00000     0.00000     1.25520  0.0
    879    851    852    880   5     0.00000     0.00000     1.25520  0.0
    879    851    852    881   5     0.00000     0.00000     1.25520  0.0
    851    852    853    854   5    -8.00818    -1.52298     2.46438  0.0
    851    852    853    882   5     0.00000     0.00000     1.25520  0.0
    851    852    853    883   5     0.00000     0.00000     1.25520  0.0
    880    852    853    854   5     0.00000     0.00000    -0.94140  0.0
    880    852    853    882   5     0.00000     0.00000     1.25520  0.0
    880    852    853    883   5     0.00000     0.00000     1.25520  0.0
    881    852    853    854   5     0.00000     0.00000    -0.94140  0.0
    881    852    853    882   5     0.00000     0.00000     1.25520  0.0
    881    852    853    883   5     0.00000     0.00000     1.25520  0.0
    852    853    854    855   5     0.00000     2.52295     0.00000  0.0
    852    853    854    856   5    11.69428    -0.66526    -1.56900  0.0
    882    853    854    855   5     0.00000     0.00000     0.00000  0.0
    882    853    854    856   5     0.00000     0.00000     0.00000  0.0
    883    853    854    855   5     0.00000     0.00000     0.00000  0.0
    883    853    854    856   5     0.00000     0.00000     0.00000  0.0
    853    854    856    857   5    12.53945    12.88254     0.00000  0.0
    853    854    856    884   5     0.00000    20.50160     0.00000  0.0
    855    854    856    857   5     0.00000    25.47638     0.00000  0.0
    855    854    856    884   5     0.00000    20.50160     0.00000  0.0
    854    856    857    858   5    -3.67774    -0.67781     0.28033  0.0
    854    856    857    885   5     0.00000     0.00000     0.00000  0.0
    854    856    857    886   5     0.00000     0.00000     0.00000  0.0
    884    856    857    858   5     0.00000     0.00000     0.00000  0.0
    884    856    857    885   5     0.00000     0.00000     0.00000  0.0
    884    856    857    886   5     0.00000     0.00000     0.00000  0.0
    856    857    858    859   5     3.67355     4.10869     2.37651  0.0
    856    857    858    887   5     0.00000     0.00000     1.25520  0.0
    856    857    858    888   5     0.00000     0.00000     1.25520  0.0
    885    857    858    859   5     0.00000     0.00000     1.25520  0.0
    885    857    858    887   5     0.00000     0.00000     1.25520  0.0
    885    857    858    888   5     0.00000     0.00000     1.25520  0.0
    886    857    858    859   5     0.00000     0.00000     1.25520  0.0
    886    857    858    887   5     0.00000     0.00000     1.25520  0.0
    886    857    858    888   5     0.00000     0.00000     1.25520  0.0
    857    858    859    860   5     4.74884    -0.63178     1.67360  0.0
    857    858    859    889   5     0.00000     0.00000     1.25520  0.0
    857    858    859    890   5     0.00000     0.00000     1.25520  0.0
    887    858    859    860   5     0.00000     0.00000     1.25520  0.0
    887    858    859    889   5     0.00000     0.00000     1.25520  0.0
    887    858    859    890   5     0.00000     0.00000     1.25520  0.0
    888    858    859    860   5     0.00000     0.00000     1.25520  0.0
    888    858    859    889   5     0.00000     0.00000     1.25520  0.0
    888    858    859    890   5     0.00000     0.00000     1.25520  0.0
    858    859    860    861   5     4.74884    -0.63178     1.67360  0.0
    858    859    860    891   5     0.00000     0.00000     1.25520  0.0
    858    859    860    892   5     0.00000     0.00000     1.25520  0.0
    889    859    860    861   5     0.00000     0.00000     1.25520  0.0
    889    859    860    891   5     0.00000     0.00000     1.25520  0.0
    889    859    860    892   5     0.00000     0.00000     1.25520  0.0
    890    859    860    861   5     0.00000     0.00000     1.25520  0.0
    890    859    860    891   5     0.00000     0.00000     1.25520  0.0
    890    859    860    892   5     0.00000     0.00000     1.25520  0.0
    859    860    861    862   5     4.74884    -0.63178     1.67360  0.0
    859    860    861    893   5     0.00000     0.00000     1.25520  0.0
    859    860    861    894   5     0.00000     0.00000     1.25520  0.0
    891    860    861    862   5     0.00000     0.00000     1.25520  0.0
    891    860    861    893   5     0.00000     0.00000     1.25520  0.0
    891    860    861    894   5     0.00000     0.00000     1.25520  0.0
    892    860    861    862   5     0.00000     0.00000     1.25520  0.0
    892    860    861    893   5     0.00000     0.00000     1.25520  0.0
    892    860    861    894   5     0.00000     0.00000     1.25520  0.0
    860    861    862    863   5     3.67355     4.10869     2.37651  0.0
    860    861    862    895   5     0.00000     0.00000     1.25520  0.0
    860    861    862    896   5     0.00000     0.00000     1.25520  0.0
    893    861    862    863   5     0.00000     0.00000     1.25520  0.0
    893    861    862    895   5     0.00000     0.00000     1.25520  0.0
    893    861    862    896   5     0.00000     0.00000     1.25520  0.0
    894    861    862    863   5     0.00000     0.00000     1.25520  0.0
    894    861    862    895   5     0.00000     0.00000     1.25520  0.0
    894    861    862    896   5     0.00000     0.00000     1.25520  0.0
    861    862    863    897   5     0.00000     0.00000     0.00000  0.0
    861    862    863    898   5    -3.67774    -0.67781     0.28033  0.0
    895    862    863    897   5     0.00000     0.00000     0.00000  0.0
    895    862    863    898   5     0.00000     0.00000     0.00000  0.0
    896    862    863    897   5     0.00000     0.00000     0.00000  0.0
    896    862    863    898   5     0.00000     0.00000     0.00000  0.0
    862    863    898    899   5     0.00000    25.47638     0.00000  0.0
    862    863    898    900   5    12.53945    12.88254     0.00000  0.0
    897    863    898    899   5     0.00000    20.50160     0.00000  0.0
    897    863    898    900   5     0.00000    20.50160     0.00000  0.0
    863    898    900    901   5    11.69428    -0.66526    -1.56900  0.0
    863    898    900    920   5     0.00000     0.00000     0.00000  0.0
    863    898    900    921   5     0.00000     0.00000     0.00000  0.0
    899    898    900    901   5     0.00000     2.52295     0.00000  0.0
    899    898    900    920   5     0.00000     0.00000     0.00000  0.0
    899    898    900    921   5     0.00000     0.00000     0.00000  0.0
    898    900    901    902   5    -8.00818    -1.52298     2.46438  0.0
    898    900    901    922   5     0.00000     0.00000    -0.94140  0.0
    898    900    901    923   5     0.00000     0.00000    -0.94140  0.0
    920    900    901    902   5     0.00000     0.00000     1.25520  0.0
    920    900    901    922   5     0.00000     0.00000     1.25520  0.0
    920    900    901    923   5     0.00000     0.00000     1.25520  0.0
    921    900    901    902   5     0.00000     0.00000     1.25520  0.0
    921    900    901    922   5     0.00000     0.00000     1.25520  0.0
    921    900    901    923   5     0.00000     0.00000     1.25520  0.0
    900    901    902    903   5     4.74884    -0.63178     1.67360  0.0
    900    901    902    924   5     0.00000     0.00000     1.25520  0.0
    900    901    902    925   5     0.00000     0.00000     1.25520  0.0
    922    901    902    903   5     0.00000     0.00000     1.25520  0.0
    922    901    902    924   5     0.00000     0.00000     1.25520  0.0
    922    901    902    925   5     0.00000     0.00000     1.25520  0.0
    923    901    902    903   5     0.00000     0.00000     1.25520  0.0
    923    901    902    924   5     0.00000     0.00000     1.25520  0.0
    923    901    902    925   5     0.00000     0.00000     1.25520  0.0
    901    902    903    904   5     4.74884    -0.63178     1.67360  0.0
    901    902    903    926   5     0.00000     0.00000     1.25520  0.0
    901    902    903    927   5     0.00000     0.00000     1.25520  0.0
    924    902    903    904   5     0.00000     0.00000     1.25520  0.0
    924    902    903    926   5     0.00000     0.00000     1.25520  0.0
    924    902    903    927   5     0.00000     0.00000     1.25520  0.0
    925    902    903    904   5     0.00000     0.00000     1.25520  0.0
    925    902    903    926   5     0.00000     0.00000     1.25520  0.0
    925    902    903    927   5     0.00000     0.00000     1.25520  0.0
    902    903    904    905   5     4.74884    -0.63178     1.67360  0.0
    902    903    904    928   5     0.00000     0.00000     1.25520  0.0
    902    903    904    929   5     0.00000     0.00000     1.25520  0.0
    926    903    904    905   5     0.00000     0.00000     1.25520  0.0
    926    903    904    928   5     0.00000     0.00000     1.25520  0.0
    926    903    904    929   5     0.00000     0.00000     1.25520  0.0
    927    903    904    905   5     0.00000     0.00000     1.25520  0.0
    927    903    904    928   5     0.00000     0.00000     1.25520  0.0
    927    903    904    929   5     0.00000     0.00000     1.25520  0.0
    903    904    905    906   5     4.74884    -0.63178     1.67360  0.0
    903    904    905    930   5     0.00000     0.00000     1.25520  0.0
    903    904    905    931   5     0.00000     0.00000     1.25520  0.0
    928    904    905    906   5     0.00000     0.00000     1.25520  0.0
    928    904    905    930   5     0.00000     0.00000     1.25520  0.0
    928    904    905    931   5     0.00000     0.00000     1.25520  0.0
    929    904    905    906   5     0.00000     0.00000     1.25520  0.0
    929    904    905    930   5     0.00000     0.00000     1.25520  0.0
    929    904    905    931   5     0.00000     0.00000     1.25520  0.0
    904    905    906    907   5     4.74884    -0.63178     1.67360  0.0
    904    905    906    932   5     0.00000     0.00000     1.25520  0.0
    904    905    906    933   5     0.00000     0.00000     1.25520  0.0
    930    905    906    907   5     0.00000     0.00000     1.25520  0.0
    930    905    906    932   5     0.00000     0.00000     1.25520  0.0
    930    905    906    933   5     0.00000     0.00000     1.25520  0.0
    931    905    906    907   5     0.00000     0.00000     1.25520  0.0
    931    905    906    932   5     0.00000     0.00000     1.25520  0.0
    931    905    906    933   5     0.00000     0.00000     1.25520  0.0
    905    906    907    908   5     4.74884    -0.63178     1.67360  0.0
    905    906    907    934   5     0.00000     0.00000     1.25520  0.0
    905    906    907    935   5     0.00000     0.00000     1.25520  0.0
    932    906    907    908   5     0.00000     0.00000     1.25520  0.0
    932    906    907    934   5     0.00000     0.00000     1.25520  0.0
    932    906    907    935   5     0.00000     0.00000     1.25520  0.0
    933    906    907    908   5     0.00000     0.00000     1.25520  0.0
    933    906    907    934   5     0.00000     0.00000     1.25520  0.0
    933    906    907    935   5     0.00000     0.00000     1.25520  0.0
    906    907    908    909   5     4.74884    -0.63178     1.67360  0.0
    906    907    908    936   5     0.00000     0.00000     1.25520  0.0
    906    907    908    937   5     0.00000     0.00000     1.25520  0.0
    934    907    908    909   5     0.00000     0.00000     1.25520  0.0
    934    907    908    936   5     0.00000     0.00000     1.25520  0.0
    934    907    908    937   5     0.00000     0.00000     1.25520  0.0
    935    907    908    909   5     0.00000     0.00000     1.25520  0.0
    935    907    908    936   5     0.00000     0.00000     1.25520  0.0
    935    907    908    937   5     0.00000     0.00000     1.25520  0.0
    907    908    909    910   5    -8.00818    -1.52298     2.46438  0.0
    907    908    909    938   5     0.00000     0.00000     1.25520  0.0
    907    908    909    939   5     0.00000     0.00000     1.25520  0.0
    936    908    909    910   5     0.00000     0.00000    -0.94140  0.0
    936    908    909    938   5     0.00000     0.00000     1.25520  0.0
    936    908    909    939   5     0.00000     0.00000     1.25520  0.0
    937    908    909    910   5     0.00000     0.00000    -0.94140  0.0
    937    908    909    938   5     0.00000     0.00000     1.25520  0.0
    937    908    909    939   5     0.00000     0.00000     1.25520  0.0
    908    909    910    911   5     0.00000     2.52295     0.00000  0.0
    908    909    910    912   5    11.69428    -0.66526    -1.56900  0.0
    938    909    910    911   5     0.00000     0.00000     0.00000  0.0
    938    909    910    912   5     0.00000     0.00000     0.00000  0.0
    939    909    910    911   5     0.00000     0.00000     0.00000  0.0
    939    909    910    912   5     0.00000     0.00000     0.00000  0.0
    909    910    912    913   5    12.53945    12.88254     0.00000  0.0
    909    910    912    940   5     0.00000    20.50160     0.00000  0.0
    911    910    912    913   5     0.00000    25.47638     0.00000  0.0
    911    910    912    940   5     0.00000    20.50160     0.00000  0.0
    910    912    913    914   5    -3.67774    -0.67781     0.28033  0.0
    910    912    913    941   5     0.00000     0.00000     0.00000  0.0
    910    912    913    942   5     0.00000     0.00000     0.00000  0.0
    940    912    913    914   5     0.00000     0.00000     0.00000  0.0
    940    912    913    941   5     0.00000     0.00000     0.00000  0.0
    940    912    913    942   5     0.00000     0.00000     0.00000  0.0
    912    913    914    915   5     3.67355     4.10869     2.37651  0.0
    912    913    914    943   5     0.00000     0.00000     1.25520  0.0
    912    913    914    944   5     0.00000     0.00000     1.25520  0.0
    941    913    914    915   5     0.00000     0.00000     1.25520  0.0
    941    913    914    943   5     0.00000     0.00000     1.25520  0.0
    941    913    914    944   5     0.00000     0.00000     1.25520  0.0
    942    913    914    915   5     0.00000     0.00000     1.25520  0.0
    942    913    914    943   5     0.00000     0.00000     1.25520  0.0
    942    913    914    944   5     0.00000     0.00000     1.25520  0.0
    913    914    915    916   5     4.74884    -0.63178     1.67360  0.0
    913    914    915    945   5     0.00000     0.00000     1.25520  0.0
    913    914    915    946   5     0.00000     0.00000     1.25520  0.0
    943    914    915    916   5     0.00000     0.00000     1.25520  0.0
    943    914    915    945   5     0.00000     0.00000     1.25520  0.0
    943    914    915    946   5     0.00000     0.00000     1.25520  0.0
    944    914    915    916   5     0.00000     0.00000     1.25520  0.0
    944    914    915    945   5     0.00000     0.00000     1.25520  0.0
    944    914    915    946   5     0.00000     0.00000     1.25520  0.0
    914    915    916    917   5     4.74884    -0.63178     1.67360  0.0
    914    915    916    947   5     0.00000     0.00000     1.25520  0.0
    914    915    916    948   5     0.00000     0.00000     1.25520  0.0
    945    915    916    917   5     0.00000     0.00000     1.25520  0.0
    945    915    916    947   5     0.00000     0.00000     1.25520  0.0
    945    915    916    948   5     0.00000     0.00000     1.25520  0.0
    946    915    916    917   5     0.00000     0.00000     1.25520  0.0
    946    915    916    947   5     0.00000     0.00000     1.25520  0.0
    946    915    916    948   5     0.00000     0.00000     1.25520  0.0
    915    916    917    918   5     4.74884    -0.63178     1.67360  0.0
    915    916    917    949   5     0.00000     0.00000     1.25520  0.0
    915    916    917    950   5     0.00000     0.00000     1.25520  0.0
    947    916    917    918   5     0.00000     0.00000     1.25520  0.0
    947    916    917    949   5     0.00000     0.00000     1.25520  0.0
    947    916    917    950   5     0.00000     0.00000     1.25520  0.0
    948    916    917    918   5     0.00000     0.00000     1.25520  0.0
    948    916    917    949   5     0.00000     0.00000     1.25520  0.0
    948    916    917    950   5     0.00000     0.00000     1.25520  0.0
    916    917    918    919   5     3.67355     4.10869     2.37651  0.0
    916    917    918    951   5     0.00000     0.00000     1.25520  0.0
    916    917    918    952   5     0.00000     0.00000     1.25520  0.0
    949    917    918    919   5     0.00000     0.00000     1.25520  0.0
    949    917    918    951   5     0.00000     0.00000     1.25520  0.0
    949    917    918    952   5     0.00000     0.00000     1.25520  0.0
    950    917    918    919   5     0.00000     0.00000     1.25520  0.0
    950    917    918    951   5     0.00000     0.00000     1.25520  0.0
    950    917    918    952   5     0.00000     0.00000     1.25520  0.0
    917    918    919    953   5     0.00000     0.00000     0.00000  0.0
    917    918    919    954   5    -3.67774    -0.67781     0.28033  0.0
    951    918    919    953   5     0.00000     0.00000     0.00000  0.0
    951    918    919    954   5     0.00000     0.00000     0.00000  0.0
    952    918    919    953   5     0.00000     0.00000     0.00000  0.0
    952    918    919    954   5     0.00000     0.00000     0.00000  0.0
    918    919    954    955   5     0.00000    25.47638     0.00000  0.0
    918    919    954    956   5    12.53945    12.88254     0.00000  0.0
    953    919    954    955   5     0.00000    20.50160     0.00000  0.0
    953    919    954    956   5     0.00000    20.50160     0.00000  0.0
    919    954    956    957   5    11.69428    -0.66526    -1.56900  0.0
    919    954    956    976   5     0.00000     0.00000     0.00000  0.0
    919    954    956    977   5     0.00000     0.00000     0.00000  0.0
    955    954    956    957   5     0.00000     2.52295     0.00000  0.0
    955    954    956    976   5     0.00000     0.00000     0.00000  0.0
    955    954    956    977   5     0.00000     0.00000     0.00000  0.0
    954    956    957    958   5    -8.00818    -1.52298     2.46438  0.0
    954    956    957    978   5     0.00000     0.00000    -0.94140  0.0
    954    956    957    979   5     0.00000     0.00000    -0.94140  0.0
    976    956    957    958   5     0.00000     0.00000     1.25520  0.0
    976    956    957    978   5     0.00000     0.00000     1.25520  0.0
    976    956    957    979   5     0.00000     0.00000     1.25520  0.0
    977    956    957    958   5     0.00000     0.00000     1.25520  0.0
    977    956    957    978   5     0.00000     0.00000     1.25520  0.0
    977    956    957    979   5     0.00000     0.00000     1.25520  0.0
    956    957    958    959   5     4.74884    -0.63178     1.67360  0.0
    956    957    958    980   5     0.00000     0.00000     1.25520  0.0
    956    957    958    981   5     0.00000     0.00000     1.25520  0.0
    978    957    958    959   5     0.00000     0.00000     1.25520  0.0
    978    957    958    980   5     0.00000     0.00000     1.25520  0.0
    978    957    958    981   5     0.00000     0.00000     1.25520  0.0
    979    957    958    959   5     0.00000     0.00000     1.25520  0.0
    979    957    958    980   5     0.00000     0.00000     1.25520  0.0
    979    957    958    981   5     0.00000     0.00000     1.25520  0.0
    957    958    959    960   5     4.74884    -0.63178     1.67360  0.0
    957    958    959    982   5     0.00000     0.00000     1.25520  0.0
    957    958    959    983   5     0.00000     0.00000     1.25520  0.0
    980    958    959    960   5     0.00000     0.00000     1.25520  0.0
    980    958    959    982   5     0.00000     0.00000     1.25520  0.0
    980    958    959    983   5     0.00000     0.00000     1.25520  0.0
    981    958    959    960   5     0.00000     0.00000     1.25520  0.0
    981    958    959    982   5     0.00000     0.00000     1.25520  0.0
    981    958    959    983   5     0.00000     0.00000     1.25520  0.0
    958    959    960    961   5     4.74884    -0.63178     1.67360  0.0
    958    959    960    984   5     0.00000     0.00000     1.25520  0.0
    958    959    960    985   5     0.00000     0.00000     1.25520  0.0
    982    959    960    961   5     0.00000     0.00000     1.25520  0.0
    982    959    960    984   5     0.00000     0.00000     1.25520  0.0
    982    959    960    985   5     0.00000     0.00000     1.25520  0.0
    983    959    960    961   5     0.00000     0.00000     1.25520  0.0
    983    959    960    984   5     0.00000     0.00000     1.25520  0.0
    983    959    960    985   5     0.00000     0.00000     1.25520  0.0
    959    960    961    962   5     4.74884    -0.63178     1.67360  0.0
    959    960    961    986   5     0.00000     0.00000     1.25520  0.0
    959    960    961    987   5     0.00000     0.00000     1.25520  0.0
    984    960    961    962   5     0.00000     0.00000     1.25520  0.0
    984    960    961    986   5     0.00000     0.00000     1.25520  0.0
    984    960    961    987   5     0.00000     0.00000     1.25520  0.0
    985    960    961    962   5     0.00000     0.00000     1.25520  0.0
    985    960    961    986   5     0.00000     0.00000     1.25520  0.0
    985    960    961    987   5     0.00000     0.00000     1.25520  0.0
    960    961    962    963   5     4.74884    -0.63178     1.67360  0.0
    960    961    962    988   5     0.00000     0.00000     1.25520  0.0
    960    961    962    989   5     0.00000     0.00000     1.25520  0.0
    986    961    962    963   5     0.00000     0.00000     1.25520  0.0
    986    961    962    988   5     0.00000     0.00000     1.25520  0.0
    986    961    962    989   5     0.00000     0.00000     1.25520  0.0
    987    961    962    963   5     0.00000     0.00000     1.25520  0.0
    987    961    962    988   5     0.00000     0.00000     1.25520  0.0
    987    961    962    989   5     0.00000     0.00000     1.25520  0.0
    961    962    963    964   5     4.74884    -0.63178     1.67360  0.0
    961    962    963    990   5     0.00000     0.00000     1.25520  0.0
    961    962    963    991   5     0.00000     0.00000     1.25520  0.0
    988    962    963    964   5     0.00000     0.00000     1.25520  0.0
    988    962    963    990   5     0.00000     0.00000     1.25520  0.0
    988    962    963    991   5     0.00000     0.00000     1.25520  0.0
    989    962    963    964   5     0.00000     0.00000     1.25520  0.0
    989    962    963    990   5     0.00000     0.00000     1.25520  0.0
    989    962    963    991   5     0.00000     0.00000     1.25520  0.0
    962    963    964    965   5     4.74884    -0.63178     1.67360  0.0
    962    963    964    992   5     0.00000     0.00000     1.25520  0.0
    962    963    964    993   5     0.00000     0.00000     1.25520  0.0
    990    963    964    965   5     0.00000     0.00000     1.25520  0.0
    990    963    964    992   5     0.00000     0.00000     1.25520  0.0
    990    963    964    993   5     0.00000     0.00000     1.25520  0.0
    991    963    964    965   5     0.00000     0.00000     1.25520  0.0
    991    963    964    992   5     0.00000     0.00000     1.25520  0.0
    991    963    964    993   5     0.00000     0.00000     1.25520  0.0
    963    964    965    966   5    -8.00818    -1.52298     2.46438  0.0
    963    964    965    994   5     0.00000     0.00000     1.25520  0.0
    963    964    965    995   5     0.00000     0.00000     1.25520  0.0
    992    964    965    966   5     0.00000     0.00000    -0.94140  0.0
    992    964    965    994   5     0.00000     0.00000     1.25520  0.0
    992    964    965    995   5     0.00000     0.00000     1.25520  0.0
    993    964    965    966   5     0.00000     0.00000    -0.94140  0.0
    993    964    965    994   5     0.00000     0.00000     1.25520  0.0
    993    964    965    995   5     0.00000     0.00000     1.25520  0.0
    964    965    966    967   5     0.00000     2.52295     0.00000  0.0
    964    965    966    968   5    11.69428    -0.66526    -1.56900  0.0
    994    965    966    967   5     0.00000     0.00000     0.00000  0.0
    994    965    966    968   5     0.00000     0.00000     0.00000  0.0
    995    965    966    967   5     0.00000     0.00000     0.00000  0.0
    995    965    966    968   5     0.00000     0.00000     0.00000  0.0
    965    966    968    969   5    12.53945    12.88254     0.00000  0.0
    965    966    968    996   5     0.00000    20.50160     0.00000  0.0
    967    966    968    969   5     0.00000    25.47638     0.00000  0.0
    967    966    968    996   5     0.00000    20.50160     0.00000  0.0
    966    968    969    970   5    -3.67774    -0.67781     0.28033  0.0
    966    968    969    997   5     0.00000     0.00000     0.00000  0.0
    966    968    969    998   5     0.00000     0.00000     0.00000  0.0
    996    968    969    970   5     0.00000     0.00000     0.00000  0.0
    996    968    969    997   5     0.00000     0.00000     0.00000  0.0
    996    968    969    998   5     0.00000     0.00000     0.00000  0.0
    968    969    970    971   5     3.67355     4.10869     2.37651  0.0
    968    969    970    999   5     0.00000     0.00000     1.25520  0.0
    968    969    970   1000   5     0.00000     0.00000     1.25520  0.0
    997    969    970    971   5     0.00000     0.00000     1.25520  0.0
    997    969    970    999   5     0.00000     0.00000     1.25520  0.0
    997    969    970   1000   5     0.00000     0.00000     1.25520  0.0
    998    969    970    971   5     0.00000     0.00000     1.25520  0.0
    998    969    970    999   5     0.00000     0.00000     1.25520  0.0
    998    969    970   1000   5     0.00000     0.00000     1.25520  0.0
    969    970    971    972   5     4.74884    -0.63178     1.67360  0.0
    969    970    971   1001   5     0.00000     0.00000     1.25520  0.0
    969    970    971   1002   5     0.00000     0.00000     1.25520  0.0
    999    970    971    972   5     0.00000     0.00000     1.25520  0.0
    999    970    971   1001   5     0.00000     0.00000     1.25520  0.0
    999    970    971   1002   5     0.00000     0.00000     1.25520  0.0
   1000    970    971    972   5     0.00000     0.00000     1.25520  0.0
   1000    970    971   1001   5     0.00000     0.00000     1.25520  0.0
   1000    970    971   1002   5     0.00000     0.00000     1.25520  0.0
    970    971    972    973   5     4.74884    -0.63178     1.67360  0.0
    970    971    972   1003   5     0.00000     0.00000     1.25520  0.0
    970    971    972   1004   5     0.00000     0.00000     1.25520  0.0
   1001    971    972    973   5     0.00000     0.00000     1.25520  0.0
   1001    971    972   1003   5     0.00000     0.00000     1.25520  0.0
   1001    971    972   1004   5     0.00000     0.00000     1.25520  0.0
   1002    971    972    973   5     0.00000     0.00000     1.25520  0.0
   1002    971    972   1003   5     0.00000     0.00000     1.25520  0.0
   1002    971    972   1004   5     0.00000     0.00000     1.25520  0.0
    971    972    973    974   5     4.74884    -0.63178     1.67360  0.0
    971    972    973   1005   5     0.00000     0.00000     1.25520  0.0
    971    972    973   1006   5     0.00000     0.00000     1.25520  0.0
   1003    972    973    974   5     0.00000     0.00000     1.25520  0.0
   1003    972    973   1005   5     0.00000     0.00000     1.25520  0.0
   1003    972    973   1006   5     0.00000     0.00000     1.25520  0.0
   1004    972    973    974   5     0.00000     0.00000     1.25520  0.0
   1004    972    973   1005   5     0.00000     0.00000     1.25520  0.0
   1004    972    973   1006   5     0.00000     0.00000     1.25520  0.0
    972    973    974    975   5     3.67355     4.10869     2.37651  0.0
    972    973    974   1007   5     0.00000     0.00000     1.25520  0.0
    972    973    974   1008   5     0.00000     0.00000     1.25520  0.0
   1005    973    974    975   5     0.00000     0.00000     1.25520  0.0
   1005    973    974   1007   5     0.00000     0.00000     1.25520  0.0
   1005    973    974   1008   5     0.00000     0.00000     1.25520  0.0
   1006    973    974    975   5     0.00000     0.00000     1.25520  0.0
   1006    973    974   1007   5     0.00000     0.00000     1.25520  0.0
   1006    973    974   1008   5     0.00000     0.00000     1.25520  0.0
    973    974    975   1009   5     0.00000     0.00000     0.00000  0.0
    973    974    975   1010   5    -3.67774    -0.67781     0.28033  0.0
   1007    974    975   1009   5     0.00000     0.00000     0.00000  0.0
   1007    974    975   1010   5     0.00000     0.00000     0.00000  0.0
   1008    974    975   1009   5     0.00000     0.00000     0.00000  0.0
   1008    974    975   1010   5     0.00000     0.00000     0.00000  0.0
    974    975   1010   1011   5     0.00000    25.47638     0.00000  0.0
    974    975   1010   1012   5    12.53945    12.88254     0.00000  0.0
   1009    975   1010   1011   5     0.00000    20.50160     0.00000  0.0
   1009    975   1010   1012   5     0.00000    20.50160     0.00000  0.0
    975   1010   1012   1013   5    11.69428    -0.66526    -1.56900  0.0
    975   1010   1012   1032   5     0.00000     0.00000     0.00000  0.0
    975   1010   1012   1033   5     0.00000     0.00000     0.00000  0.0
   1011   1010   1012   1013   5     0.00000     2.52295     0.00000  0.0
   1011   1010   1012   1032   5     0.00000     0.00000     0.00000  0.0
   1011   1010   1012   1033   5     0.00000     0.00000     0.00000  0.0
   1010   1012   1013   1014   5    -8.00818    -1.52298     2.46438  0.0
   1010   1012   1013   1034   5     0.00000     0.00000    -0.94140  0.0
   1010   1012   1013   1035   5     0.00000     0.00000    -0.94140  0.0
   1032   1012   1013   1014   5     0.00000     0.00000     1.25520  0.0
   1032   1012   1013   1034   5     0.00000     0.00000     1.25520  0.0
   1032   1012   1013   1035   5     0.00000     0.00000     1.25520  0.0
   1033   1012   1013   1014   5     0.00000     0.00000     1.25520  0.0
   1033   1012   1013   1034   5     0.00000     0.00000     1.25520  0.0
   1033   1012   1013   1035   5     0.00000     0.00000     1.25520  0.0
   1012   1013   1014   1015   5     4.74884    -0.63178     1.67360  0.0
   1012   1013   1014   1036   5     0.00000     0.00000     1.25520  0.0
   1012   1013   1014   1037   5     0.00000     0.00000     1.25520  0.0
   1034   1013   1014   1015   5     0.00000     0.00000     1.25520  0.0
   1034   1013   1014   1036   5     0.00000     0.00000     1.25520  0.0
   1034   1013   1014   1037   5     0.00000     0.00000     1.25520  0.0
   1035   1013   1014   1015   5     0.00000     0.00000     1.25520  0.0
   1035   1013   1014   1036   5     0.00000     0.00000     1.25520  0.0
   1035   1013   1014   1037   5     0.00000     0.00000     1.25520  0.0
   1013   1014   1015   1016   5     4.74884    -0.63178     1.67360  0.0
   1013   1014   1015   1038   5     0.00000     0.00000     1.25520  0.0
   1013   1014   1015   1039   5     0.00000     0.00000     1.25520  0.0
   1036   1014   1015   1016   5     0.00000     0.00000     1.25520  0.0
   1036   1014   1015   1038   5     0.00000     0.00000     1.25520  0.0
   1036   1014   1015   1039   5     0.00000     0.00000     1.25520  0.0
   1037   1014   1015   1016   5     0.00000     0.00000     1.25520  0.0
   1037   1014   1015   1038   5     0.00000     0.00000     1.25520  0.0
   1037   1014   1015   1039   5     0.00000     0.00000     1.25520  0.0
   1014   1015   1016   1017   5     4.74884    -0.63178     1.67360  0.0
   1014   1015   1016   1040   5     0.00000     0.00000     1.25520  0.0
   1014   1015   1016   1041   5     0.00000     0.00000     1.25520  0.0
   1038   1015   1016   1017   5     0.00000     0.00000     1.25520  0.0
   1038   1015   1016   1040   5     0.00000     0.00000     1.25520  0.0
   1038   1015   1016   1041   5     0.00000     0.00000     1.25520  0.0
   1039   1015   1016   1017   5     0.00000     0.00000     1.25520  0.0
   1039   1015   1016   1040   5     0.00000     0.00000     1.25520  0.0
   1039   1015   1016   1041   5     0.00000     0.00000     1.25520  0.0
   1015   1016   1017   1018   5     4.74884    -0.63178     1.67360  0.0
   1015   1016   1017   1042   5     0.00000     0.00000     1.25520  0.0
   1015   1016   1017   1043   5     0.00000     0.00000     1.25520  0.0
   1040   1016   1017   1018   5     0.00000     0.00000     1.25520  0.0
   1040   1016   1017   1042   5     0.00000     0.00000     1.25520  0.0
   1040   1016   1017   1043   5     0.00000     0.00000     1.25520  0.0
   1041   1016   1017   1018   5     0.00000     0.00000     1.25520  0.0
   1041   1016   1017   1042   5     0.00000     0.00000     1.25520  0.0
   1041   1016   1017   1043   5     0.00000     0.00000     1.25520  0.0
   1016   1017   1018   1019   5     4.74884    -0.63178     1.67360  0.0
   1016   1017   1018   1044   5     0.00000     0.00000     1.25520  0.0
   1016   1017   1018   1045   5     0.00000     0.00000     1.25520  0.0
   1042   1017   1018   1019   5     0.00000     0.00000     1.25520  0.0
   1042   1017   1018   1044   5     0.00000     0.00000     1.25520  0.0
   1042   1017   1018   1045   5     0.00000     0.00000     1.25520  0.0
   1043   1017   1018   1019   5     0.00000     0.00000     1.25520  0.0
   1043   1017   1018   1044   5     0.00000     0.00000     1.25520  0.0
   1043   1017   1018   1045   5     0.00000     0.00000     1.25520  0.0
   1017   1018   1019   1020   5     4.74884    -0.63178     1.67360  0.0
   1017   1018   1019   1046   5     0.00000     0.00000     1.25520  0.0
   1017   1018   1019   1047   5     0.00000     0.00000     1.25520  0.0
   1044   1018   1019   1020   5     0.00000     0.00000     1.25520  0.0
   1044   1018   1019   1046   5     0.00000     0.00000     1.25520  0.0
   1044   1018   1019   1047   5     0.00000     0.00000     1.25520  0.0
   1045   1018   1019   1020   5     0.00000     0.00000     1.25520  0.0
   1045   1018   1019   1046   5     0.00000     0.00000     1.25520  0.0
   1045   1018   1019   1047   5     0.00000     0.00000     1.25520  0.0
   1018   1019   1020   1021   5     4.74884    -0.63178     1.67360  0.0
   1018   1019   1020   1048   5     0.00000     0.00000     1.25520  0.0
   1018   1019   1020   1049   5     0.00000     0.00000     1.25520  0.0
   1046   1019   1020   1021   5     0.00000     0.00000     1.25520  0.0
   1046   1019   1020   1048   5     0.00000     0.00000     1.25520  0.0
   1046   1019   1020   1049   5     0.00000     0.00000     1.25520  0.0
   1047   1019   1020   1021   5     0.00000     0.00000     1.25520  0.0
   1047   1019   1020   1048   5     0.00000     0.00000     1.25520  0.0
   1047   1019   1020   1049   5     0.00000     0.00000     1.25520  0.0
   1019   1020   1021   1022   5    -8.00818    -1.52298     2.46438  0.0
   1019   1020   1021   1050   5     0.00000     0.00000     1.25520  0.0
   1019   1020   1021   1051   5     0.00000     0.00000     1.25520  0.0
   1048   1020   1021   1022   5     0.00000     0.00000    -0.94140  0.0
   1048   1020   1021   1050   5     0.00000     0.00000     1.25520  0.0
   1048   1020   1021   1051   5     0.00000     0.00000     1.25520  0.0
   1049   1020   1021   1022   5     0.00000     0.00000    -0.94140  0.0
   1049   1020   1021   1050   5     0.00000     0.00000     1.25520  0.0
   1049   1020   1021   1051   5     0.00000     0.00000     1.25520  0.0
   1020   1021   1022   1023   5     0.00000     2.52295     0.00000  0.0
   1020   1021   1022   1024   5    11.69428    -0.66526    -1.56900  0.0
   1050   1021   1022   1023   5     0.00000     0.00000     0.00000  0.0
   1050   1021   1022   1024   5     0.00000     0.00000     0.00000  0.0
   1051   1021   1022   1023   5     0.00000     0.00000     0.00000  0.0
   1051   1021   1022   1024   5     0.00000     0.00000     0.00000  0.0
   1021   1022   1024   1025   5    12.53945    12.88254     0.00000  0.0
   1021   1022   1024   1052   5     0.00000    20.50160     0.00000  0.0
   1023   1022   1024   1025   5     0.00000    25.47638     0.00000  0.0
   1023   1022   1024   1052   5     0.00000    20.50160     0.00000  0.0
   1022   1024   1025   1026   5    -3.67774    -0.67781     0.28033  0.0
   1022   1024   1025   1053   5     0.00000     0.00000     0.00000  0.0
   1022   1024   1025   1054   5     0.00000     0.00000     0.00000  0.0
   1052   1024   1025   1026   5     0.00000     0.00000     0.00000  0.0
   1052   1024   1025   1053   5     0.00000     0.00000     0.00000  0.0
   1052   1024   1025   1054   5     0.00000     0.00000     0.00000  0.0
   1024   1025   1026   1027   5     3.67355     4.10869     2.37651  0.0
   1024   1025   1026   1055   5     0.00000     0.00000     1.25520  0.0
   1024   1025   1026   1056   5     0.00000     0.00000     1.25520  0.0
   1053   1025   1026   1027   5     0.00000     0.00000     1.25520  0.0
   1053   1025   1026   1055   5     0.00000     0.00000     1.25520  0.0
   1053   1025   1026   1056   5     0.00000     0.00000     1.25520  0.0
   1054   1025   1026   1027   5     0.00000     0.00000     1.25520  0.0
   1054   1025   1026   1055   5     0.00000     0.00000     1.25520  0.0
   1054   1025   1026   1056   5     0.00000     0.00000     1.25520  0.0
   1025   1026   1027   1028   5     4.74884    -0.63178     1.67360  0.0
   1025   1026   1027   1057   5     0.00000     0.00000     1.25520  0.0
   1025   1026   1027   1058   5     0.00000     0.00000     1.25520  0.0
   1055   1026   1027   1028   5     0.00000     0.00000     1.25520  0.0
   1055   1026   1027   1057   5     0.00000     0.00000     1.25520  0.0
   1055   1026   1027   1058   5     0.00000     0.00000     1.25520  0.0
   1056   1026   1027   1028   5     0.00000     0.00000     1.25520  0.0
   1056   1026   1027   1057   5     0.00000     0.00000     1.25520  0.0
   1056   1026   1027   1058   5     0.00000     0.00000     1.25520  0.0
   1026   1027   1028   1029   5     4.74884    -0.63178     1.67360  0.0
   1026   1027   1028   1059   5     0.00000     0.00000     1.25520  0.0
   1026   1027   1028   1060   5     0.00000     0.00000     1.25520  0.0
   1057   1027   1028   1029   5     0.00000     0.00000     1.25520  0.0
   1057   1027   1028   1059   5     0.00000     0.00000     1.25520  0.0
   1057   1027   1028   1060   5     0.00000     0.00000     1.25520  0.0
   1058   1027   1028   1029   5     0.00000     0.00000     1.25520  0.0
   1058   1027   1028   1059   5     0.00000     0.00000     1.25520  0.0
   1058   1027   1028   1060   5     0.00000     0.00000     1.25520  0.0
   1027   1028   1029   1030   5     4.74884    -0.63178     1.67360  0.0
   1027   1028   1029   1061   5     0.00000     0.00000     1.25520  0.0
   1027   1028   1029   1062   5     0.00000     0.00000     1.25520  0.0
   1059   1028   1029   1030   5     0.00000     0.00000     1.25520  0.0
   1059   1028   1029   1061   5     0.00000     0.00000     1.25520  0.0
   1059   1028   1029   1062   5     0.00000     0.00000     1.25520  0.0
   1060   1028   1029   1030   5     0.00000     0.00000     1.25520  0.0
   1060   1028   1029   1061   5     0.00000     0.00000     1.25520  0.0
   1060   1028   1029   1062   5     0.00000     0.00000     1.25520  0.0
   1028   1029   1030   1031   5     3.67355     4.10869     2.37651  0.0
   1028   1029   1030   1063   5     0.00000     0.00000     1.25520  0.0
   1028   1029   1030   1064   5     0.00000     0.00000     1.25520  0.0
   1061   1029   1030   1031   5     0.00000     0.00000     1.25520  0.0
   1061   1029   1030   1063   5     0.00000     0.00000     1.25520  0.0
   1061   1029   1030   1064   5     0.00000     0.00000     1.25520  0.0
   1062   1029   1030   1031   5     0.00000     0.00000     1.25520  0.0
   1062   1029   1030   1063   5     0.00000     0.00000     1.25520  0.0
   1062   1029   1030   1064   5     0.00000     0.00000     1.25520  0.0
   1029   1030   1031   1065   5     0.00000     0.00000     0.00000  0.0
   1029   1030   1031   1066   5    -3.67774    -0.67781     0.28033  0.0
   1063   1030   1031   1065   5     0.00000     0.00000     0.00000  0.0
   1063   1030   1031   1066   5     0.00000     0.00000     0.00000  0.0
   1064   1030   1031   1065   5     0.00000     0.00000     0.00000  0.0
   1064   1030   1031   1066   5     0.00000     0.00000     0.00000  0.0
   1030   1031   1066   1067   5     0.00000    25.47638     0.00000  0.0
   1030   1031   1066   1068   5    12.53945    12.88254     0.00000  0.0
   1065   1031   1066   1067   5     0.00000    20.50160     0.00000  0.0
   1065   1031   1066   1068   5     0.00000    20.50160     0.00000  0.0
   1031   1066   1068   1069   5    11.69428    -0.66526    -1.56900  0.0
   1031   1066   1068   1088   5     0.00000     0.00000     0.00000  0.0
   1031   1066   1068   1089   5     0.00000     0.00000     0.00000  0.0
   1067   1066   1068   1069   5     0.00000     2.52295     0.00000  0.0
   1067   1066   1068   1088   5     0.00000     0.00000     0.00000  0.0
   1067   1066   1068   1089   5     0.00000     0.00000     0.00000  0.0
   1066   1068   1069   1070   5    -8.00818    -1.52298     2.46438  0.0
   1066   1068   1069   1090   5     0.00000     0.00000    -0.94140  0.0
   1066   1068   1069   1091   5     0.00000     0.00000    -0.94140  0.0
   1088   1068   1069   1070   5     0.00000     0.00000     1.25520  0.0
   1088   1068   1069   1090   5     0.00000     0.00000     1.25520  0.0
   1088   1068   1069   1091   5     0.00000     0.00000     1.25520  0.0
   1089   1068   1069   1070   5     0.00000     0.00000     1.25520  0.0
   1089   1068   1069   1090   5     0.00000     0.00000     1.25520  0.0
   1089   1068   1069   1091   5     0.00000     0.00000     1.25520  0.0
   1068   1069   1070   1071   5     4.74884    -0.63178     1.67360  0.0
   1068   1069   1070   1092   5     0.00000     0.00000     1.25520  0.0
   1068   1069   1070   1093   5     0.00000     0.00000     1.25520  0.0
   1090   1069   1070   1071   5     0.00000     0.00000     1.25520  0.0
   1090   1069   1070   1092   5     0.00000     0.00000     1.25520  0.0
   1090   1069   1070   1093   5     0.00000     0.00000     1.25520  0.0
   1091   1069   1070   1071   5     0.00000     0.00000     1.25520  0.0
   1091   1069   1070   1092   5     0.00000     0.00000     1.25520  0.0
   1091   1069   1070   1093   5     0.00000     0.00000     1.25520  0.0
   1069   1070   1071   1072   5     4.74884    -0.63178     1.67360  0.0
   1069   1070   1071   1094   5     0.00000     0.00000     1.25520  0.0
   1069   1070   1071   1095   5     0.00000     0.00000     1.25520  0.0
   1092   1070   1071   1072   5     0.00000     0.00000     1.25520  0.0
   1092   1070   1071   1094   5     0.00000     0.00000     1.25520  0.0
   1092   1070   1071   1095   5     0.00000     0.00000     1.25520  0.0
   1093   1070   1071   1072   5     0.00000     0.00000     1.25520  0.0
   1093   1070   1071   1094   5     0.00000     0.00000     1.25520  0.0
   1093   1070   1071   1095   5     0.00000     0.00000     1.25520  0.0
   1070   1071   1072   1073   5     4.74884    -0.63178     1.67360  0.0
   1070   1071   1072   1096   5     0.00000     0.00000     1.25520  0.0
   1070   1071   1072   1097   5     0.00000     0.00000     1.25520  0.0
   1094   1071   1072   1073   5     0.00000     0.00000     1.25520  0.0
   1094   1071   1072   1096   5     0.00000     0.00000     1.25520  0.0
   1094   1071   1072   1097   5     0.00000     0.00000     1.25520  0.0
   1095   1071   1072   1073   5     0.00000     0.00000     1.25520  0.0
   1095   1071   1072   1096   5     0.00000     0.00000     1.25520  0.0
   1095   1071   1072   1097   5     0.00000     0.00000     1.25520  0.0
   1071   1072   1073   1074   5     4.74884    -0.63178     1.67360  0.0
   1071   1072   1073   1098   5     0.00000     0.00000     1.25520  0.0
   1071   1072   1073   1099   5     0.00000     0.00000     1.25520  0.0
   1096   1072   1073   1074   5     0.00000     0.00000     1.25520  0.0
   1096   1072   1073   1098   5     0.00000     0.00000     1.25520  0.0
   1096   1072   1073   1099   5     0.00000     0.00000     1.25520  0.0
   1097   1072   1073   1074   5     0.00000     0.00000     1.25520  0.0
   1097   1072   1073   1098   5     0.00000     0.00000     1.25520  0.0
   1097   1072   1073   1099   5     0.00000     0.00000     1.25520  0.0
   1072   1073   1074   1075   5     4.74884    -0.63178     1.67360  0.0
   1072   1073   1074   1100   5     0.00000     0.00000     1.25520  0.0
   1072   1073   1074   1101   5     0.00000     0.00000     1.25520  0.0
   1098   1073   1074   1075   5     0.00000     0.00000     1.25520  0.0
   1098   1073   1074   1100   5     0.00000     0.00000     1.25520  0.0
   1098   1073   1074   1101   5     0.00000     0.00000     1.25520  0.0
   1099   1073   1074   1075   5     0.00000     0.00000     1.25520  0.0
   1099   1073   1074   1100   5     0.00000     0.00000     1.25520  0.0
   1099   1073   1074   1101   5     0.00000     0.00000     1.25520  0.0
   1073   1074   1075   1076   5     4.74884    -0.63178     1.67360  0.0
   1073   1074   1075   1102   5     0.00000     0.00000     1.25520  0.0
   1073   1074   1075   1103   5     0.00000     0.00000     1.25520  0.0
   1100   1074   1075   1076   5     0.00000     0.00000     1.25520  0.0
   1100   1074   1075   1102   5     0.00000     0.00000     1.25520  0.0
   1100   1074   1075   1103   5     0.00000     0.00000     1.25520  0.0
   1101   1074   1075   1076   5     0.00000     0.00000     1.25520  0.0
   1101   1074   1075   1102   5     0.00000     0.00000     1.25520  0.0
   1101   1074   1075   1103   5     0.00000     0.00000     1.25520  0.0
   1074   1075   1076   1077   5     4.74884    -0.63178     1.67360  0.0
   1074   1075   1076   1104   5     0.00000     0.00000     1.25520  0.0
   1074   1075   1076   1105   5     0.00000     0.00000     1.25520  0.0
   1102   1075   1076   1077   5     0.00000     0.00000     1.25520  0.0
   1102   1075   1076   1104   5     0.00000     0.00000     1.25520  0.0
   1102   1075   1076   1105   5     0.00000     0.00000     1.25520  0.0
   1103   1075   1076   1077   5     0.00000     0.00000     1.25520  0.0
   1103   1075   1076   1104   5     0.00000     0.00000     1.25520  0.0
   1103   1075   1076   1105   5     0.00000     0.00000     1.25520  0.0
   1075   1076   1077   1078   5    -8.00818    -1.52298     2.46438  0.0
   1075   1076   1077   1106   5     0.00000     0.00000     1.25520  0.0
   1075   1076   1077   1107   5     0.00000     0.00000     1.25520  0.0
   1104   1076   1077   1078   5     0.00000     0.00000    -0.94140  0.0
   1104   1076   1077   1106   5     0.00000     0.00000     1.25520  0.0
   1104   1076   1077   1107   5     0.00000     0.00000     1.25520  0.0
   1105   1076   1077   1078   5     0.00000     0.00000    -0.94140  0.0
   1105   1076   1077   1106   5     0.00000     0.00000     1.25520  0.0
   1105   1076   1077   1107   5     0.00000     0.00000     1.25520  0.0
   1076   1077   1078   1079   5     0.00000     2.52295     0.00000  0.0
   1076   1077   1078   1080   5    11.69428    -0.66526    -1.56900  0.0
   1106   1077   1078   1079   5     0.00000     0.00000     0.00000  0.0
   1106   1077   1078   1080   5     0.00000     0.00000     0.00000  0.0
   1107   1077   1078   1079   5     0.00000     0.00000     0.00000  0.0
   1107   1077   1078   1080   5     0.00000     0.00000     0.00000  0.0
   1077   1078   1080   1081   5    12.53945    12.88254     0.00000  0.0
   1077   1078   1080   1108   5     0.00000    20.50160     0.00000  0.0
   1079   1078   1080   1081   5     0.00000    25.47638     0.00000  0.0
   1079   1078   1080   1108   5     0.00000    20.50160     0.00000  0.0
   1078   1080   1081   1082   5    -3.67774    -0.67781     0.28033  0.0
   1078   1080   1081   1109   5     0.00000     0.00000     0.00000  0.0
   1078   1080   1081   1110   5     0.00000     0.00000     0.00000  0.0
   1108   1080   1081   1082   5     0.00000     0.00000     0.00000  0.0
   1108   1080   1081   1109   5     0.00000     0.00000     0.00000  0.0
   1108   1080   1081   1110   5     0.00000     0.00000     0.00000  0.0
   1080   1081   1082   1083   5     3.67355     4.10869     2.37651  0.0
   1080   1081   1082   1111   5     0.00000     0.00000     1.25520  0.0
   1080   1081   1082   1112   5     0.00000     0.00000     1.25520  0.0
   1109   1081   1082   1083   5     0.00000     0.00000     1.25520  0.0
   1109   1081   1082   1111   5     0.00000     0.00000     1.25520  0.0
   1109   1081   1082   1112   5     0.00000     0.00000     1.25520  0.0
   1110   1081   1082   1083   5     0.00000     0.00000     1.25520  0.0
   1110   1081   1082   1111   5     0.00000     0.00000     1.25520  0.0
   1110   1081   1082   1112   5     0.00000     0.00000     1.25520  0.0
   1081   1082   1083   1084   5     4.74884    -0.63178     1.67360  0.0
   1081   1082   1083   1113   5     0.00000     0.00000     1.25520  0.0
   1081   1082   1083   1114   5     0.00000     0.00000     1.25520  0.0
   1111   1082   1083   1084   5     0.00000     0.00000     1.25520  0.0
   1111   1082   1083   1113   5     0.00000     0.00000     1.25520  0.0
   1111   1082   1083   1114   5     0.00000     0.00000     1.25520  0.0
   1112   1082   1083   1084   5     0.00000     0.00000     1.25520  0.0
   1112   1082   1083   1113   5     0.00000     0.00000     1.25520  0.0
   1112   1082   1083   1114   5     0.00000     0.00000     1.25520  0.0
   1082   1083   1084   1085   5     4.74884    -0.63178     1.67360  0.0
   1082   1083   1084   1115   5     0.00000     0.00000     1.25520  0.0
   1082   1083   1084   1116   5     0.00000     0.00000     1.25520  0.0
   1113   1083   1084   1085   5     0.00000     0.00000     1.25520  0.0
   1113   1083   1084   1115   5     0.00000     0.00000     1.25520  0.0
   1113   1083   1084   1116   5     0.00000     0.00000     1.25520  0.0
   1114   1083   1084   1085   5     0.00000     0.00000     1.25520  0.0
   1114   1083   1084   1115   5     0.00000     0.00000     1.25520  0.0
   1114   1083   1084   1116   5     0.00000     0.00000     1.25520  0.0
   1083   1084   1085   1086   5     4.74884    -0.63178     1.67360  0.0
   1083   1084   1085   1117   5     0.00000     0.00000     1.25520  0.0
   1083   1084   1085   1118   5     0.00000     0.00000     1.25520  0.0
   1115   1084   1085   1086   5     0.00000     0.00000     1.25520  0.0
   1115   1084   1085   1117   5     0.00000     0.00000     1.25520  0.0
   1115   1084   1085   1118   5     0.00000     0.00000     1.25520  0.0
   1116   1084   1085   1086   5     0.00000     0.00000     1.25520  0.0
   1116   1084   1085   1117   5     0.00000     0.00000     1.25520  0.0
   1116   1084   1085   1118   5     0.00000     0.00000     1.25520  0.0
   1084   1085   1086   1087   5    12.83651    -0.83262     0.47698  0.0
   1084   1085   1086   1119   5     0.00000     0.00000     1.25520  0.0
   1084   1085   1086   1120   5     0.00000     0.00000     1.25520  0.0
   1117   1085   1086   1087   5     0.00000     0.00000     1.25520  0.0
   1117   1085   1086   1119   5     0.00000     0.00000     1.25520  0.0
   1117   1085   1086   1120   5     0.00000     0.00000     1.25520  0.0
   1118   1085   1086   1087   5     0.00000     0.00000     1.25520  0.0
   1118   1085   1086   1119   5     0.00000     0.00000     1.25520  0.0
   1118   1085   1086   1120   5     0.00000     0.00000     1.25520  0.0
   1085   1086   1087   1121   5    -0.49790     0.74057     0.98324  0.0
   1085   1086   1087   1122   5    -0.49790     0.74057     0.98324  0.0
   1119   1086   1087   1121   5     0.00000     0.00000     1.67360  0.0
   1119   1086   1087   1122   5     0.00000     0.00000     1.67360  0.0
   1120   1086   1087   1121   5     0.00000     0.00000     1.67360  0.0
   1120   1086   1087   1122   5     0.00000     0.00000     1.67360  0.0

[ dihedrals ]
; Improper dihedrals
; h   i   j   k   funct
      2      3      1     57   5     0.00000    87.86400     0.00000  0.0
     12     14     13     15   5     0.00000    87.86400     0.00000  0.0
     13     16     15     43   5     0.00000     8.36800     0.00000  0.0
     21     56     22     58   5     0.00000     8.36800     0.00000  0.0
     22     59     58     60   5     0.00000    87.86400     0.00000  0.0
     69     71     70     72   5     0.00000    87.86400     0.00000  0.0
     70     73     72    100   5     0.00000     8.36800     0.00000  0.0
     78    113     79    114   5     0.00000     8.36800     0.00000  0.0
     79    115    114    116   5     0.00000    87.86400     0.00000  0.0
    125    127    126    128   5     0.00000    87.86400     0.00000  0.0
    126    129    128    156   5     0.00000     8.36800     0.00000  0.0
    134    169    135    170   5     0.00000     8.36800     0.00000  0.0
    135    171    170    172   5     0.00000    87.86400     0.00000  0.0
    181    183    182    184   5     0.00000    87.86400     0.00000  0.0
    182    185    184    212   5     0.00000     8.36800     0.00000  0.0
    190    225    191    226   5     0.00000     8.36800     0.00000  0.0
    191    227    226    228   5     0.00000    87.86400     0.00000  0.0
    237    239    238    240   5     0.00000    87.86400     0.00000  0.0
    238    241    240    268   5     0.00000     8.36800     0.00000  0.0
    246    281    247    282   5     0.00000     8.36800     0.00000  0.0
    247    283    282    284   5     0.00000    87.86400     0.00000  0.0
    293    295    294    296   5     0.00000    87.86400     0.00000  0.0
    294    297    296    324   5     0.00000     8.36800     0.00000  0.0
    302    337    303    338   5     0.00000     8.36800     0.00000  0.0
    303    339    338    340   5     0.00000    87.86400     0.00000  0.0
    349    351    350    352   5     0.00000    87.86400     0.00000  0.0
    350    353    352    380   5     0.00000     8.36800     0.00000  0.0
    358    393    359    394   5     0.00000     8.36800     0.00000  0.0
    359    395    394    396   5     0.00000    87.86400     0.00000  0.0
    405    407    406    408   5     0.00000    87.86400     0.00000  0.0
    406    409    408    436   5     0.00000     8.36800     0.00000  0.0
    414    449    415    450   5     0.00000     8.36800     0.00000  0.0
    415    451    450    452   5     0.00000    87.86400     0.00000  0.0
    461    463    462    464   5     0.00000    87.86400     0.00000  0.0
    462    465    464    492   5     0.00000     8.36800     0.00000  0.0
    470    505    471    506   5     0.00000     8.36800     0.00000  0.0
    471    507    506    508   5     0.00000    87.86400     0.00000  0.0
    517    519    518    520   5     0.00000    87.86400     0.00000  0.0
    518    521    520    548   5     0.00000     8.36800     0.00000  0.0
    526    561    527    562   5     0.00000     8.36800     0.00000  0.0
    527    563    562    564   5     0.00000    87.86400     0.00000  0.0
    573    575    574    576   5     0.00000    87.86400     0.00000  0.0
    574    577    576    604   5     0.00000     8.36800     0.00000  0.0
    582    617    583    618   5     0.00000     8.36800     0.00000  0.0
    583    619    618    620   5     0.00000    87.86400     0.00000  0.0
    629    631    630    632   5     0.00000    87.86400     0.00000  0.0
    630    633    632    660   5     0.00000     8.36800     0.00000  0.0
    638    673    639    674   5     0.00000     8.36800     0.00000  0.0
    639    675    674    676   5     0.00000    87.86400     0.00000  0.0
    685    687    686    688   5     0.00000    87.86400     0.00000  0.0
    686    689    688    716   5     0.00000     8.36800     0.00000  0.0
    694    729    695    730   5     0.00000     8.36800     0.00000  0.0
    695    731    730    732   5     0.00000    87.86400     0.00000  0.0
    741    743    742    744   5     0.00000    87.86400     0.00000  0.0
    742    745    744    772   5     0.00000     8.36800     0.00000  0.0
    750    785    751    786   5     0.00000     8.36800     0.00000  0.0
    751    787    786    788   5     0.00000    87.86400     0.00000  0.0
    797    799    798    800   5     0.00000    87.86400     0.00000  0.0
    798    801    800    828   5     0.00000     8.36800     0.00000  0.0
    806    841    807    842   5     0.00000     8.36800     0.00000  0.0
    807    843    842    844   5     0.00000    87.86400     0.00000  0.0
    853    855    854    856   5     0.00000    87.86400     0.00000  0.0
    854    857    856    884   5     0.00000     8.36800     0.00000  0.0
    862    897    863    898   5     0.00000     8.36800     0.00000  0.0
    863    899    898    900   5     0.00000    87.86400     0.00000  0.0
    909    911    910    912   5     0.00000    87.86400     0.00000  0.0
    910    913    912    940   5     0.00000     8.36800     0.00000  0.0
    918    953    919    954   5     0.00000     8.36800     0.00000  0.0
    919    955    954    956   5     0.00000    87.86400     0.00000  0.0
    965    967    966    968   5     0.00000    87.86400     0.00000  0.0
    966    969    968    996   5     0.00000     8.36800     0.00000  0.0
    974   1009    975   1010   5     0.00000     8.36800     0.00000  0.0
    975   1011   1010   1012   5     0.00000    87.86400     0.00000  0.0
   1021   1023   1022   1024   5     0.00000    87.86400     0.00000  0.0
   1022   1025   1024   1052   5     0.00000     8.36800     0.00000  0.0
   1030   1065   1031   1066   5     0.00000     8.36800     0.00000  0.0
   1031   1067   1066   1068   5     0.00000    87.86400     0.00000  0.0
   1077   1079   1078   1080   5     0.00000    87.86400     0.00000  0.0
   1078   1081   1080   1108   5     0.00000     8.36800     0.00000  0.0
