Control file title. For DL_FIELD 4.10
49368
    1MOL     C1    1   7.582   1.183   5.501  0.2130  0.1517  0.1325
    1MOL     O2    2   7.506   1.085   5.514  0.0564 -0.0751  0.4297
    1MOL     C3    3   0.024   1.158   5.445 -0.5329  0.5763 -0.5008
    1MOL     C4    4   0.095   1.026   5.468 -0.5853  0.1010  0.1827
    1MOL     C5    5   0.245   1.035   5.488  0.6813  0.3433 -0.2441
    1MOL     C6    6   0.300   0.891   5.495 -0.8660  0.2981 -0.1277
    1MOL     C7    7   0.445   0.896   5.536  0.3896 -0.2688  0.2890
    1MOL     C8    8   0.505   0.754   5.540 -0.0646  0.3750  0.4154
    1MOL     C9    9   0.649   0.739   5.594  0.0689  0.0306  0.1505
    1MOL    C10   10   0.682   0.596   5.641  0.2055  0.2713  0.0157
    1MOL    C11   11   0.826   0.587   5.694  0.2116  0.1328  0.2758
    1MOL    C12   12   0.876   0.684   5.804  0.6409 -0.2549 -0.2672
    1MOL    C13   13   1.015   0.654   5.866  0.2526  0.8071 -0.2098
    1MOL    O14   14   1.075   0.549   5.839 -0.0294 -0.0939 -0.1096
    1MOL    N15   15   1.060   0.736   5.965  0.4923  0.2203  0.3225
    1MOL    C16   16   1.173   0.725   6.048  0.0376  0.1358 -0.3878
    1MOL    C17   17   1.172   0.827   6.161 -0.3035 -0.0795  0.3399
    1MOL    C18   18   1.297   0.814   6.248  0.3916 -0.0005  0.5523
    1MOL    C19   19   1.345   0.941   6.321  0.8378  0.2746 -0.5950
    1MOL    C20   20   1.480   0.921   6.412  0.4668 -0.9356 -0.1788
    1MOL    C21   21   1.542   1.056   6.459 -0.3525 -0.4750 -0.1630
    1MOL    N22   22   1.673   1.015   6.516  0.3783 -0.0713 -0.1099
    1MOL    H23   23   0.082   1.239   5.488 -1.1086 -0.2832  1.9744
    1MOL    H24   24   0.021   1.173   5.337 -2.0494 -1.8034 -0.8402
    1MOL    H25   25   0.066   0.952   5.394  0.4950 -1.1428  0.9821
    1MOL    H26   26   0.056   0.982   5.560  1.1382 -1.3247  0.2622
    1MOL    H27   27   0.270   1.085   5.582  0.1200  0.7779 -0.3164
    1MOL    H28   28   0.304   1.089   5.414 -0.5841  1.4103 -0.4997
    1MOL    H29   29   0.249   0.832   5.571  1.1846 -2.1756 -0.5742
    1MOL    H30   30   0.290   0.838   5.400 -6.0217  0.6794  0.0596
    1MOL    H31   31   0.460   0.954   5.628  1.7982  1.4841 -1.0157
    1MOL    H32   32   0.486   0.955   5.455 -0.6958 -0.5346 -0.4589
    1MOL    H33   33   0.436   0.690   5.596 -0.2123 -0.1488 -0.3536
    1MOL    H34   34   0.516   0.711   5.440 -0.2323  0.1730  0.4818
    1MOL    H35   35   0.728   0.765   5.524  0.3727 -1.4192 -0.0547
    1MOL    H36   36   0.662   0.807   5.679  1.4136 -1.5774  1.2740
    1MOL    H37   37   0.607   0.567   5.714  0.2866  4.0962  1.7341
    1MOL    H38   38   0.682   0.528   5.556 -0.4083 -0.5637  0.6924
    1MOL    H39   39   0.890   0.610   5.609  1.0941  0.2547  0.9736
    1MOL    H40   40   0.852   0.485   5.723  2.2304  0.8026  0.8813
    1MOL    H41   41   0.880   0.783   5.760 -1.1351  1.5492  3.4474
    1MOL    H42   42   0.798   0.687   5.880  0.8931 -1.1260  0.0337
    1MOL    H43   43   1.007   0.821   5.976 -0.9762 -0.4873 -1.1342
    1MOL    H44   44   1.266   0.741   5.994 -1.3397 -2.4571 -3.7009
    1MOL    H45   45   1.168   0.621   6.081  1.4170  0.6538  1.5639
    1MOL    H46   46   1.079   0.838   6.217 -0.1135 -1.3536  0.9370
    1MOL    H47   47   1.185   0.918   6.103  2.2129 -1.6106 -1.5775
    1MOL    H48   48   1.282   0.732   6.318 -0.9995  0.4079  0.7605
    1MOL    H49   49   1.376   0.772   6.187  0.0243 -1.4125  1.0358
    1MOL    H50   50   1.263   0.986   6.377 -0.0123  0.9266 -2.3264
    1MOL    H51   51   1.376   1.004   6.238  1.3341 -3.5283 -3.3911
    1MOL    H52   52   1.457   0.859   6.499 -2.9701 -0.1120 -0.4339
    1MOL    H53   53   1.549   0.853   6.361  1.7695 -0.1261  0.4756
    1MOL    H54   54   1.565   1.119   6.374  2.0225 -1.6911 -0.4453
    1MOL    H55   55   1.482   1.103   6.538  1.4741 -1.4967  1.8865
    1MOL    H56   56   1.672   0.930   6.571  1.3272  0.0660  0.1448
    1MOL    H57   57   7.564   1.286   5.531  2.0187  0.2428  0.9830
    1MOL    C58   58   1.791   1.084   6.520  0.5997  0.6189  0.2564
    1MOL    O59   59   1.800   1.188   6.456  0.2741 -0.1947  0.2483
    1MOL    C60   60   1.905   1.030   6.611  0.0734 -0.1049 -0.4011
    1MOL    C61   61   2.034   1.121   6.601  0.2673  0.3866 -0.0880
    1MOL    C62   62   2.149   1.060   6.687  0.3767  0.3198  0.2849
    1MOL    C63   63   2.216   1.184   6.762  0.1483  0.0418 -0.5688
    1MOL    C64   64   2.320   1.139   6.866  0.4715  0.2223  0.3090
    1MOL    C65   65   2.393   1.260   6.936  0.4394  0.9073  0.5622
    1MOL    C66   66   2.474   1.352   6.842 -0.4340  0.1870  0.4634
    1MOL    C67   67   2.553   1.452   6.933  0.2925 -0.1410 -0.1884
    1MOL    C68   68   2.607   1.563   6.841 -0.0967  0.2331 -0.3239
    1MOL    C69   69   2.715   1.642   6.908  0.4060 -0.0553 -0.0417
    1MOL    C70   70   2.796   1.718   6.804 -0.4330 -0.4498  0.6504
    1MOL    O71   71   2.762   1.830   6.754  0.0035 -0.5164  0.5434
    1MOL    N72   72   2.912   1.660   6.777  0.0538 -0.0235 -0.1580
    1MOL    C73   73   3.004   1.710   6.684  0.1121 -0.2706  0.1047
    1MOL    C74   74   3.099   1.812   6.747 -0.3638  0.3728 -0.5916
    1MOL    C75   75   3.198   1.855   6.645 -0.2968 -0.2897 -0.2637
    1MOL    C76   76   3.305   1.947   6.710 -0.1761  0.3395  0.1306
    1MOL    C77   77   3.414   2.000   6.602 -0.1151  0.4407 -0.3556
    1MOL    C78   78   3.502   1.888   6.549 -0.2409  0.0514  0.0769
    1MOL    N79   79   3.604   1.945   6.459  0.6272 -0.6182 -0.2365
    1MOL    H80   80   1.914   0.929   6.573 -0.8126 -0.1782 -0.4252
    1MOL    H81   81   1.860   1.023   6.710 -1.7035  0.7569 -1.1248
    1MOL    H82   82   2.069   1.134   6.499  0.6164 -0.7769 -0.1230
    1MOL    H83   83   2.017   1.224   6.630  0.4248  1.1700 -2.6799
    1MOL    H84   84   2.229   1.008   6.635 -1.2235 -1.3341 -0.5721
    1MOL    H85   85   2.100   1.000   6.763  2.2298  1.0110  2.0476
    1MOL    H86   86   2.146   1.248   6.816 -0.0356 -3.3757  3.5609
    1MOL    H87   87   2.256   1.252   6.688 -0.0937 -0.1397 -0.8661
    1MOL    H88   88   2.268   1.077   6.938 -2.2556  0.9521 -0.9703
    1MOL    H89   89   2.390   1.066   6.824 -2.2976 -2.3451  0.0178
    1MOL    H90   90   2.465   1.219   7.007  2.3001 -1.3554 -2.4976
    1MOL    H91   91   2.321   1.327   6.983 -0.9851  1.0190 -1.6814
    1MOL    H92   92   2.394   1.395   6.781 -0.8611 -1.6116 -0.2747
    1MOL    H93   93   2.531   1.302   6.764 -2.7641 -0.4709 -0.8653
    1MOL    H94   94   2.493   1.490   7.016  0.7241 -1.6307  0.8357
    1MOL    H95   95   2.638   1.402   6.978 -0.7433  0.9608  3.1758
    1MOL    H96   96   2.529   1.627   6.797 -0.6090  0.9203  1.5189
    1MOL    H97   97   2.643   1.517   6.750  0.8105  0.1768  0.0566
    1MOL    H98   98   2.664   1.717   6.969  1.0218  1.4790 -1.3677
    1MOL    H99   99   2.777   1.575   6.967 -0.8731 -1.0272  0.2121
    1MOL   H100  100   2.940   1.574   6.823 -0.2219 -0.3271 -0.5520
    1MOL   H101  101   2.948   1.756   6.603  1.8987  0.4575 -0.7424
    1MOL   H102  102   3.059   1.626   6.642  0.2498 -1.5389  2.7276
    1MOL   H103  103   3.038   1.891   6.789 -1.4055 -0.5007 -0.4496
    1MOL   H104  104   3.166   1.780   6.827 -0.9729  2.0748  0.6205
    1MOL   H105  105   3.143   1.915   6.573  1.6764  0.1414 -1.4501
    1MOL   H106  106   3.248   1.771   6.596 -0.9154 -0.9565  0.2448
    1MOL   H107  107   3.254   2.037   6.745  1.3801  1.2418  0.1070
    1MOL   H108  108   3.344   1.896   6.797 -2.5528  0.8014  1.5112
    1MOL   H109  109   3.475   2.082   6.639  1.9778 -0.0179 -2.6901
    1MOL   H110  110   3.348   2.043   6.527 -0.3662 -1.4800 -1.2777
    1MOL   H111  111   3.454   1.816   6.483  0.4278 -0.0411 -0.3172
    1MOL   H112  112   3.550   1.824   6.623  2.6091  0.4907 -1.3343
    1MOL   H113  113   3.561   1.973   6.373  1.4942 -0.5653 -0.6536
    1MOL   C114  114   3.741   1.952   6.482  0.6334 -0.9570 -0.5595
    1MOL   O115  115   3.797   1.910   6.584  0.5207 -0.3841 -0.4138
    1MOL   C116  116   3.824   1.998   6.364 -0.6945 -1.2839  0.4569
    1MOL   C117  117   3.975   2.031   6.396 -0.3361 -0.3342  0.3375
    1MOL   C118  118   4.057   2.086   6.268  0.5389 -0.6588 -0.2283
    1MOL   C119  119   4.204   2.090   6.293 -0.4185 -0.2364  0.3480
    1MOL   C120  120   4.291   2.124   6.173 -0.1294  0.0202  0.3914
    1MOL   C121  121   4.431   2.075   6.196  0.0026 -0.8691 -0.3088
    1MOL   C122  122   4.542   2.129   6.099  0.0977  0.0817 -0.8637
    1MOL   C123  123   4.679   2.070   6.129  0.1563 -0.1194 -0.3238
    1MOL   C124  124   4.793   2.103   6.031 -0.7724  0.8398  0.9367
    1MOL   C125  125   4.918   2.017   6.061 -0.3783  0.0587 -0.6983
    1MOL   C126  126   4.904   1.869   6.021  0.2776 -0.3969 -0.8514
    1MOL   O127  127   4.851   1.833   5.923  0.4831  0.7104  0.9777
    1MOL   N128  128   4.936   1.783   6.125  0.0746 -0.6592  0.4534
    1MOL   C129  129   4.914   1.638   6.125  0.1238 -0.7802 -0.1394
    1MOL   C130  130   5.023   1.565   6.040 -0.7405 -0.0201  0.4655
    1MOL   C131  131   5.025   1.407   6.065  0.2792  0.1822  0.0260
    1MOL   C132  132   5.162   1.350   6.034 -0.1867  0.1348 -0.0218
    1MOL   C133  133   5.215   1.374   5.891  0.2697 -0.2568 -1.0162
    1MOL   C134  134   5.141   1.279   5.796 -0.8094 -0.6223 -0.2400
    1MOL   N135  135   5.175   1.144   5.813 -0.6061  0.1215  0.2863
    1MOL   H136  136   3.820   1.916   6.291  1.4742 -1.4779  0.5217
    1MOL   H137  137   3.768   2.085   6.330  0.9285  0.5685  2.4196
    1MOL   H138  138   4.020   1.952   6.456 -0.6190  0.0591  1.0810
    1MOL   H139  139   3.957   2.121   6.456  0.4286  0.8775 -1.2066
    1MOL   H140  140   4.035   2.011   6.192  2.3777  0.2194 -1.6821
    1MOL   H141  141   4.034   2.185   6.228 -1.2839 -1.2449 -0.6472
    1MOL   H142  142   4.226   2.151   6.381 -1.7867 -0.0321  0.5503
    1MOL   H143  143   4.221   1.987   6.327 -1.0250 -0.7614 -0.9362
    1MOL   H144  144   4.255   2.084   6.079 -1.9848  0.4149  0.9135
    1MOL   H145  145   4.287   2.233   6.173 -1.6962 -0.0231 -0.0149
    1MOL   H146  146   4.436   1.972   6.161  1.1963 -1.3646  1.2316
    1MOL   H147  147   4.472   2.089   6.296 -1.8570 -0.4049  0.4025
    1MOL   H148  148   4.508   2.106   5.998 -2.7450  1.3087 -0.2331
    1MOL   H149  149   4.553   2.237   6.085  1.2830 -0.1471 -1.8431
    1MOL   H150  150   4.659   1.963   6.132  2.7750 -0.6277  0.0540
    1MOL   H151  151   4.721   2.091   6.227  2.8048 -2.3200 -0.9051
    1MOL   H152  152   4.820   2.207   6.053 -0.9516  1.2731 -0.8008
    1MOL   H153  153   4.763   2.095   5.927  0.6879  0.3973  0.5330
    1MOL   H154  154   4.944   2.037   6.165  0.1674  1.6024 -1.1218
    1MOL   H155  155   5.002   2.053   6.002  0.2228 -0.3450 -0.1025
    1MOL   H156  156   4.972   1.822   6.211 -1.6359 -0.9776  1.3468
    1MOL   H157  157   4.815   1.626   6.081 -0.8975  0.5043  1.7027
    1MOL   H158  158   4.912   1.599   6.227 -2.2627  0.4085  0.3136
    1MOL   H159  159   5.118   1.614   6.061 -0.9365  0.5937 -0.0878
    1MOL   H160  160   4.990   1.574   5.937  1.3990  1.1685 -0.1325
    1MOL   H161  161   4.997   1.388   6.169 -4.4119  1.9073 -0.8262
    1MOL   H162  162   4.955   1.351   6.004 -1.5486  1.6727  0.7136
    1MOL   H163  163   5.239   1.388   6.101  0.0154  0.3077 -0.3528
    1MOL   H164  164   5.170   1.244   6.060  0.9932 -0.0758 -1.2057
    1MOL   H165  165   5.324   1.363   5.890  0.6392  2.4280  1.8534
    1MOL   H166  166   5.191   1.479   5.870  0.6368 -0.3999 -2.1901
    1MOL   H167  167   5.034   1.301   5.798 -0.5322  0.7192  0.6938
    1MOL   H168  168   5.189   1.304   5.701  2.4023 -1.3807  1.1097
    1MOL   H169  169   5.270   1.125   5.841 -0.5724 -1.1346 -0.6495
    1MOL   C170  170   5.096   1.042   5.795  0.1156  0.6904  0.2814
    1MOL   O171  171   4.974   1.057   5.766 -0.1812  0.1265  0.0648
    1MOL   C172  172   5.156   0.899   5.815 -0.2313 -0.2360  0.5528
    1MOL   C173  173   5.124   0.799   5.697  0.0062  0.0489 -1.0067
    1MOL   C174  174   5.200   0.843   5.562  0.3067 -0.6795 -0.0740
    1MOL   C175  175   5.166   0.730   5.461  0.8319  0.0098  0.1070
    1MOL   C176  176   5.252   0.751   5.332  0.0761  0.0833  0.4223
    1MOL   C177  177   5.185   0.675   5.208 -0.4243  0.2259  0.3225
    1MOL   C178  178   5.265   0.702   5.077  0.1228  0.0976 -0.1604
    1MOL   C179  179   5.216   0.619   4.962  0.4037  0.1238  0.3022
    1MOL   C180  180   5.311   0.644   4.844  0.5851 -0.0974 -0.0936
    1MOL   C181  181   5.263   0.601   4.705 -0.3114  0.1931 -0.0093
    1MOL   C182  182   5.202   0.462   4.716  1.1487  0.8962 -0.0044
    1MOL   O183  183   5.254   0.361   4.756  0.3382  0.4353  0.2386
    1MOL   N184  184   5.078   0.452   4.664  0.6504  0.1134 -0.2880
    1MOL   C185  185   4.995   0.335   4.652  0.1621 -0.1884 -0.2724
    1MOL   C186  186   4.878   0.354   4.755 -0.2362 -0.4884  0.1692
    1MOL   C187  187   4.908   0.431   4.885 -0.0444 -0.0663  0.2569
    1MOL   C188  188   4.794   0.421   4.984 -0.0680 -0.3156 -0.3829
    1MOL   C189  189   4.833   0.511   5.098  0.0049 -0.0084  1.2433
    1MOL   C190  190   4.731   0.504   5.209  0.0997 -0.1092  0.7948
    1MOL   N191  191   4.763   0.603   5.301 -0.0397 -0.2701 -0.1901
    1MOL   H192  192   5.264   0.910   5.824 -0.1072 -0.0012 -1.0997
    1MOL   H193  193   5.127   0.870   5.916 -1.5710  1.5931  0.7215
    1MOL   H194  194   5.019   0.791   5.670 -0.6776 -0.2135  1.5371
    1MOL   H195  195   5.164   0.700   5.720  1.2722  0.6774 -0.4637
    1MOL   H196  196   5.309   0.840   5.571  0.2566  1.3629  1.7892
    1MOL   H197  197   5.164   0.938   5.522 -3.1476 -2.2967 -0.9665
    1MOL   H198  198   5.185   0.636   5.513  0.1335  0.4381  1.1783
    1MOL   H199  199   5.059   0.735   5.440  0.8328 -0.7228 -0.0577
    1MOL   H200  200   5.252   0.858   5.311  0.4043  0.2875  1.4402
    1MOL   H201  201   5.353   0.712   5.346 -0.7424 -1.9002  0.9860
    1MOL   H202  202   5.079   0.698   5.204 -0.9336 -1.9989  0.4375
    1MOL   H203  203   5.189   0.567   5.224  2.5438  0.0226 -1.3488
    1MOL   H204  204   5.269   0.806   5.045 -0.8832 -0.1910 -1.2806
    1MOL   H205  205   5.371   0.678   5.089  0.0399 -0.5808 -0.7582
    1MOL   H206  206   5.210   0.515   4.995  0.5150  0.4303  1.3226
    1MOL   H207  207   5.118   0.659   4.938  1.0066  0.7520 -1.1543
    1MOL   H208  208   5.414   0.615   4.865  1.0266  2.6535  1.7919
    1MOL   H209  209   5.325   0.752   4.835 -0.0159  0.2870  3.0872
    1MOL   H210  210   5.202   0.681   4.664 -1.8232 -1.3936 -0.9040
    1MOL   H211  211   5.350   0.593   4.640 -0.2062  1.0301  0.0219
    1MOL   H212  212   5.056   0.539   4.619 -1.9838 -1.4809 -2.2249
    1MOL   H213  213   5.052   0.247   4.681 -0.0184  0.1847  1.2784
    1MOL   H214  214   4.962   0.323   4.549 -0.5678  0.9430 -0.1794
    1MOL   H215  215   4.787   0.388   4.705  0.5620  1.0146 -0.2748
    1MOL   H216  216   4.875   0.250   4.786  1.1746  0.2860  3.1586
    1MOL   H217  217   5.009   0.402   4.916  0.7315  2.4389  0.1405
    1MOL   H218  218   4.920   0.538   4.871 -0.9472  0.0361  0.2218
    1MOL   H219  219   4.768   0.319   5.012  1.4226 -1.0803 -1.6767
    1MOL   H220  220   4.706   0.466   4.938  0.0354 -1.2178 -1.4811
    1MOL   H221  221   4.847   0.611   5.057 -2.4404 -1.0939 -2.5031
    1MOL   H222  222   4.934   0.485   5.131  1.3193  2.4435 -0.6846
    1MOL   H223  223   4.725   0.403   5.250 -0.7143 -0.5112 -0.3138
    1MOL   H224  224   4.633   0.514   5.163  1.1278  2.4719 -0.9733
    1MOL   H225  225   4.839   0.666   5.280  0.0012 -0.4732 -0.6846
    1MOL   C226  226   4.685   0.616   5.408 -0.8876  0.7455 -0.0626
    1MOL   O227  227   4.583   0.554   5.423 -0.7231  0.2719 -0.1527
    1MOL   C228  228   4.721   0.718   5.526 -0.0019  0.3507 -0.5350
    1MOL   C229  229   4.618   0.832   5.548  0.7132  0.2946  0.1297
    1MOL   C230  230   4.652   0.910   5.673 -0.0280 -0.3937  0.5590
    1MOL   C231  231   4.566   1.033   5.689 -0.2313  0.3273 -0.4302
    1MOL   C232  232   4.624   1.107   5.812  0.0875 -0.1429 -0.1594
    1MOL   C233  233   4.574   1.249   5.813 -0.2418  0.1859  0.1295
    1MOL   C234  234   4.603   1.316   5.944  0.5689  0.5857  1.1840
    1MOL   C235  235   4.531   1.458   5.956  0.7999  0.3127 -0.7067
    1MOL   C236  236   4.529   1.512   6.099  0.2345 -0.0937  0.2940
    1MOL   C237  237   4.516   1.668   6.108 -0.2627  0.3778 -0.2722
    1MOL   C238  238   4.531   1.702   6.256  0.4666  0.3052 -0.2812
    1MOL   O239  239   4.433   1.684   6.331 -0.6421 -0.3921  0.1952
    1MOL   N240  240   4.649   1.747   6.299  0.2270 -0.4710 -0.4644
    1MOL   C241  241   4.674   1.809   6.426 -1.1610  0.1318  0.1558
    1MOL   C242  242   4.813   1.864   6.435  0.5027 -0.1339  0.4216
    1MOL   C243  243   4.845   1.943   6.565 -0.5165 -0.5287  0.1810
    1MOL   C244  244   4.787   2.087   6.570  0.7514  0.0621 -0.2498
    1MOL   C245  245   4.791   2.147   6.714  0.1816  0.4206 -0.3477
    1MOL   C246  246   4.695   2.079   6.809 -0.5640  0.1772  0.2291
    1MOL   N247  247   4.701   2.139   6.941 -0.6641 -0.2603 -0.9208
    1MOL   H248  248   4.819   0.765   5.521  0.3460 -0.1918  0.8599
    1MOL   H249  249   4.733   0.667   5.621  1.6084 -0.6306 -1.2359
    1MOL   H250  250   4.620   0.904   5.466 -0.1452  1.1936  0.8842
    1MOL   H251  251   4.513   0.804   5.555  0.9753 -1.3596 -2.0438
    1MOL   H252  252   4.656   0.848   5.763 -3.0051 -0.8723  0.4115
    1MOL   H253  253   4.752   0.951   5.660  0.1048  0.0711  2.8178
    1MOL   H254  254   4.458   1.017   5.695 -0.0400 -0.9745 -0.4576
    1MOL   H255  255   4.595   1.096   5.604 -0.3170 -0.7126 -1.2485
    1MOL   H256  256   4.731   1.126   5.812  0.3292 -1.1130 -4.0481
    1MOL   H257  257   4.594   1.060   5.906 -1.7289 -0.7026 -0.9809
    1MOL   H258  258   4.612   1.302   5.726  0.2553  0.8589  0.7497
    1MOL   H259  259   4.467   1.250   5.791 -0.3151  0.9282  0.5071
    1MOL   H260  260   4.711   1.324   5.956  0.7245  4.4737 -1.5947
    1MOL   H261  261   4.565   1.264   6.032 -1.9911  0.2554 -0.0593
    1MOL   H262  262   4.574   1.536   5.892  2.4503  1.4873  1.7674
    1MOL   H263  263   4.428   1.440   5.923  1.1337 -1.2449 -0.9267
    1MOL   H264  264   4.446   1.465   6.151  1.3158  0.5384  2.6702
    1MOL   H265  265   4.616   1.473   6.153 -0.0752 -0.5340  0.4722
    1MOL   H266  266   4.587   1.713   6.039  1.6128 -2.0598 -0.0059
    1MOL   H267  267   4.419   1.703   6.074 -0.2712  0.4772 -0.1485
    1MOL   H268  268   4.726   1.736   6.234 -1.8368 -0.2366 -3.0183
    1MOL   H269  269   4.660   1.736   6.506 -1.9024  0.2205  0.1085
    1MOL   H270  270   4.599   1.887   6.435 -1.6285 -0.3557  0.5311
    1MOL   H271  271   4.841   1.929   6.353 -2.3567  0.7942  0.1630
    1MOL   H272  272   4.888   1.784   6.427  1.6519  0.8794  0.8724
    1MOL   H273  273   4.819   1.880   6.651  1.4830 -2.0913 -0.3205
    1MOL   H274  274   4.953   1.932   6.569 -0.4951 -0.4792 -0.2012
    1MOL   H275  275   4.682   2.098   6.545  0.5521 -1.3402 -0.0793
    1MOL   H276  276   4.845   2.151   6.504 -0.9637  1.3980 -0.4947
    1MOL   H277  277   4.771   2.254   6.709 -0.2067  0.3452 -0.4185
    1MOL   H278  278   4.894   2.127   6.744 -0.5081 -1.1052  1.0509
    1MOL   H279  279   4.712   1.972   6.811 -1.2354 -0.0155 -2.0925
    1MOL   H280  280   4.593   2.096   6.773 -1.1094  1.6513  2.3428
    1MOL   H281  281   4.715   2.239   6.946 -0.6068 -0.2858 -0.5371
    1MOL   C282  282   4.670   2.076   7.059 -1.5554  0.1361  0.0518
    1MOL   O283  283   4.637   1.959   7.070  0.2415  1.1482  0.1861
    1MOL   C284  284   4.641   2.162   7.180 -0.0865  0.8067  0.0221
    1MOL   C285  285   4.755   2.155   7.278 -0.1568  0.1950 -0.5244
    1MOL   C286  286   4.707   2.217   7.410  0.0224 -0.4971  0.4848
    1MOL   C287  287   4.819   2.221   7.525  0.9941  0.5481  0.0647
    1MOL   C288  288   4.780   2.292   7.655 -0.1705  0.2317  0.1466
    1MOL   C289  289   4.753   2.444   7.643  0.0780 -0.3615 -0.3243
    1MOL   C290  290   4.745   2.515   0.084  0.4162  0.0210 -0.5736
    1MOL   C291  291   4.690   2.661   0.079 -0.6977 -0.1066  0.9843
    1MOL   C292  292   4.538   2.665   0.063 -0.0547  0.7689 -0.5683
    1MOL   C293  293   4.491   2.804   0.033  0.3375  0.5612 -0.7947
    1MOL   C294  294   4.471   2.898   0.160 -1.3124  0.2305  0.2468
    1MOL   O295  295   4.463   2.849   0.274  0.4178 -0.3712  0.3713
    1MOL   N296  296   4.482   3.033   0.143 -0.1869 -0.0842 -0.3717
    1MOL   C297  297   4.475   3.129   0.245  0.6338 -0.1755  0.2624
    1MOL   C298  298   4.362   3.237   0.223 -0.3274  0.2201  0.6338
    1MOL   C299  299   4.358   3.311   0.091  0.1015  0.0316  0.0655
    1MOL   C300  300   4.272   3.434   0.094  0.4695 -0.5056 -0.5279
    1MOL   C301  301   4.267   3.506   7.656 -0.5218 -0.3114 -0.4031
    1MOL   C302  302   4.180   3.639   7.661  0.0629  0.4231 -0.3600
    1MOL   N303  303   4.188   3.708   7.529  0.7516  0.1786  0.0059
    1MOL   H304  304   4.623   2.262   7.142  1.1119  0.6279 -1.0612
    1MOL   H305  305   4.551   2.119   7.224 -0.1993  0.3007 -0.6779
    1MOL   H306  306   4.850   2.200   7.251  0.0143  0.4163  0.4273
    1MOL   H307  307   4.778   2.050   7.294  1.8750  0.7950  0.7541
    1MOL   H308  308   4.675   2.316   7.378 -2.4744 -0.8941  1.6116
    1MOL   H309  309   4.611   2.176   7.443 -0.2048 -0.3139  0.0440
    1MOL   H310  310   4.915   2.255   7.488  1.4025 -1.1253 -0.4227
    1MOL   H311  311   4.834   2.116   7.549 -0.0510 -0.1861 -2.3341
    1MOL   H312  312   4.682   2.250   7.680 -0.1547  1.2498  1.9909
    1MOL   H313  313   4.853   2.276   0.043  1.1276 -0.0894 -1.0881
    1MOL   H314  314   4.828   2.484   7.574 -0.4290 -1.3188 -1.4548
    1MOL   H315  315   4.656   2.458   7.596  0.2182  0.2044 -0.4607
    1MOL   H316  316   4.846   2.512   0.124  0.7355 -0.5130 -1.3911
    1MOL   H317  317   4.677   2.468   0.154 -0.1355  1.3009 -0.2425
    1MOL   H318  318   4.731   2.706   7.680 -0.6564 -1.4780  0.3151
    1MOL   H319  319   4.726   2.711   0.168 -0.0261 -0.3078  0.8275
    1MOL   H320  320   4.499   2.590   7.686 -3.3301  2.4042 -0.5841
    1MOL   H321  321   4.494   2.626   0.155  0.7423  0.7358 -0.1890
    1MOL   H322  322   4.557   2.835   7.643  0.7668  2.1465  0.1380
    1MOL   H323  323   4.394   2.810   7.676 -1.3935 -0.0295  2.4695
    1MOL   H324  324   4.486   3.075   0.051  0.7448 -0.3625 -0.4571
    1MOL   H325  325   4.567   3.187   0.245  0.6237 -0.1634  1.0766
    1MOL   H326  326   4.463   3.091   0.346 -1.3196 -0.8531 -0.1955
    1MOL   H327  327   4.389   3.309   0.300  2.5367  0.8319 -0.8869
    1MOL   H328  328   4.264   3.202   0.254  0.2545 -0.1823  2.1013
    1MOL   H329  329   4.307   3.246   0.020  1.9323  0.2190 -1.4460
    1MOL   H330  330   4.460   3.326   0.056 -0.4833  0.9194 -1.2940
    1MOL   H331  331   4.174   3.415   0.138  1.1742 -1.1231  0.8299
    1MOL   H332  332   4.319   3.503   0.164 -0.0037 -0.4598 -0.2520
    1MOL   H333  333   4.226   3.446   7.575 -2.2332  0.6832 -0.2936
    1MOL   H334  334   4.366   3.545   7.635  0.5048 -1.2912  2.3412
    1MOL   H335  335   4.079   3.619   0.003  0.6303  1.0077  1.7390
    1MOL   H336  336   4.212   3.702   0.052 -0.7768 -0.6577  0.7975
    1MOL   H337  337   4.121   3.688   7.456 -0.7137 -0.4505  1.4899
    1MOL   C338  338   4.297   3.779   7.492  0.9265 -1.0898  0.3928
    1MOL   O339  339   4.391   3.805   7.565  0.5391 -0.3737 -0.4179
    1MOL   C340  340   4.299   3.835   7.353 -0.5040 -0.2105 -0.1260
    1MOL   C341  341   4.227   3.972   7.350  0.2189 -0.0332  0.2447
    1MOL   C342  342   4.247   4.058   7.229 -0.6271  0.0699 -0.2425
    1MOL   C343  343   4.188   4.201   7.246 -0.1916  0.0443  0.6260
    1MOL   C344  344   4.231   4.303   7.143 -0.4801  0.1684 -0.1448
    1MOL   C345  345   4.163   4.440   7.158 -0.8293  0.3773  0.1098
    1MOL   C346  346   4.079   4.479   7.032 -0.4844  0.1119 -0.0331
    1MOL   C347  347   4.033   4.625   7.018 -0.0673 -0.2779  0.5678
    1MOL   C348  348   3.917   4.645   6.921 -0.6153  0.1257  0.3979
    1MOL   C349  349   3.800   4.544   6.905  0.3111 -0.3066  0.0754
    1MOL   C350  350   3.696   4.554   7.018 -0.6009  0.2893 -0.9946
    1MOL   O351  351   3.632   4.658   7.035  1.0023  0.2509 -0.3952
    1MOL   N352  352   3.681   4.449   7.106  0.1704  0.9893  0.2987
    1MOL   C353  353   3.591   4.444   7.218 -0.2565 -0.2318 -1.0262
    1MOL   C354  354   3.639   4.361   7.333  0.6597 -0.7033  0.6752
    1MOL   C355  355   3.781   4.400   7.383  0.2373  0.3799 -0.3702
    1MOL   C356  356   3.772   4.499   7.501  0.3019 -0.0654  0.5092
    1MOL   C357  357   3.896   4.504   7.588 -1.0359  0.3744 -0.6307
    1MOL   C358  358   3.864   4.592   0.023  0.2684  0.2319  0.0503
    1MOL   N359  359   3.967   4.589   0.132 -0.4551 -0.2845  0.2506
    1MOL   H360  360   4.257   3.777   7.270  1.3751 -2.4722  0.4669
    1MOL   H361  361   4.405   3.858   7.337  0.4789 -3.0019  1.9845
    1MOL   H362  362   4.124   3.939   7.355  0.9207 -2.5816 -1.3509
    1MOL   H363  363   4.258   4.027   7.439  0.9483 -1.9240  1.1822
    1MOL   H364  364   4.210   4.014   7.137 -1.1697 -1.7987  0.8373
    1MOL   H365  365   4.356   4.062   7.229 -0.5573 -1.1862 -1.9460
    1MOL   H366  366   4.079   4.201   7.240 -0.0838 -1.5423 -1.9106
    1MOL   H367  367   4.208   4.249   7.342 -2.0534  3.7446 -0.7217
    1MOL   H368  368   4.340   4.313   7.148 -0.3734  0.2590 -2.2134
    1MOL   H369  369   4.227   4.263   7.042  1.4139 -0.1438 -0.1109
    1MOL   H370  370   4.122   4.454   7.257 -1.9110 -0.9895 -0.1383
    1MOL   H371  371   4.241   4.517   7.158  0.3905 -0.8440  0.4865
    1MOL   H372  372   4.136   4.447   6.944  0.6411  0.0050  0.7213
    1MOL   H373  373   3.995   4.410   7.029 -0.6696  0.3079  0.6303
    1MOL   H374  374   4.006   4.676   7.110  0.2501  0.6154  0.1728
    1MOL   H375  375   4.115   4.688   6.984 -0.6298  1.1563  1.7828
    1MOL   H376  376   3.957   4.666   6.821  1.8194 -0.9367  1.1223
    1MOL   H377  377   3.883   4.748   6.931 -1.0281 -0.1574  2.0538
    1MOL   H378  378   3.741   4.571   6.818 -0.4163  1.6342  1.1505
    1MOL   H379  379   3.824   4.438   6.894  1.2327 -0.0307 -0.6045
    1MOL   H380  380   3.729   4.363   7.084 -0.8997  0.6499 -0.7492
    1MOL   H381  381   3.498   4.416   7.168 -0.8524 -0.0009 -0.0577
    1MOL   H382  382   3.573   4.546   7.253  0.3768 -0.2725 -0.5725
    1MOL   H383  383   3.645   4.254   7.310  0.4611 -0.6895  0.5591
    1MOL   H384  384   3.571   4.364   7.418 -0.6829  0.4090 -0.4322
    1MOL   H385  385   3.817   4.309   7.432  0.2419  1.0480  0.8764
    1MOL   H386  386   3.860   4.429   7.313 -1.2566  0.0999 -2.1989
    1MOL   H387  387   3.735   4.597   7.469  0.0813 -0.7660 -1.4702
    1MOL   H388  388   3.691   4.470   7.568  0.6328 -1.9101  0.1120
    1MOL   H389  389   3.983   4.557   7.551  0.9942 -2.4263 -0.0215
    1MOL   H390  390   3.940   4.412   7.624  2.6572  1.8360 -1.1782
    1MOL   H391  391   3.841   4.693   7.683  0.8414  0.9655  1.9585
    1MOL   H392  392   3.774   4.545   0.063  1.0757 -3.0723 -1.7693
    1MOL   H393  393   4.046   4.650   0.117 -0.6317  0.2031  1.2761
    1MOL   C394  394   3.991   4.503   0.225 -0.5724  0.0991  0.9334
    1MOL   O395  395   3.910   4.413   0.252 -0.0359  0.6906  0.2823
    1MOL   C396  396   4.117   4.523   0.308  0.0287 -0.0019 -0.0213
    1MOL   C397  397   4.120   4.455   0.446  0.6585 -0.4878 -0.5723
    1MOL   C398  398   4.147   4.303   0.427  0.2520  0.2230  0.1744
    1MOL   C399  399   4.155   4.233   0.566 -0.2295  0.5087  0.6860
    1MOL   C400  400   4.175   4.082   0.540 -0.5540  0.5499  0.1821
    1MOL   C401  401   4.053   4.006   0.475  0.0050 -0.2758 -0.1416
    1MOL   C402  402   4.086   3.871   0.420  0.3093 -0.8079  0.4770
    1MOL   C403  403   4.140   3.761   0.516 -0.6151 -0.0419 -0.8451
    1MOL   C404  404   4.046   3.704   0.626  0.3984 -0.5907  0.3264
    1MOL   C405  405   4.094   3.591   0.727 -0.2644 -0.5459  0.2918
    1MOL   C406  406   4.159   3.466   0.662  0.2362  0.0037 -0.8145
    1MOL   O407  407   4.279   3.448   0.684 -0.2445  0.1052  0.1952
    1MOL   N408  408   4.079   3.391   0.585 -0.0525  0.3867 -0.1492
    1MOL   C409  409   4.129   3.270   0.510  0.6688  0.4333 -0.1916
    1MOL   C410  410   4.103   3.134   0.588 -0.3141 -0.7706  0.2340
    1MOL   C411  411   4.181   3.017   0.521 -1.0620  0.0102  0.0797
    1MOL   C412  412   4.153   2.891   0.605 -0.0789 -1.1632  0.3630
    1MOL   C413  413   4.210   2.769   0.549 -0.4584  0.8970  0.2306
    1MOL   C414  414   4.348   2.734   0.609  0.2030  0.1614  0.4260
    1MOL   N415  415   4.421   2.650   0.527 -0.6009  0.0902 -0.8520
    1MOL   H416  416   4.127   4.631   0.322 -2.6468  0.4616 -1.3895
    1MOL   H417  417   4.212   4.508   0.256 -0.9931 -0.0960 -1.9214
    1MOL   H418  418   4.032   4.478   0.506  2.2894 -0.9032  2.0663
    1MOL   H419  419   4.202   4.503   0.499  0.1399  0.4952 -0.6667
    1MOL   H420  420   4.248   4.297   0.386  0.4553 -0.9638  0.8396
    1MOL   H421  421   4.077   4.258   0.356  0.3179  0.6408 -0.1580
    1MOL   H422  422   4.063   4.241   0.624 -0.6831  0.0851  0.0314
    1MOL   H423  423   4.223   4.276   0.639 -0.3817 -0.2885  1.3020
    1MOL   H424  424   4.270   4.071   0.487  0.5385  0.8962  2.0120
    1MOL   H425  425   4.192   4.035   0.637  0.6256  0.9247  0.1688
    1MOL   H426  426   3.969   4.002   0.544 -2.8942 -1.2052 -3.5458
    1MOL   H427  427   4.018   4.062   0.388  0.2912 -2.1773 -1.5018
    1MOL   H428  428   3.998   3.829   0.372 -0.2109 -1.3377  1.8556
    1MOL   H429  429   4.160   3.867   0.340  0.7281  0.6841  0.7840
    1MOL   H430  430   4.167   3.686   0.442 -0.5975 -0.1925 -0.6865
    1MOL   H431  431   4.236   3.791   0.560  0.6336 -1.7059 -2.3787
    1MOL   H432  432   3.964   3.670   0.562  1.2630  0.3347 -1.2983
    1MOL   H433  433   4.003   3.787   0.681 -0.6726 -3.0881  3.4120
    1MOL   H434  434   4.159   3.634   0.803 -3.4394 -0.4621  3.0604
    1MOL   H435  435   4.001   3.561   0.775 -1.1046  1.0969 -0.2639
    1MOL   H436  436   3.982   3.419   0.584  0.4087  2.0088 -0.8980
    1MOL   H437  437   4.235   3.286   0.489  0.9752 -1.3732 -0.1213
    1MOL   H438  438   4.088   3.268   0.409 -0.3197  0.6397  0.2054
    1MOL   H439  439   3.997   3.107   0.596 -0.3324 -0.5119  0.9421
    1MOL   H440  440   4.142   3.142   0.690  1.8958  1.7796 -0.7871
    1MOL   H441  441   4.168   3.006   0.414  0.1022  3.5558 -0.4891
    1MOL   H442  442   4.288   3.031   0.536 -1.1122  1.6853 -0.9945
    1MOL   H443  443   4.189   2.904   0.707  0.2112 -0.4471  0.1787
    1MOL   H444  444   4.045   2.880   0.608 -0.0365 -1.2990  4.9723
    1MOL   H445  445   4.137   2.689   0.561  0.3552 -0.1343 -1.6300
    1MOL   H446  446   4.219   2.784   0.441 -1.0992 -0.0440  0.0394
    1MOL   H447  447   4.413   2.818   0.636  1.1311 -0.2840 -0.3730
    1MOL   H448  448   4.331   2.685   0.705 -0.7723 -2.2111 -0.9198
    1MOL   H449  449   4.461   2.692   0.444  2.6598 -0.9174  0.1349
    1MOL   C450  450   4.421   2.514   0.539  0.7253 -0.4140 -0.1374
    1MOL   O451  451   4.353   2.458   0.627  0.1946  0.1489  0.3001
    1MOL   C452  452   4.503   2.435   0.438 -0.0917  0.1361  0.8008
    1MOL   C453  453   4.492   2.287   0.450 -0.7266 -0.1677  0.2825
    1MOL   C454  454   4.564   2.208   0.346 -0.2054  0.0732 -0.7217
    1MOL   C455  455   4.589   2.058   0.384  0.2316  0.2948 -0.0695
    1MOL   C456  456   4.689   1.983   0.286  0.2060  0.0888  0.6612
    1MOL   C457  457   4.614   1.935   0.158  0.7813  0.2919 -0.1015
    1MOL   C458  458   4.702   1.873   0.048 -0.1279 -0.3971  0.6639
    1MOL   C459  459   4.628   1.834   7.611  0.0054 -0.2140 -0.7686
    1MOL   C460  460   4.725   1.788   7.499 -0.0590  0.4445  0.2439
    1MOL   C461  461   4.659   1.756   7.367  0.6640 -0.3622  0.2440
    1MOL   C462  462   4.748   1.682   7.271  0.2741  0.6224  0.4894
    1MOL   O463  463   4.791   1.573   7.307 -0.0657  0.3452 -0.1454
    1MOL   N464  464   4.786   1.744   7.156 -0.1958  0.9350  0.0957
    1MOL   C465  465   4.917   1.711   7.094 -0.0002 -0.1481 -0.3323
    1MOL   C466  466   4.990   1.836   7.046 -0.1631  0.2827  0.0085
    1MOL   C467  467   5.030   1.934   7.157 -0.8107  0.1412 -0.2014
    1MOL   C468  468   5.075   2.073   7.097 -0.5636 -0.2781 -0.1793
    1MOL   C469  469   5.198   2.066   7.004 -0.0094  0.4638  0.3864
    1MOL   C470  470   5.238   2.206   6.960 -1.1859 -0.0598 -0.1455
    1MOL   N471  471   5.344   2.198   6.861 -0.4856 -0.0451  0.0559
    1MOL   H472  472   4.486   2.469   0.336  3.0257 -0.5530  0.0031
    1MOL   H473  473   4.600   2.482   0.451  0.2036  0.1740 -1.3607
    1MOL   H474  474   4.388   2.258   0.441 -0.4565 -0.6766 -1.4616
    1MOL   H475  475   4.536   2.263   0.547  0.4779 -0.1476 -0.2531
    1MOL   H476  476   4.653   2.261   0.312 -1.6003  1.1749 -2.7462
    1MOL   H477  477   4.504   2.193   0.257 -1.9435 -4.8718  1.1010
    1MOL   H478  478   4.493   2.006   0.376 -0.7361  2.0153  0.2798
    1MOL   H479  479   4.634   2.032   0.480 -0.9534 -0.9195  0.1735
    1MOL   H480  480   4.744   1.900   0.332 -0.0844  0.2151  1.2372
    1MOL   H481  481   4.767   2.049   0.248 -0.3618 -0.5084 -1.6048
    1MOL   H482  482   4.559   2.020   0.117  0.2885 -0.0658 -0.1835
    1MOL   H483  483   4.547   1.853   0.182  1.1050 -0.3231 -1.2796
    1MOL   H484  484   4.785   1.939   0.020  0.5616 -0.5613  2.2632
    1MOL   H485  485   4.752   1.785   0.087 -0.9239 -1.8808 -1.6159
    1MOL   H486  486   4.561   1.755   7.643  0.9410  0.1700  2.3733
    1MOL   H487  487   4.564   1.920   7.591  1.7044  1.6861  1.6611
    1MOL   H488  488   4.779   1.697   7.525 -2.2958 -0.8961  0.3537
    1MOL   H489  489   4.795   1.871   7.499 -0.6252  0.9425  2.0698
    1MOL   H490  490   4.582   1.682   7.389 -1.4369  1.4843 -0.7273
    1MOL   H491  491   4.624   1.850   7.324  0.3062 -0.9848 -0.8286
    1MOL   H492  492   4.728   1.821   7.126  0.1703  1.4616  0.7276
    1MOL   H493  493   4.910   1.643   7.009 -1.0021  1.2102 -1.3566
    1MOL   H494  494   4.980   1.664   7.170 -0.4799 -1.3209 -0.6341
    1MOL   H495  495   5.078   1.809   6.987  0.2795 -0.0030  0.7961
    1MOL   H496  496   4.931   1.890   6.971  0.3827 -1.7706 -1.9783
    1MOL   H497  497   5.092   1.873   7.223  0.2455  0.0552 -1.2742
    1MOL   H498  498   4.941   1.948   7.218 -0.4066  1.1037  0.1690
    1MOL   H499  499   5.088   2.154   7.168  0.0418 -1.5501  1.1981
    1MOL   H500  500   5.000   2.118   7.032  1.5837  0.5687 -2.1556
    1MOL   H501  501   5.273   2.001   7.050 -1.6768 -1.7801  0.0374
    1MOL   H502  502   5.170   2.020   6.909 -3.1910 -2.4525  2.5719
    1MOL   H503  503   5.161   2.270   6.918  0.7294  1.2848 -1.6734
    1MOL   H504  504   5.277   2.263   7.045  0.1965 -0.7378 -0.3066
    1MOL   H505  505   5.374   2.108   6.826 -2.2777 -0.6936  0.1606
    1MOL   C506  506   5.429   2.306   6.838  0.0703 -0.5034 -0.7349
    1MOL   O507  507   5.415   2.406   6.906  0.4966 -0.2983 -1.1270
    1MOL   C508  508   5.534   2.294   6.730  0.2518  0.2044  0.1628
    1MOL   C509  509   5.578   2.437   6.669 -0.2146 -0.3314  0.2580
    1MOL   C510  510   5.473   2.512   6.585 -0.1878  0.1237 -0.5743
    1MOL   C511  511   5.514   2.649   6.521  0.7351  0.0850 -0.0949
    1MOL   C512  512   5.620   2.645   6.419 -0.5131  0.7819  0.0709
    1MOL   C513  513   5.576   2.550   6.301  0.1037 -0.3790 -0.3578
    1MOL   C514  514   5.694   2.548   6.199  0.1576 -0.4769  0.5844
    1MOL   C515  515   5.657   2.476   6.069  0.0375  0.0132  0.8722
    1MOL   C516  516   5.614   2.326   6.079  0.6458  0.5659  0.1881
    1MOL   C517  517   5.715   2.224   6.143  0.4143  0.0943 -0.0578
    1MOL   C518  518   5.654   2.086   6.157 -0.2931  0.1743  0.0011
    1MOL   O519  519   5.536   2.074   6.178 -1.0641  0.3982  0.2370
    1MOL   N520  520   5.735   1.979   6.149  0.4494 -0.5740 -0.2746
    1MOL   C521  521   5.694   1.841   6.161 -0.1346  0.0083 -0.3703
    1MOL   C522  522   5.814   1.755   6.125 -0.2239 -0.4983 -0.2477
    1MOL   C523  523   5.795   1.610   6.139  0.2765  0.1969  0.1498
    1MOL   C524  524   5.690   1.551   6.053  0.1865  0.1429 -0.3801
    1MOL   C525  525   5.683   1.396   6.084 -0.2772 -0.5437  0.0334
    1MOL   C526  526   5.571   1.326   6.002 -0.1609  0.4818 -0.6393
    1MOL   N527  527   5.600   1.190   6.003 -0.3854 -0.8046  0.4373
    1MOL   H528  528   5.503   2.230   6.647 -0.3840  0.6700  0.0380
    1MOL   H529  529   5.628   2.245   6.757 -0.0634 -1.3472 -1.3732
    1MOL   H530  530   5.668   2.418   6.611  0.0267  0.9270  0.1981
    1MOL   H531  531   5.593   2.506   6.752 -0.2984  1.0892 -0.8932
    1MOL   H532  532   5.392   2.537   6.653  0.8129  0.3830  0.5342
    1MOL   H533  533   5.438   2.440   6.511 -1.0774 -1.9244  1.7571
    1MOL   H534  534   5.425   2.691   6.473  0.8622 -1.5191 -1.8238
    1MOL   H535  535   5.532   2.729   6.593 -2.5738  2.5655 -1.8581
    1MOL   H536  536   5.625   2.743   6.372  0.4248  0.8582  0.3119
    1MOL   H537  537   5.717   2.619   6.463 -1.5048  0.4765  2.1317
    1MOL   H538  538   5.558   2.447   6.334 -3.1326  0.6776  1.4228
    1MOL   H539  539   5.489   2.589   6.248 -1.0716  0.4484  2.0875
    1MOL   H540  540   5.709   2.649   6.161  0.8031 -0.0762  1.8881
    1MOL   H541  541   5.796   2.518   6.223  0.4275  0.4549  0.6164
    1MOL   H542  542   5.567   2.523   6.030 -1.6314 -1.4679  2.8357
    1MOL   H543  543   5.733   2.505   5.996  1.1757  0.7575  2.3320
    1MOL   H544  544   5.581   2.288   5.982  1.6689 -3.8142  1.4537
    1MOL   H545  545   5.524   2.334   6.140 -1.1027  0.2607 -2.3010
    1MOL   H546  546   5.794   2.211   6.069 -0.9023  0.3399 -1.5449
    1MOL   H547  547   5.753   2.272   6.233 -0.5823  0.7411  0.0300
    1MOL   H548  548   5.829   2.010   6.129  0.2411 -0.2999 -0.8526
    1MOL   H549  549   5.619   1.835   6.081 -1.0643  1.4523  0.3639
    1MOL   H550  550   5.655   1.825   6.262  1.6031  2.0930  0.6695
    1MOL   H551  551   5.898   1.789   6.185 -0.6882  2.4258 -1.1677
    1MOL   H552  552   5.833   1.784   6.021 -1.7678 -0.5789 -0.5612
    1MOL   H553  553   5.770   1.586   6.242  1.0798  0.0459  0.3083
    1MOL   H554  554   5.894   1.567   6.129  1.6655  3.5847 -1.3242
    1MOL   H555  555   5.701   1.569   5.946  0.5421  1.5905 -0.1136
    1MOL   H556  556   5.590   1.589   6.074  0.1671  0.2477 -0.6623
    1MOL   H557  557   5.781   1.373   6.043 -0.7115  1.0177 -1.9764
    1MOL   H558  558   5.676   1.368   6.189  2.2308 -0.2223  0.3092
    1MOL   H559  559   5.474   1.339   6.051  0.7527  0.7322  1.1547
    1MOL   H560  560   5.570   1.349   5.896 -0.5360  1.6514 -0.3926
    1MOL   H561  561   5.688   1.152   6.034 -0.8074 -1.7346  0.4897
    1MOL   C562  562   5.527   1.092   5.950 -0.1196  0.3891 -0.1573
    1MOL   O563  563   5.425   1.115   5.889  0.1272  0.3462  0.4407
    1MOL   C564  564   5.566   0.953   5.990  0.6068 -0.7967 -0.1856
    1MOL   C565  565   5.693   0.890   5.926 -0.2327 -0.1039 -0.4450
    1MOL   C566  566   5.728   0.939   5.788 -0.5787  0.3734 -0.0390
    1MOL   C567  567   5.852   0.873   5.726  0.1132  0.3318  0.8199
    1MOL   C568  568   5.880   0.909   5.579  0.7470 -0.1154 -0.4735
    1MOL   C569  569   5.924   1.054   5.539 -0.4414 -0.8491 -0.1096
    1MOL   C570  570   6.005   1.058   5.409  0.5861 -0.4680  0.2913
    1MOL   C571  571   6.058   1.200   5.372  0.3910  0.0998 -0.1805
    1MOL   C572  572   6.179   1.240   5.457  0.0365 -0.7739  0.0912
    1MOL   C573  573   6.244   1.360   5.389 -0.4794 -0.2148 -0.0351
    1MOL   C574  574   6.365   1.414   5.464  0.7358  0.3877  0.0294
    1MOL   O575  575   6.450   1.341   5.519  0.4069 -0.0324 -0.4194
    1MOL   N576  576   6.372   1.551   5.457 -0.1904 -0.5344 -0.0878
    1MOL   C577  577   6.471   1.636   5.516 -0.3849 -0.1547  0.5300
    1MOL   C578  578   6.416   1.782   5.512  0.2005 -0.2402 -0.5741
    1MOL   C579  579   6.516   1.887   5.580 -0.4992  0.1005 -0.4035
    1MOL   C580  580   6.454   2.024   5.571  0.0838 -0.1089 -1.1605
    1MOL   C581  581   6.537   2.142   5.625 -0.4027 -0.6110 -0.1063
    1MOL   C582  582   6.472   2.265   5.592  0.8935 -0.4798 -0.1802
    1MOL   N583  583   6.545   2.372   5.657  0.2956  0.1509  0.1201
    1MOL   H584  584   5.580   0.938   6.098  0.9929 -0.3146 -0.1698
    1MOL   H585  585   5.479   0.891   5.968 -0.4550  0.3955  0.5813
    1MOL   H586  586   5.785   0.927   5.972 -0.0988 -0.6035 -0.3068
    1MOL   H587  587   5.698   0.781   5.934  3.8310 -0.0015 -0.6083
    1MOL   H588  588   5.744   1.047   5.779 -0.7179  0.7467  3.4651
    1MOL   H589  589   5.645   0.928   5.718 -1.4953  1.9918  0.7540
    1MOL   H590  590   5.937   0.894   5.792 -0.3648  1.0358  1.2228
    1MOL   H591  591   5.848   0.765   5.736 -1.0107  0.3133  0.2410
    1MOL   H592  592   5.950   0.834   5.543  1.8141  1.1634 -1.1138
    1MOL   H593  593   5.785   0.899   5.526  0.6391  0.1287 -0.3288
    1MOL   H594  594   5.829   1.106   5.526 -0.0781  0.2943  1.7575
    1MOL   H595  595   5.978   1.100   5.621 -3.1382  4.6918 -1.2198
    1MOL   H596  596   6.080   0.980   5.425 -0.4227 -1.5554 -0.2084
    1MOL   H597  597   5.947   1.029   5.321  0.1471 -1.6019  0.9525
    1MOL   H598  598   5.975   1.268   5.394  0.6729  0.4716 -0.2728
    1MOL   H599  599   6.082   1.212   5.267  0.2704  0.8331 -0.1296
    1MOL   H600  600   6.255   1.161   5.461  0.5096 -0.3483 -0.3473
    1MOL   H601  601   6.149   1.265   5.558 -0.1519  1.5755 -0.5271
    1MOL   H602  602   6.283   1.327   5.293  1.1205  1.3791  0.0305
    1MOL   H603  603   6.177   1.444   5.371 -3.0754 -2.1975  0.1431
    1MOL   H604  604   6.302   1.588   5.393 -0.6831 -1.6254 -0.2015
    1MOL   H605  605   6.566   1.620   5.466 -2.0303 -2.0341 -2.1304
    1MOL   H606  606   6.486   1.607   5.620 -0.5494 -0.6528  0.4153
    1MOL   H607  607   6.317   1.777   5.558  0.7952 -1.4862  0.6007
    1MOL   H608  608   6.395   1.813   5.410  0.7023  0.7847 -0.3692
    1MOL   H609  609   6.607   1.888   5.519  0.5846 -0.4161  1.1850
    1MOL   H610  610   6.539   1.874   5.685 -2.4438  2.1018  0.2922
    1MOL   H611  611   6.425   2.041   5.467 -1.7094 -0.4803 -0.7340
    1MOL   H612  612   6.358   2.019   5.622  1.4533 -0.3497  1.4803
    1MOL   H613  613   6.634   2.128   5.577 -0.4612 -2.1136  0.2097
    1MOL   H614  614   6.548   2.138   5.733 -0.1584  1.9331  0.0064
    1MOL   H615  615   6.477   2.289   5.486 -1.7857 -0.6892 -0.3822
    1MOL   H616  616   6.371   2.280   5.629  1.3402 -1.3020  1.4319
    1MOL   H617  617   6.497   2.418   5.733  1.2014 -1.0027  1.4208
    1MOL   C618  618   6.664   2.421   5.617  0.2118  0.2180 -0.2443
    1MOL   O619  619   6.724   2.370   5.521  1.0130  0.4033 -0.2598
    1MOL   C620  620   6.726   2.529   5.703 -0.2192  0.6374 -0.5401
    1MOL   C621  621   6.880   2.530   5.702  0.3962 -0.6908  0.0491
    1MOL   C622  622   6.939   2.612   5.586 -0.2569  0.5383  1.0916
    1MOL   C623  623   7.091   2.633   5.606 -0.3093 -0.2238 -0.7488
    1MOL   C624  624   7.174   2.504   5.566 -0.0341  0.5201  0.1263
    1MOL   C625  625   7.171   2.462   5.411 -0.0437  1.0338 -0.2975
    1MOL   C626  626   7.192   2.570   5.300  0.3167 -0.2000  0.0647
    1MOL   C627  627   7.062   2.629   5.240  0.1340  0.0511  0.1620
    1MOL   C628  628   7.088   2.717   5.113  0.2212 -0.2431 -0.1758
    1MOL   C629  629   6.966   2.799   5.062 -0.6988  0.0921  0.0975
    1MOL   C630  630   6.934   2.905   5.162  0.3731 -0.2806 -0.1473
    1MOL   O631  631   7.017   2.953   5.234  0.1797  0.1033 -0.1338
    1MOL   N632  632   6.812   2.960   5.149 -0.1838  0.5890 -0.8401
    1MOL   C633  633   6.767   3.075   5.221  0.4330  0.2670 -0.2090
    1MOL   C634  634   6.825   3.204   5.161 -0.1928  0.3425  0.1909
    1MOL   C635  635   6.777   3.335   5.235  0.1929 -0.2833 -0.4678
    1MOL   C636  636   6.826   3.463   5.167  0.3667  0.2079 -0.3907
    1MOL   C637  637   6.770   3.591   5.225  0.3778 -0.2730 -0.7477
    1MOL   C638  638   6.810   3.722   5.155 -0.3967 -0.3853 -0.0425
    1MOL   N639  639   6.754   3.838   5.220  0.6776  0.0082 -0.4609
    1MOL   H640  640   6.693   2.485   5.797  1.0282  0.6265 -0.0924
    1MOL   H641  641   6.685   2.629   5.694  0.1348  0.9158  0.7667
    1MOL   H642  642   6.909   2.425   5.704 -0.7217 -1.0226 -0.6434
    1MOL   H643  643   6.903   2.576   5.799 -0.0098 -0.1100 -0.1258
    1MOL   H644  644   6.888   2.709   5.581  0.9330  1.0711 -1.8328
    1MOL   H645  645   6.915   2.562   5.492  0.8086 -1.1810  1.7230
    1MOL   H646  646   7.131   2.723   5.559  0.9181  0.2535  1.1629
    1MOL   H647  647   7.112   2.669   5.707 -1.6518 -0.2089 -0.4644
    1MOL   H648  648   7.278   2.522   5.595  0.6028 -3.2033  0.4462
    1MOL   H649  649   7.149   2.413   5.620  1.6271 -0.3556 -0.5367
    1MOL   H650  650   7.074   2.416   5.395  0.3413 -0.1889  0.8935
    1MOL   H651  651   7.250   2.388   5.398 -0.6842  0.5341 -1.3828
    1MOL   H652  652   7.265   2.644   5.332  0.3831 -0.1421 -0.2156
    1MOL   H653  653   7.238   2.505   5.225 -0.0276 -0.6129  0.2097
    1MOL   H654  654   6.994   2.546   5.224 -1.5446  0.6997  3.6405
    1MOL   H655  655   7.015   2.691   5.316  0.4805 -0.2949  0.6570
    1MOL   H656  656   7.121   2.646   5.037  2.0654 -0.0666  0.4287
    1MOL   H657  657   7.172   2.785   5.112  1.7411 -2.0829 -1.0212
    1MOL   H658  658   7.000   2.854   4.975 -2.8341  0.0727 -0.7655
    1MOL   H659  659   6.878   2.741   5.034 -0.6321  0.1390 -0.2138
    1MOL   H660  660   6.754   2.925   5.074 -0.1317 -0.9268 -0.1876
    1MOL   H661  661   6.661   3.095   5.207  0.4213  0.5630  0.2699
    1MOL   H662  662   6.797   3.063   5.325  2.0857 -0.3475 -0.7355
    1MOL   H663  663   6.788   3.217   5.060 -0.6758  0.1923  0.3491
    1MOL   H664  664   6.934   3.195   5.158 -0.2987 -2.0066  1.6236
    1MOL   H665  665   6.670   3.331   5.257  0.3957 -2.0792  0.2946
    1MOL   H666  666   6.822   3.348   5.333 -0.5986 -0.5181 -0.0689
    1MOL   H667  667   6.795   3.456   5.063  1.6927  2.7952 -0.9949
    1MOL   H668  668   6.934   3.466   5.174  0.2548  0.8207  1.4575
    1MOL   H669  669   6.662   3.579   5.216  0.1374  1.0266  0.2492
    1MOL   H670  670   6.784   3.594   5.334  1.0553 -1.5228 -0.7933
    1MOL   H671  671   6.918   3.726   5.144  0.0093 -0.1369  3.3632
    1MOL   H672  672   6.770   3.713   5.054 -1.0142  0.7325  0.0891
    1MOL   H673  673   6.805   3.875   5.299  1.2954  0.1009 -0.8977
    1MOL   C674  674   6.623   3.874   5.216  0.3067 -0.6246  0.3274
    1MOL   O675  675   6.534   3.808   5.160  0.1141  0.1786  0.3597
    1MOL   C676  676   6.594   4.007   5.299 -0.0233 -0.4501 -0.3390
    1MOL   C677  677   6.507   4.104   5.213  0.3130  0.0532  0.0123
    1MOL   C678  678   6.592   4.200   5.135  0.0852  0.5706 -0.0079
    1MOL   C679  679   6.509   4.299   5.047  0.6422 -0.3639 -0.2835
    1MOL   C680  680   6.582   4.323   4.921  0.4348 -0.6909 -0.2864
    1MOL   C681  681   6.510   4.424   4.825 -0.3852  0.6425 -0.7634
    1MOL   C682  682   6.601   4.468   4.707  0.9432  0.2601  0.7296
    1MOL   C683  683   6.534   4.575   4.621  0.4141 -0.7199  0.4696
    1MOL   C684  684   6.601   4.601   4.484 -0.2960  0.2275  0.7575
    1MOL   C685  685   6.540   4.524   4.364 -0.2340  0.0491 -0.5457
    1MOL   C686  686   6.556   4.374   4.370 -0.0159  0.1678 -0.4354
    1MOL   O687  687   6.656   4.323   4.323  0.4924  0.8038 -0.4722
    1MOL   N688  688   6.461   4.306   4.432  0.4022  0.5606 -0.6820
    1MOL   C689  689   6.460   4.161   4.434 -0.1579 -0.7510  0.0071
    1MOL   C690  690   6.462   4.115   4.574  0.6068  0.4539  0.1503
    1MOL   C691  691   6.451   3.962   4.583 -0.4131  0.2582  0.0191
    1MOL   C692  692   6.466   3.906   4.723  0.4081 -0.0452 -0.6978
    1MOL   C693  693   6.610   3.900   4.771  0.4258  0.6131  0.0322
    1MOL   C694  694   6.703   3.796   4.697 -0.2813 -0.3546 -0.0004
    1MOL   N695  695   6.844   3.798   4.729 -0.1520  0.6899  0.3263
    1MOL   H696  696   6.688   4.051   5.332 -1.3799  0.6133  2.2541
    1MOL   H697  697   6.536   3.981   5.387 -0.1590  2.1361  0.3666
    1MOL   H698  698   6.439   4.156   5.280 -0.8104 -3.1208  1.4474
    1MOL   H699  699   6.435   4.053   5.150 -0.8384  2.2036 -0.4645
    1MOL   H700  700   6.655   4.253   5.206 -1.3277 -1.7272  3.0924
    1MOL   H701  701   6.673   4.143   5.090 -0.5527 -0.3861  0.0308
    1MOL   H702  702   6.520   4.387   5.110  1.2157 -0.4103 -0.3138
    1MOL   H703  703   6.402   4.279   5.043  0.4746 -0.4802  3.1119
    1MOL   H704  704   6.596   4.230   4.866 -0.5486  0.5453 -2.6464
    1MOL   H705  705   6.682   4.359   4.945  0.6000  0.4065 -2.5094
    1MOL   H706  706   6.409   4.389   4.803 -0.9028  1.2436  0.5612
    1MOL   H707  707   6.488   4.510   4.889  0.1073  0.6332 -0.5813
    1MOL   H708  708   6.693   4.511   4.747  0.2074  1.1271  1.5005
    1MOL   H709  709   6.638   4.379   4.656  0.5611 -0.3347  1.4863
    1MOL   H710  710   6.428   4.554   4.606  0.7201 -1.7005 -0.3357
    1MOL   H711  711   6.540   4.661   4.688  0.8840 -1.4690  1.4086
    1MOL   H712  712   6.707   4.579   4.493 -0.0260  1.1218 -0.1738
    1MOL   H713  713   6.604   4.704   4.451  0.7653 -0.0975 -0.1726
    1MOL   H714  714   6.436   4.555   4.351 -0.0135  0.9772 -0.1051
    1MOL   H715  715   6.591   4.554   4.272  2.4723 -3.1960 -0.1775
    1MOL   H716  716   6.380   4.360   4.459  1.4976  1.4159  1.0162
    1MOL   H717  717   6.362   4.131   4.398 -0.1787  1.3605 -1.8135
    1MOL   H718  718   6.538   4.107   4.381 -0.3997  1.6313 -2.9356
    1MOL   H719  719   6.375   4.158   4.623 -0.3456 -1.0799 -0.1660
    1MOL   H720  720   6.546   4.150   4.634  0.9754 -1.1517  0.5968
    1MOL   H721  721   6.358   3.932   4.536 -0.0993 -0.6066 -0.0596
    1MOL   H722  722   6.518   3.917   4.509 -0.1423  0.0292  0.4023
    1MOL   H723  723   6.432   3.802   4.719 -0.9002  0.4063 -1.4647
    1MOL   H724  724   6.404   3.967   4.788 -0.4668 -0.5415 -1.0485
    1MOL   H725  725   6.620   3.894   4.879  0.9666  1.4964  0.0437
    1MOL   H726  726   6.653   4.000   4.758  0.0730  1.0245  1.8618
    1MOL   H727  727   6.668   3.694   4.716  1.7175 -1.3147 -1.3425
    1MOL   H728  728   6.700   3.814   4.589 -0.5051  0.9367  0.2217
    1MOL   H729  729   6.882   3.887   4.759 -0.6067  0.3357  1.9850
    1MOL   C730  730   6.929   3.706   4.678  0.0782  0.1079 -0.0351
    1MOL   O731  731   6.887   3.599   4.628  0.3730 -0.6415 -0.3109
    1MOL   C732  732   7.079   3.738   4.675  0.5085 -0.1811  0.0939
    1MOL   C733  733   7.163   3.615   4.729 -0.5101  0.3922  0.6159
    1MOL   C734  734   7.307   3.648   4.751 -0.3286 -0.1992 -0.0927
    1MOL   C735  735   7.335   3.742   4.865  0.4398 -1.4262 -0.0314
    1MOL   C736  736   7.336   3.689   5.011 -0.1312 -0.0578  0.1642
    1MOL   C737  737   7.198   3.652   5.074  0.4388 -0.9433 -0.3392
    1MOL   C738  738   7.201   3.634   5.229 -0.2198 -0.0494 -0.9627
    1MOL   C739  739   7.172   3.773   5.294 -0.3782 -0.1787 -0.8454
    1MOL   C740  740   7.160   3.764   5.448 -0.3497 -0.1262  0.3065
    1MOL   C741  741   7.127   3.884   5.547 -0.4247 -0.4436 -0.6056
    1MOL   C742  742   6.986   3.919   5.534 -0.1613 -0.5764  0.4097
    1MOL   O743  743   6.934   3.921   5.421 -0.4436 -0.0686  0.7103
    1MOL   N744  744   6.910   3.952   5.641 -0.2784  0.0201  0.2547
    1MOL   C745  745   6.772   3.981   5.638  0.4649  0.4177  0.0310
    1MOL   C746  746   6.759   4.127   5.591  0.3031 -0.4231 -0.3080
    1MOL   C747  747   6.620   4.179   5.607 -0.4440  0.1077 -0.1172
    1MOL   C748  748   6.588   4.314   5.535 -0.6003 -0.3649  0.3298
    1MOL   C749  749   6.455   4.390   5.565  0.2256  0.6045  0.4262
    1MOL   C750  750   6.328   4.327   5.511  0.5566 -0.2691 -0.1071
    1MOL   N751  751   6.213   4.413   5.551  0.1588  0.7958  0.0383
    1MOL   H752  752   7.094   3.819   4.747 -0.3787 -0.3582  0.4753
    1MOL   H753  753   7.108   3.761   4.572 -3.1187  1.3977 -0.6446
    1MOL   H754  754   7.157   3.543   4.647  0.3764  2.3819 -1.2511
    1MOL   H755  755   7.122   3.567   4.818 -0.6442 -0.1776  0.2556
    1MOL   H756  756   7.325   3.700   4.657  1.3312  1.0434  0.8923
    1MOL   H757  757   7.365   3.557   4.734 -3.2698 -1.9077 -1.4494
    1MOL   H758  758   7.265   3.825   4.871  1.0143 -0.8803 -0.7694
    1MOL   H759  759   7.434   3.786   4.856 -0.6146  1.0060 -0.0308
    1MOL   H760  760   7.380   3.773   5.064  4.7719 -1.4267 -1.5279
    1MOL   H761  761   7.410   3.609   5.016  0.4630  0.4869  0.1112
    1MOL   H762  762   7.119   3.715   5.033  0.2001 -1.9386 -1.4345
    1MOL   H763  763   7.164   3.555   5.037 -1.5789 -0.5968  0.5226
    1MOL   H764  764   7.116   3.568   5.248 -0.2047  0.3169  0.4137
    1MOL   H765  765   7.288   3.589   5.276 -0.4190  0.2427 -0.2996
    1MOL   H766  766   7.252   3.841   5.265 -1.0713  0.7588 -0.5920
    1MOL   H767  767   7.082   3.826   5.261 -0.6649  0.8776  1.5320
    1MOL   H768  768   7.263   3.746   5.479 -0.5159 -2.0899 -0.1762
    1MOL   H769  769   7.098   3.679   5.479 -0.2935 -0.4490 -0.4543
    1MOL   H770  770   7.143   3.856   5.651 -3.1286 -0.0792 -0.0560
    1MOL   H771  771   7.197   3.964   5.525 -0.0711 -0.5653  0.0744
    1MOL   H772  772   6.958   3.948   5.730  2.3997  0.5622 -1.0958
    1MOL   H773  773   6.745   3.988   5.744  0.0950  1.5406 -0.1341
    1MOL   H774  774   6.711   3.916   5.576 -0.0190 -0.9320  1.8827
    1MOL   H775  775   6.791   4.128   5.487  3.2267 -0.1500  0.5533
    1MOL   H776  776   6.832   4.185   5.646  0.7089 -0.3395 -0.9312
    1MOL   H777  777   6.600   4.183   5.714 -0.4828  0.4090 -0.1359
    1MOL   H778  778   6.548   4.101   5.579 -0.7314 -0.4905  2.2042
    1MOL   H779  779   6.674   4.373   5.564  0.1013 -2.3225  2.3997
    1MOL   H780  780   6.607   4.298   5.429 -0.1831 -0.9070  0.4823
    1MOL   H781  781   6.463   4.486   5.516 -2.1157 -0.3000 -1.8652
    1MOL   H782  782   6.443   4.410   5.671  0.4398  1.2270  0.3318
    1MOL   H783  783   6.326   4.335   5.402 -1.7193  0.4222 -0.0351
    1MOL   H784  784   6.303   4.222   5.530 -1.1859 -0.0880 -1.3107
    1MOL   H785  785   6.199   4.503   5.507  3.0596  0.4361 -1.7370
    1MOL   C786  786   6.119   4.375   5.642 -0.3527  0.2807  0.0130
    1MOL   O787  787   6.115   4.262   5.688 -0.3438 -0.5244  0.4887
    1MOL   C788  788   6.004   4.469   5.679  0.5778  0.4249  0.0909
    1MOL   C789  789   5.932   4.546   5.568  0.0172 -0.3893  0.4651
    1MOL   C790  790   5.820   4.474   5.501 -0.4131  0.5341 -0.7488
    1MOL   C791  791   5.768   4.548   5.368 -0.2633 -0.4690 -0.4164
    1MOL   C792  792   5.642   4.466   5.313 -0.1927  0.2715  0.5166
    1MOL   C793  793   5.570   4.527   5.190 -0.6982  0.4209  0.5766
    1MOL   C794  794   5.662   4.525   5.067 -0.5525 -0.7924  0.5893
    1MOL   C795  795   5.597   4.541   4.928  0.6349 -0.5055  0.6154
    1MOL   C796  796   5.694   4.526   4.799  0.6396  0.6200 -0.2473
    1MOL   C797  797   5.622   4.572   4.665 -0.0016 -0.2243  0.6100
    1MOL   C798  798   5.715   4.541   4.550  0.1315 -0.0543  0.3827
    1MOL   O799  799   5.758   4.428   4.536 -0.1019  0.0413 -0.2837
    1MOL   N800  800   5.752   4.643   4.466  0.4521 -0.3453  0.1437
    1MOL   C801  801   5.843   4.629   4.354 -0.1265  0.1521  0.1378
    1MOL   C802  802   5.794   4.523   4.255 -0.2650  0.1154  0.1823
    1MOL   C803  803   5.672   4.567   4.167 -0.0188 -0.2987  0.1984
    1MOL   C804  804   5.627   4.457   4.065 -0.4691 -0.3789 -0.0135
    1MOL   C805  805   5.574   4.328   4.125  0.3688  0.0994  0.4905
    1MOL   C806  806   5.532   4.228   4.026  0.0712  0.3359  0.0690
    1MOL   N807  807   5.498   4.109   4.098  0.1407  0.2373  0.4867
    1MOL   H808  808   6.042   4.538   5.755  0.9181 -0.0216  0.3284
    1MOL   H809  809   5.932   4.407   5.732  0.6162  1.7307  1.7334
    1MOL   H810  810   5.899   4.639   5.614  2.2724  1.7552 -2.1275
    1MOL   H811  811   6.000   4.586   5.492 -0.2299  0.0183  0.4570
    1MOL   H812  812   5.728   4.478   5.560 -0.1853  0.4244 -0.3870
    1MOL   H813  813   5.835   4.369   5.477 -2.9351  0.6659 -3.2328
    1MOL   H814  814   5.741   4.652   5.389  0.7919 -0.3546  0.3970
    1MOL   H815  815   5.847   4.556   5.294  0.9526  0.7442  0.9669
    1MOL   H816  816   5.674   4.366   5.284 -0.3601  0.8594 -1.8345
    1MOL   H817  817   5.575   4.452   5.397  0.8486  0.3309  1.3595
    1MOL   H818  818   5.478   4.470   5.179 -1.4879  1.7024  0.4167
    1MOL   H819  819   5.563   4.631   5.224  2.2694  0.9538 -0.2243
    1MOL   H820  820   5.735   4.605   5.080 -0.9141 -0.5742  1.2859
    1MOL   H821  821   5.727   4.438   5.066  1.6837  0.8263 -2.4942
    1MOL   H822  822   5.511   4.474   4.920 -1.3748  2.1476 -0.5889
    1MOL   H823  823   5.557   4.642   4.920  0.4464 -0.7292 -1.6636
    1MOL   H824  824   5.731   4.427   4.776 -0.3428  0.2535 -0.2632
    1MOL   H825  825   5.789   4.578   4.815 -0.6435  2.5629  1.2222
    1MOL   H826  826   5.527   4.527   4.635 -0.8737  1.6959  0.3645
    1MOL   H827  827   5.590   4.676   4.659  1.6321  0.3159  0.9952
    1MOL   H828  828   5.724   4.734   4.500  3.3696  0.8229 -0.4069
    1MOL   H829  829   5.938   4.600   4.398 -0.1784  0.6582  0.5877
    1MOL   H830  830   5.864   4.725   4.306 -0.5670 -0.5848 -1.5727
    1MOL   H831  831   5.770   4.427   4.300 -2.6125  1.4491  1.8308
    1MOL   H832  832   5.875   4.509   4.183 -0.4028  0.4544 -0.0419
    1MOL   H833  833   5.589   4.583   4.236 -0.5420  3.1673 -1.1416
    1MOL   H834  834   5.696   4.665   4.128 -0.4814 -0.8101 -1.4431
    1MOL   H835  835   5.694   4.439   3.981  0.3858  4.7519 -0.5814
    1MOL   H836  836   5.533   4.503   4.032 -2.1466 -2.3515  1.8489
    1MOL   H837  837   5.483   4.365   4.174 -1.1403 -0.3166 -1.9056
    1MOL   H838  838   5.629   4.289   4.210 -2.6463 -2.0738  1.5193
    1MOL   H839  839   5.612   4.208   3.955  1.5907  0.1332  1.8136
    1MOL   H840  840   5.450   4.273   3.970  0.1000 -0.4381 -0.6022
    1MOL   H841  841   5.561   4.076   4.170 -0.5229  0.4656  1.1858
    1MOL   C842  842   5.400   4.026   4.064 -0.2574 -0.8189  1.2579
    1MOL   O843  843   5.335   4.048   3.962 -0.1293 -0.0153 -0.6984
    1MOL   C844  844   5.388   3.895   4.147 -0.0646 -0.0786 -0.1540
    1MOL   C845  845   5.238   3.845   4.164 -0.3580 -0.3029 -0.1672
    1MOL   C846  846   5.150   3.926   4.248 -0.7017 -0.2587 -0.3769
    1MOL   C847  847   4.999   3.886   4.241  0.2093  0.4198  0.7690
    1MOL   C848  848   4.974   3.740   4.302  0.3642 -0.4251 -0.0312
    1MOL   C849  849   4.827   3.713   4.347 -0.4523  0.4712  0.1981
    1MOL   C850  850   4.738   3.685   4.223 -0.5855 -0.3959  0.9343
    1MOL   C851  851   4.592   3.698   4.252 -0.9481 -0.1355 -0.8715
    1MOL   C852  852   4.501   3.660   4.137  0.0939  0.3407  0.1361
    1MOL   C853  853   4.356   3.668   4.185  0.2939 -0.3385  0.4351
    1MOL   C854  854   4.262   3.586   4.092 -0.3571 -0.6624 -0.2551
    1MOL   O855  855   4.300   3.564   3.979  0.3438 -0.3479  0.0869
    1MOL   N856  856   4.138   3.554   4.129 -0.9126  0.0728  0.0849
    1MOL   C857  857   4.026   3.519   4.031 -0.6177  0.3539 -0.0883
    1MOL   C858  858   3.938   3.410   4.091  0.5426 -0.2467  0.3971
    1MOL   C859  859   4.016   3.283   4.142 -0.9159  0.4380  0.2232
    1MOL   C860  860   3.923   3.170   4.187 -0.1413  0.6457 -0.5850
    1MOL   C861  861   3.841   3.096   4.070 -0.4312  0.8142 -0.2179
    1MOL   C862  862   3.721   3.013   4.112  0.0829  0.4764 -0.3609
    1MOL   N863  863   3.768   2.914   4.207  0.3762 -0.3583  0.2600
    1MOL   H864  864   5.435   3.900   4.245 -0.7183 -0.0590  0.1636
    1MOL   H865  865   5.432   3.812   4.092  1.4594  0.8870 -0.4329
    1MOL   H866  866   5.224   3.740   4.192 -0.3385 -0.3495 -0.3301
    1MOL   H867  867   5.194   3.846   4.064  0.0662 -1.3600 -0.3787
    1MOL   H868  868   5.177   3.906   4.352 -1.8552 -0.3878 -0.1006
    1MOL   H869  869   5.173   4.029   4.223  2.1952 -0.3888  1.4798
    1MOL   H870  870   4.950   3.894   4.144  1.4373 -2.4148 -0.1414
    1MOL   H871  871   4.945   3.956   4.305  0.1982 -0.7630  2.0848
    1MOL   H872  872   5.003   3.659   4.235  0.6001 -1.0511  0.8295
    1MOL   H873  873   5.024   3.724   4.397  1.2750  1.4611 -0.1713
    1MOL   H874  874   4.838   3.631   4.418  1.0909 -0.5973 -1.2420
    1MOL   H875  875   4.779   3.793   4.404  0.5648  1.3697 -0.1871
    1MOL   H876  876   4.765   3.767   4.157 -1.9070  0.2932  1.2499
    1MOL   H877  877   4.770   3.591   4.178  0.4313  0.6796 -0.6283
    1MOL   H878  878   4.576   3.802   4.280  0.2048 -0.4565  1.0825
    1MOL   H879  879   4.568   3.630   4.334  0.5992  1.9660  1.4254
    1MOL   H880  880   4.524   3.555   4.120 -0.1604  0.4923 -1.2189
    1MOL   H881  881   4.510   3.707   4.039  3.1537 -1.9778 -0.7778
    1MOL   H882  882   4.359   3.620   4.283 -1.0936 -0.0329  0.6317
    1MOL   H883  883   4.321   3.771   4.188  1.2908  0.0383 -0.5164
    1MOL   H884  884   4.119   3.565   4.228 -0.4285 -3.3165  0.6184
    1MOL   H885  885   4.067   3.477   3.939 -2.0895 -1.8949  0.2387
    1MOL   H886  886   3.967   3.603   3.994  0.4088  0.8080 -0.7229
    1MOL   H887  887   3.876   3.379   4.006 -1.3374  1.4945  1.1069
    1MOL   H888  888   3.875   3.460   4.163 -0.3865  0.7140 -1.0549
    1MOL   H889  889   4.079   3.317   4.224 -1.9823  1.4031  0.6645
    1MOL   H890  890   4.077   3.240   4.064  1.3124 -0.1733  2.2521
    1MOL   H891  891   3.846   3.196   4.261 -0.6309 -2.1161 -0.0894
    1MOL   H892  892   3.996   3.105   4.234 -0.2306  1.3017  0.4821
    1MOL   H893  893   3.796   3.164   3.997 -0.4767 -0.5688 -1.5043
    1MOL   H894  894   3.915   3.048   4.006 -0.0822 -0.2087  0.9400
    1MOL   H895  895   3.647   3.080   4.154 -0.7540 -0.5049 -0.2461
    1MOL   H896  896   3.673   2.969   4.024 -1.3664 -0.8508  1.0728
    1MOL   H897  897   3.837   2.848   4.172  2.4579  0.4627  2.6393
    1MOL   C898  898   3.710   2.890   4.328  0.2119 -0.2322  0.0459
    1MOL   O899  899   3.622   2.958   4.377  0.2914  0.2782 -0.0067
    1MOL   C900  900   3.756   2.771   4.409 -0.0494 -0.2279 -0.2506
    1MOL   C901  901   3.722   2.786   4.562  0.4522 -0.4684  0.2574
    1MOL   C902  902   3.826   2.867   4.634 -0.6717  0.3671 -0.5398
    1MOL   C903  903   3.826   2.856   4.790 -0.3685  0.4364  0.2932
    1MOL   C904  904   3.707   2.916   4.863 -0.3855  0.2850  0.4252
    1MOL   C905  905   3.708   3.070   4.852 -0.4612 -0.2934 -0.8036
    1MOL   C906  906   3.581   3.136   4.913 -0.4258 -0.2707  0.7589
    1MOL   C907  907   3.576   3.136   5.071  0.3672 -0.8703 -1.0153
    1MOL   C908  908   3.437   3.124   5.137  0.3921 -0.2166  1.1159
    1MOL   C909  909   3.409   3.100   5.285  0.3947  0.1814 -0.1983
    1MOL   C910  910   3.452   3.216   5.370 -0.6140 -0.1171  0.5125
    1MOL   O911  911   3.379   3.311   5.384 -0.4613 -0.1250 -0.1465
    1MOL   N912  912   3.563   3.208   5.437  0.5286  0.1082  0.7914
    1MOL   C913  913   3.613   3.330   5.507 -0.6642  0.0093 -0.3005
    1MOL   C914  914   3.748   3.292   5.571  0.6571  0.2771 -0.1025
    1MOL   C915  915   3.735   3.186   5.675 -0.0797 -0.1782  0.2677
    1MOL   C916  916   3.845   3.174   5.787 -0.1406  0.2299 -0.6603
    1MOL   C917  917   3.830   3.077   5.900  0.1058 -0.5438  0.1506
    1MOL   C918  918   3.944   3.082   6.005 -0.1218  0.5138  0.2927
    1MOL   N919  919   3.908   2.999   6.122 -0.6733  0.9587  0.6959
    1MOL   H920  920   3.718   2.680   4.364  1.1324 -0.8170 -0.0917
    1MOL   H921  921   3.865   2.769   4.399  0.0713  0.6348  0.7784
    1MOL   H922  922   3.735   2.687   4.606 -1.1116 -0.3218  1.0752
    1MOL   H923  923   3.624   2.830   4.578  0.8661  1.2159 -1.5674
    1MOL   H924  924   3.836   2.972   4.606 -0.9083  0.0571 -1.8182
    1MOL   H925  925   3.923   2.822   4.611 -0.9838 -1.6173  1.8143
    1MOL   H926  926   3.825   2.751   4.819  0.9862 -0.1250 -1.6300
    1MOL   H927  927   3.916   2.896   4.837 -0.4655 -0.8660  1.6415
    1MOL   H928  928   3.701   2.894   4.969  1.8967  0.2643  0.5751
    1MOL   H929  929   3.617   2.870   4.822 -0.3707  0.2419  0.4414
    1MOL   H930  930   3.791   3.122   4.898  1.0283 -1.6462 -1.9264
    1MOL   H931  931   3.718   3.110   4.751  1.0727  1.5800  0.0615
    1MOL   H932  932   3.497   3.088   4.862  0.2975 -0.3612 -0.3856
    1MOL   H933  933   3.558   3.238   4.883 -3.2287 -1.3550 -0.9202
    1MOL   H934  934   3.621   3.225   5.114  2.0337 -1.8141 -0.7968
    1MOL   H935  935   3.638   3.056   5.112  1.1880  1.7302  3.1295
    1MOL   H936  936   3.382   3.210   5.098 -0.3755 -1.2891 -0.2059
    1MOL   H937  937   3.386   3.038   5.094 -0.0495  0.4959  0.2203
    1MOL   H938  938   3.304   3.087   5.312  0.8644 -0.1663  1.5490
    1MOL   H939  939   3.444   3.002   5.317 -0.3870 -0.7216 -2.0719
    1MOL   H940  940   3.627   3.131   5.424  0.9313  0.9195 -2.3072
    1MOL   H941  941   3.543   3.372   5.580 -1.8330 -1.8824 -0.2939
    1MOL   H942  942   3.644   3.409   5.439 -3.3241  0.9089 -0.5313
    1MOL   H943  943   3.818   3.261   5.494 -0.0638 -0.9875 -0.2550
    1MOL   H944  944   3.800   3.380   5.610  0.7194  0.0586  0.3114
    1MOL   H945  945   3.640   3.204   5.726  0.6513 -0.3446  1.7242
    1MOL   H946  946   3.727   3.095   5.616  1.0998  0.9816 -1.7274
    1MOL   H947  947   3.852   3.269   5.839  4.6334  0.9597 -2.3462
    1MOL   H948  948   3.939   3.146   5.738 -0.0084 -2.0593  0.8169
    1MOL   H949  949   3.740   3.102   5.956  0.6396 -2.4215  1.8918
    1MOL   H950  950   3.806   2.981   5.853 -0.7701 -0.6937  0.8810
    1MOL   H951  951   3.957   3.183   6.044 -0.5415  0.6659  0.0358
    1MOL   H952  952   4.040   3.056   5.962 -0.9055  0.1108 -1.2324
    1MOL   H953  953   3.846   2.919   6.116 -1.6279  1.7100  0.3894
    1MOL   C954  954   3.970   3.003   6.239 -0.1056 -0.1184 -0.3274
    1MOL   O955  955   4.056   3.088   6.261 -0.1390 -0.0534 -0.3167
    1MOL   C956  956   3.954   2.886   6.330  0.8178  0.1301 -0.0246
    1MOL   C957  957   4.015   2.904   6.472 -0.3953 -0.0599 -0.0197
    1MOL   C958  958   3.992   2.789   6.570  0.2970 -0.1759 -0.2240
    1MOL   C959  959   4.015   2.648   6.518  0.2269  0.3752 -0.1821
    1MOL   C960  960   4.158   2.608   6.497 -0.5337  0.3204 -0.0162
    1MOL   C961  961   4.191   2.466   6.443  0.2582 -0.5258  0.7765
    1MOL   C962  962   4.334   2.422   6.451  0.2540 -0.3399 -0.1804
    1MOL   C963  963   4.423   2.512   6.368  0.1174  0.5545  0.3606
    1MOL   C964  964   4.570   2.469   6.359 -0.0324 -0.0153 -0.0648
    1MOL   C965  965   4.659   2.533   6.468  0.3710 -0.3086 -0.3977
    1MOL   C966  966   4.644   2.684   6.480  0.4330  0.1103 -0.3326
    1MOL   O967  967   4.667   2.739   6.374 -0.3662  0.4879  0.3865
    1MOL   N968  968   4.581   2.741   6.585 -0.2461  0.0310  0.5154
    1MOL   C969  969   4.557   2.885   6.600 -0.0697  0.8969  0.0963
    1MOL   C970  970   4.431   2.901   6.689  0.1525 -0.2003  0.6306
    1MOL   C971  971   4.367   3.043   6.649 -0.1870 -0.0354  1.0856
    1MOL   C972  972   4.237   3.072   6.730  0.0434 -0.3330 -0.3854
    1MOL   C973  973   4.164   3.193   6.659 -0.4765 -0.7484  0.0563
    1MOL   C974  974   4.023   3.198   6.694 -0.0483 -0.1548 -0.0127
    1MOL   N975  975   3.943   3.296   6.632  0.3216  0.0504  0.1302
    1MOL   H976  976   3.851   2.855   6.344  0.9572 -0.0319  0.6992
    1MOL   H977  977   4.003   2.804   6.277  1.7084  1.2729 -0.9866
    1MOL   H978  978   3.981   2.992   6.526  2.3618  1.4840 -0.6883
    1MOL   H979  979   4.121   2.902   6.447 -0.5176  2.6383 -0.9156
    1MOL   H980  980   4.059   2.812   6.653  0.9435  2.2472 -1.3871
    1MOL   H981  981   3.891   2.787   6.610  0.6867 -1.3754  0.7264
    1MOL   H982  982   3.977   2.566   6.579 -2.9230  0.9641 -1.2405
    1MOL   H983  983   3.954   2.637   6.428  1.0886  1.9329 -0.9796
    1MOL   H984  984   4.208   2.685   6.438 -1.6610  1.3481  0.3357
    1MOL   H985  985   4.203   2.625   6.594  1.7075 -1.3030 -0.7486
    1MOL   H986  986   4.132   2.407   6.514  0.2964 -2.2043 -0.5451
    1MOL   H987  987   4.154   2.452   6.341  0.1539 -2.0387  1.0109
    1MOL   H988  988   4.379   2.433   6.550 -0.1049  0.3403 -0.0871
    1MOL   H989  989   4.345   2.320   6.417 -0.3432 -0.0852 -1.1698
    1MOL   H990  990   4.380   2.506   6.268 -0.1430 -1.3440  0.5721
    1MOL   H991  991   4.410   2.618   6.387 -0.0224  0.7138 -0.5783
    1MOL   H992  992   4.597   2.504   6.260  2.4985 -1.0872  0.2055
    1MOL   H993  993   4.589   2.362   6.355  1.1199  0.1851 -0.1368
    1MOL   H994  994   4.638   2.474   6.556 -2.5100 -2.2626 -2.3159
    1MOL   H995  995   4.760   2.501   6.441  0.1489 -0.4691 -1.0523
    1MOL   H996  996   4.538   2.687   6.659  3.1072 -1.9659  1.1121
    1MOL   H997  997   4.548   2.932   6.502  0.1148  1.3894  0.3138
    1MOL   H998  998   4.649   2.928   6.641 -0.1831  1.8787 -0.6475
    1MOL   H999  999   4.457   2.893   6.795  0.8454  2.3809  0.7054
    1MOL     H1 1000   4.363   2.817   6.677 -1.4162  1.0343  0.7355
    1MOL     H2 1001   4.341   3.032   6.544  0.2762 -1.9297  1.1496
    1MOL     H3 1002   4.440   3.122   6.670 -1.2394  1.3715 -0.4080
    1MOL     H4 1003   4.175   2.983   6.738  2.0047 -1.8287 -1.4520
    1MOL     H5 1004   4.259   3.105   6.832 -0.0968  1.4596 -0.9096
    1MOL     H6 1005   4.184   3.182   6.553 -3.7918  0.9544 -0.8181
    1MOL     H7 1006   4.207   3.292   6.679  0.3844 -0.8849 -1.0988
    1MOL     H8 1007   3.967   3.105   6.696  0.8388 -0.6818  0.8589
    1MOL     H9 1008   4.010   3.211   6.801  1.5726 -1.3809  0.3550
    1MOL    H10 1009   3.864   3.267   6.575  0.1297 -2.6763  1.7073
    1MOL    C11 1010   3.933   3.424   6.667 -0.1385 -0.5886 -0.1177
    1MOL    O12 1011   4.018   3.471   6.740  0.1775  0.3753 -0.2329
    1MOL    C13 1012   3.802   3.493   6.629 -0.0556 -0.4701  0.0490
    1MOL    C14 1013   3.809   3.629   6.556  0.0505 -0.5075  0.2313
    1MOL    C15 1014   3.681   3.699   6.509  0.3582 -0.0872  1.0933
    1MOL    C16 1015   3.590   3.753   6.618  0.0562 -0.2650 -0.3106
    1MOL    C17 1016   3.447   3.774   6.573  0.0736 -0.1371 -0.2492
    1MOL    C18 1017   3.379   3.880   6.663  0.0983 -0.5616  0.1290
    1MOL    C19 1018   3.227   3.886   6.632  0.8828  0.0676 -0.4606
    1MOL    C20 1019   3.149   3.960   6.743 -0.2853 -0.4755  0.6525
    1MOL    C21 1020   2.999   3.939   6.720 -0.1666 -0.5729  0.1414
    1MOL    C22 1021   2.923   4.035   6.812 -0.2190  0.5212  0.1575
    1MOL    C23 1022   2.782   4.074   6.756 -0.0834 -0.0077  0.9331
    1MOL    O24 1023   2.755   4.045   6.642 -0.9024  0.2251  0.2947
    1MOL    N25 1024   2.695   4.123   6.845 -0.0311 -0.9517 -0.2887
    1MOL    C26 1025   2.587   4.210   6.807  0.2014 -0.3938 -0.2754
    1MOL    C27 1026   2.498   4.179   6.684 -0.7742 -0.0397 -0.2151
    1MOL    C28 1027   2.418   4.045   6.693 -0.0760 -0.3551 -0.5793
    1MOL    C29 1028   2.301   4.065   6.789  0.3424 -0.5862  0.4234
    1MOL    C30 1029   2.221   3.939   6.825 -0.0550 -0.4014  0.1790
    1MOL    C31 1030   2.108   3.906   6.733 -0.5962 -0.5658  0.2336
    1MOL    N32 1031   2.031   3.797   6.792 -0.4287  0.2612 -0.5233
    1MOL    H33 1032   3.751   3.507   6.725 -0.3571 -2.1969  0.1561
    1MOL    H34 1033   3.736   3.429   6.571 -0.1497 -0.2744 -0.0603
    1MOL    H35 1034   3.881   3.610   6.476  0.3731  0.4796  0.2739
    1MOL    H36 1035   3.861   3.702   6.617 -1.2409 -0.1379  0.9052
    1MOL    H37 1036   3.628   3.621   6.454  1.1237  0.3091 -0.2168
    1MOL    H38 1037   3.699   3.776   6.435  0.9123  0.0722  1.3906
    1MOL    H39 1038   3.594   3.686   6.704 -2.2757  1.9561  1.6290
    1MOL    H40 1039   3.623   3.852   6.651 -2.5422 -0.2212  2.3787
    1MOL    H41 1040   3.436   3.804   6.469  0.0775 -1.6832 -0.7121
    1MOL    H42 1041   3.390   3.682   6.585  0.5184 -0.1925  1.5854
    1MOL    H43 1042   3.386   3.856   6.769 -1.2337  2.6771  0.9960
    1MOL    H44 1043   3.426   3.975   6.639 -1.9852  0.4700  0.0270
    1MOL    H45 1044   3.197   3.921   6.533 -0.1609 -0.4691 -0.3366
    1MOL    H46 1045   3.191   3.786   6.654  0.3345 -0.1349 -2.2038
    1MOL    H47 1046   3.173   3.944   6.848  1.7091  2.2969  0.6864
    1MOL    H48 1047   3.176   4.066   6.735  1.0511 -0.9167 -0.8666
    1MOL    H49 1048   2.977   3.835   6.746 -1.4294  0.0319  1.5808
    1MOL    H50 1049   2.968   3.955   6.617  0.7383  0.0289 -0.0451
    1MOL    H51 1050   2.911   3.993   6.912 -1.0506  0.7840  0.1737
    1MOL    H52 1051   2.978   4.129   6.819 -0.0942  0.5646 -1.2195
    1MOL    H53 1052   2.733   4.137   6.937 -2.9895 -0.1415  0.8874
    1MOL    H54 1053   2.634   4.308   6.797 -0.0250 -0.4813 -2.4663
    1MOL    H55 1054   2.529   4.209   6.899 -0.2933 -0.5274 -0.5853
    1MOL    H56 1055   2.553   4.189   6.591  0.1230 -1.0479  0.1982
    1MOL    H57 1056   2.425   4.259   6.673 -0.4571  0.6153  2.1765
    1MOL    H58 1057   2.481   3.966   6.732 -2.4309 -1.6163  0.7547
    1MOL    H59 1058   2.377   4.022   6.594 -0.8774  1.1301 -0.6147
    1MOL    H60 1059   2.232   4.134   6.740  0.5797 -0.3442  0.4282
    1MOL    H61 1060   2.341   4.103   6.883  0.2304  1.5400 -0.3615
    1MOL    H62 1061   2.186   3.960   6.926  0.8770 -0.2181  0.4682
    1MOL    H63 1062   2.296   3.861   6.841  1.4099  0.6279 -1.4547
    1MOL    H64 1063   2.147   3.883   6.634 -0.1263  1.2702 -0.0319
    1MOL    H65 1064   2.044   3.993   6.721  0.0646 -0.2246 -0.8814
    1MOL    H66 1065   2.056   3.700   6.782  2.3264  0.9550 -0.6927
    1MOL    C67 1066   1.900   3.803   6.821  0.1249 -0.5022  0.7567
    1MOL    O68 1067   1.837   3.913   6.824 -0.4674 -0.4827  0.5411
    1MOL    C69 1068   1.837   3.673   6.863  0.5394  0.0680  0.2960
    1MOL    C70 1069   1.682   3.661   6.862  0.4953 -0.0771  0.0889
    1MOL    C71 1070   1.619   3.678   7.002  0.3425  0.0682 -0.0126
    1MOL    C72 1071   1.471   3.727   6.990  0.4226 -0.2531  0.4005
    1MOL    C73 1072   1.366   3.615   6.980 -0.0122  0.4379 -0.2895
    1MOL    C74 1073   1.224   3.657   7.001  0.8223  0.3245 -0.6150
    1MOL    C75 1074   1.126   3.537   6.999  0.4958  0.4324 -0.0686
    1MOL    C76 1075   0.984   3.587   7.017  0.1539 -0.3392  0.3249
    1MOL    C77 1076   0.880   3.486   6.978  0.8855  0.6978 -0.4607
    1MOL    C78 1077   0.738   3.542   7.010 -0.0539 -0.4177 -0.3059
    1MOL    C79 1078   0.620   3.447   7.012 -0.2789  0.6639  0.3421
    1MOL    O80 1079   0.550   3.446   7.111  0.1903  0.4580  0.6856
    1MOL    N81 1080   0.606   3.362   6.906  0.2858  0.6479 -1.3100
    1MOL    C82 1081   0.507   3.260   6.898 -0.2855  0.5471  0.3292
    1MOL    C83 1082   0.369   3.306   6.844 -0.4095  0.5832 -0.2190
    1MOL    C84 1083   0.267   3.195   6.812  0.2477  0.0327  0.3108
    1MOL    C85 1084   0.187   3.131   6.927 -0.0454  0.0461  0.3653
    1MOL    C86 1085   0.079   3.030   6.881 -0.2739  0.8291  0.5883
    1MOL    C87 1086   7.691   2.976   6.997 -0.3438 -0.1384  0.0556
    1MOL    N88 1087   0.074   2.886   7.078  0.0136 -0.4823 -0.0200
    1MOL    H89 1088   1.874   3.639   6.960 -0.3727  0.8607  0.9272
    1MOL    H90 1089   1.864   3.604   6.783 -0.1108  0.5350 -0.3273
    1MOL    H91 1090   1.645   3.735   6.791 -2.3788 -0.5615  1.0334
    1MOL    H92 1091   1.658   3.568   6.811  1.0997  0.3899 -1.0592
    1MOL    H93 1092   1.635   3.586   7.059  3.3947  1.7683  2.0765
    1MOL    H94 1093   1.675   3.753   7.060 -0.8717  2.2789 -1.6386
    1MOL    H95 1094   1.448   3.794   7.073 -1.2156 -1.5660  1.0406
    1MOL    H96 1095   1.456   3.792   6.904 -1.3596 -1.1360  0.0186
    1MOL    H97 1096   1.358   3.570   6.882 -1.6037 -1.5027  0.6900
    1MOL    H98 1097   1.392   3.529   7.042  1.0165 -0.4017 -1.8806
    1MOL    H99 1098   1.218   3.717   7.092 -0.7354 -1.8728  0.7877
    1MOL   H100 1099   1.191   3.727   6.924  1.8003 -0.3360 -1.6591
    1MOL   H101 1100   1.159   3.475   7.083 -0.2316 -1.1616 -0.9398
    1MOL   H102 1101   1.127   3.477   6.908  0.2382 -0.6818  0.6579
    1MOL   H103 1102   0.971   3.623   7.119 -0.1931  0.5822 -0.0368
    1MOL   H104 1103   0.976   3.670   6.947 -2.2041 -0.1208  0.7970
    1MOL   H105 1104   0.889   3.388   7.025  2.7425  0.3173 -1.5631
    1MOL   H106 1105   0.881   3.469   6.870 -0.7204  2.0360 -0.6964
    1MOL   H107 1106   0.737   3.596   7.104  0.4870  0.7414 -0.9491
    1MOL   H108 1107   0.713   3.618   6.936 -0.3939  0.3290  0.5673
    1MOL   H109 1108   0.679   3.357   6.837  1.5556  1.8634 -0.0988
    1MOL   H110 1109   0.510   3.201   6.990  0.8460 -0.4435 -0.3336
    1MOL   H111 1110   0.540   3.185   6.826 -0.4842  2.0151 -1.3231
    1MOL   H112 1111   0.384   3.369   6.757 -2.6153  0.8406 -0.4248
    1MOL   H113 1112   0.316   3.360   6.923 -3.4706 -1.3778 -0.8571
    1MOL   H114 1113   0.325   3.123   6.754  0.5384 -0.5492  1.3062
    1MOL   H115 1114   0.192   3.246   6.752 -0.1017  1.0070  1.5509
    1MOL   H116 1115   0.250   3.079   7.000 -1.4833 -0.6208  1.1400
    1MOL   H117 1116   0.131   3.203   6.985 -1.7970 -1.2213  0.2740
    1MOL   H118 1117   0.011   3.089   6.820 -0.0955 -0.1300 -0.5498
    1MOL   H119 1118   0.111   2.942   6.825 -1.1775  1.5350 -1.0567
    1MOL   H120 1119   7.653   3.051   7.067 -1.4184 -1.5278  0.9877
    1MOL   H121 1120   7.608   2.920   6.954 -0.2637 -0.7103  0.6499
    1MOL   H122 1121   0.012   2.868   7.155  0.4929  0.6686  0.6382
    1MOL   H123 1122   0.141   2.952   7.115  1.4646 -0.6372 -2.2383
    2MOL     C1 1123   6.579   1.810   3.721 -0.5364  0.1394 -0.0977
    2MOL     O2 1124   6.686   1.758   3.767  0.9280  0.0946 -0.1586
    2MOL     C3 1125   6.589   1.858   3.572  0.0320 -0.3761 -0.4336
    2MOL     C4 1126   6.666   1.994   3.557 -0.1628  0.4278  0.6036
    2MOL     C5 1127   6.814   1.992   3.598  0.7947 -0.1555 -0.0948
    2MOL     C6 1128   6.902   2.118   3.598 -0.0021 -0.5108 -0.0892
    2MOL     C7 1129   7.053   2.084   3.616 -0.1132 -0.0697  0.3187
    2MOL     C8 1130   7.107   2.100   3.757 -0.3130  0.3928 -0.1012
    2MOL     C9 1131   7.094   1.970   3.829 -0.1451  0.6173 -0.4858
    2MOL    C10 1132   7.212   1.956   3.928 -0.6526 -0.1855 -0.7161
    2MOL    C11 1133   7.337   1.896   3.865 -0.1322 -0.0361  0.0363
    2MOL    C12 1134   7.443   1.880   3.977 -0.3301 -0.8626 -0.9342
    2MOL    C13 1135   7.400   1.799   4.104 -0.1412 -0.3486 -0.7758
    2MOL    O14 1136   7.377   1.859   4.205  0.4151 -0.3432  0.1734
    2MOL    N15 1137   7.411   1.669   4.104 -0.8332  0.0360  0.4910
    2MOL    C16 1138   7.383   1.583   4.218 -0.7243  0.4677  0.4953
    2MOL    C17 1139   7.494   1.471   4.246 -0.3038  0.5596  0.1531
    2MOL    C18 1140   7.452   1.384   4.361 -0.7794 -0.1610 -1.0109
    2MOL    C19 1141   7.543   1.260   4.396 -0.9310  0.0010 -1.2611
    2MOL    C20 1142   7.682   1.319   4.431 -0.2920  0.6008  0.1302
    2MOL    C21 1143   0.077   1.222   4.516  0.3177 -0.0599  0.1493
    2MOL    N22 1144   0.184   1.292   4.576  0.0262 -0.2839  0.0535
    2MOL    H23 1145   6.488   1.873   3.534 -0.0128  1.4204  0.3487
    2MOL    H24 1146   6.642   1.784   3.511 -0.4321 -0.9701 -0.1246
    2MOL    H25 1147   6.610   2.071   3.610 -1.5881  1.7918 -2.7131
    2MOL    H26 1148   6.659   2.036   3.457 -0.9024 -1.5636 -0.2182
    2MOL    H27 1149   6.849   1.924   3.520  0.7382  0.7689 -0.9244
    2MOL    H28 1150   6.831   1.946   3.696  0.3310  0.5566  0.3191
    2MOL    H29 1151   6.889   2.182   3.510 -1.8187  1.4234  1.4980
    2MOL    H30 1152   6.876   2.186   3.680  0.0678  1.9509 -2.0364
    2MOL    H31 1153   7.109   2.157   3.557  0.0390  0.1957  0.7831
    2MOL    H32 1154   7.084   1.997   3.559 -2.8301 -0.6447 -0.3436
    2MOL    H33 1155   7.213   2.121   3.742 -0.1274  0.6993  1.4808
    2MOL    H34 1156   7.089   2.194   3.810  0.4841  2.0082 -2.6401
    2MOL    H35 1157   7.001   1.951   3.883 -0.6398  0.3351 -1.4183
    2MOL    H36 1158   7.106   1.890   3.756 -0.2259 -0.6622  0.8728
    2MOL    H37 1159   7.232   2.055   3.970 -1.4459 -1.0546  1.8058
    2MOL    H38 1160   7.189   1.897   4.017 -1.7893  3.1339  1.2827
    2MOL    H39 1161   7.375   1.953   3.780  1.7495 -0.5546  0.4850
    2MOL    H40 1162   7.313   1.796   3.830  1.2742 -0.4032  0.0800
    2MOL    H41 1163   7.532   1.841   3.929  1.1126 -0.4395  1.2922
    2MOL    H42 1164   7.479   1.975   4.017 -2.5090 -0.3469 -0.0792
    2MOL    H43 1165   7.463   1.618   4.035 -1.1075 -0.5319  0.6953
    2MOL    H44 1166   7.297   1.531   4.176  0.6992 -0.9690 -0.6461
    2MOL    H45 1167   7.363   1.636   4.312 -1.7501 -1.1909  1.2268
    2MOL    H46 1168   7.587   1.518   4.275 -1.3129  1.4999  1.9618
    2MOL    H47 1169   7.527   1.425   4.153  1.2991  1.5720  0.2076
    2MOL    H48 1170   7.446   1.453   4.445  0.0749 -0.4985 -0.6704
    2MOL    H49 1171   7.351   1.348   4.341 -1.8487  0.5514  2.7923
    2MOL    H50 1172   7.557   1.184   4.320  0.4574 -0.3914 -0.6416
    2MOL    H51 1173   7.499   1.207   4.480 -0.5818  0.6383 -0.6720
    2MOL    H52 1174   0.046   1.340   4.339  0.2436 -0.3201  0.2332
    2MOL    H53 1175   7.665   1.413   4.483 -0.5351  1.0664 -0.7687
    2MOL    H54 1176   0.010   1.183   4.594 -1.3136 -1.0107 -1.6868
    2MOL    H55 1177   0.114   1.139   4.456  0.2724  0.1271 -0.1364
    2MOL    H56 1178   0.171   1.334   4.667 -0.8860 -1.8342  0.6605
    2MOL    H57 1179   6.493   1.842   3.780  0.0379 -1.5908  1.7289
    2MOL    C58 1180   0.309   1.299   4.519  0.6558 -0.3053 -0.4192
    2MOL    O59 1181   0.338   1.257   4.405 -0.0012 -0.3439 -0.2773
    2MOL    C60 1182   0.423   1.355   4.603  0.4203  0.1964 -0.4550
    2MOL    C61 1183   0.519   1.443   4.527 -0.5197  0.6627 -0.0008
    2MOL    C62 1184   0.632   1.510   4.603  0.2344 -0.3701 -0.2397
    2MOL    C63 1185   0.753   1.545   4.519  0.0145 -0.3714 -0.2178
    2MOL    C64 1186   0.837   1.646   4.591 -0.4944 -0.0020 -0.2374
    2MOL    C65 1187   0.973   1.685   4.534  0.3170  0.3041  0.4007
    2MOL    C66 1188   1.085   1.579   4.555  0.0102 -0.0221 -0.2304
    2MOL    C67 1189   1.223   1.641   4.584 -0.7936 -0.4696  0.2570
    2MOL    C68 1190   1.332   1.530   4.573 -0.7131  0.3785  0.5275
    2MOL    C69 1191   1.480   1.567   4.583 -0.0465  0.4276 -0.5784
    2MOL    C70 1192   1.530   1.604   4.724 -0.2315  0.6035  0.1463
    2MOL    O71 1193   1.470   1.572   4.823  0.4674  0.0099 -0.0213
    2MOL    N72 1194   1.645   1.664   4.737 -0.0052 -0.2100 -0.4481
    2MOL    C73 1195   1.719   1.682   4.864  0.1548 -0.4592  0.3453
    2MOL    C74 1196   1.873   1.684   4.844  0.3594 -0.1753 -0.2990
    2MOL    C75 1197   1.961   1.757   4.952 -0.0921 -0.4156  0.8956
    2MOL    C76 1198   1.918   1.739   5.098 -0.2317 -0.0901 -0.1000
    2MOL    C77 1199   2.001   1.832   5.187 -0.4047  1.1931 -0.1901
    2MOL    C78 1200   1.959   1.824   5.334 -0.1102  0.6899 -0.0023
    2MOL    N79 1201   1.959   1.687   5.383  0.2920  0.3148  0.4671
    2MOL    H80 1202   0.474   1.273   4.654  0.4017  0.5668  0.1629
    2MOL    H81 1203   0.371   1.403   4.686 -0.6690 -1.4181 -0.1766
    2MOL    H82 1204   0.572   1.386   4.450  0.1918  2.3051 -0.7503
    2MOL    H83 1205   0.467   1.510   4.459  0.9311  2.8457  1.0056
    2MOL    H84 1206   0.675   1.446   4.680 -0.5050  1.5815  1.8514
    2MOL    H85 1207   0.584   1.591   4.658  0.9352  0.9099 -1.4742
    2MOL    H86 1208   0.731   1.591   4.423 -0.0663  0.2350  0.0906
    2MOL    H87 1209   0.803   1.452   4.492 -0.4280 -0.3892 -0.9756
    2MOL    H88 1210   0.789   1.742   4.610  0.2680 -0.0211  1.8380
    2MOL    H89 1211   0.849   1.615   4.695 -0.7645  2.4206  0.5457
    2MOL    H90 1212   1.006   1.774   4.588  0.3877  0.6782 -0.2536
    2MOL    H91 1213   0.976   1.716   4.430 -0.0372 -1.0317 -0.0065
    2MOL    H92 1214   1.081   1.511   4.470 -0.9484  1.8680 -1.7154
    2MOL    H93 1215   1.058   1.518   4.641 -1.3099  3.1500  1.6707
    2MOL    H94 1216   1.241   1.720   4.511 -0.8573 -0.2894  0.4327
    2MOL    H95 1217   1.220   1.694   4.680  1.6415 -1.1089  0.7108
    2MOL    H96 1218   1.318   1.488   4.473 -0.2857 -0.7432  0.9249
    2MOL    H97 1219   1.310   1.438   4.628  0.5782  1.0215  2.1578
    2MOL    H98 1220   1.540   1.486   4.542 -1.4185 -2.3013  2.5857
    2MOL    H99 1221   1.485   1.653   4.516 -0.4375  0.0656 -1.0716
    2MOL   H100 1222   1.700   1.684   4.654  0.8219  0.6713  0.3125
    2MOL   H101 1223   1.690   1.612   4.942 -2.2140  2.2900  2.0218
    2MOL   H102 1224   1.680   1.775   4.905 -1.7633 -0.8762 -0.4722
    2MOL   H103 1225   1.908   1.580   4.847  1.7582  0.1992 -2.3736
    2MOL   H104 1226   1.907   1.723   4.748 -2.0105  0.0055 -1.0997
    2MOL   H105 1227   1.970   1.865   4.941  0.7552 -0.4972  0.8055
    2MOL   H106 1228   2.059   1.712   4.940 -0.5534 -1.5418  1.2843
    2MOL   H107 1229   1.817   1.778   5.105 -0.4546 -0.7010  0.1010
    2MOL   H108 1230   1.920   1.633   5.121  0.2250  0.0374  0.4796
    2MOL   H109 1231   1.982   1.934   5.155  1.2808  1.2858 -0.9276
    2MOL   H110 1232   2.110   1.825   5.179 -0.4069  1.0225 -0.0758
    2MOL   H111 1233   1.859   1.863   5.348 -1.0557 -0.9328 -1.9009
    2MOL   H112 1234   2.029   1.886   5.391  1.1792 -1.1905  0.5218
    2MOL   H113 1235   2.010   1.612   5.339 -0.0433  0.1732  0.3164
    2MOL   C114 1236   1.893   1.655   5.492 -0.0841  0.6099 -0.2399
    2MOL   O115 1237   1.831   1.740   5.557 -0.9254  0.4360  0.2410
    2MOL   C116 1238   1.883   1.509   5.529  0.2793  1.2035 -0.0586
    2MOL   C117 1239   1.932   1.488   5.671  0.3673 -0.3791  0.7428
    2MOL   C118 1240   1.949   1.338   5.702 -0.1464  0.3241  0.4440
    2MOL   C119 1241   1.993   1.311   5.846 -0.3774 -0.5045 -0.0516
    2MOL   C120 1242   2.034   1.164   5.873  0.3206 -0.0505 -0.1485
    2MOL   C121 1243   2.089   1.149   6.009 -0.4917  0.1130  0.2700
    2MOL   C122 1244   2.150   1.010   6.031 -0.0148 -0.0183 -0.9415
    2MOL   C123 1245   2.182   0.988   6.186 -0.0884  0.2945  0.5471
    2MOL   C124 1246   2.249   0.855   6.222 -0.6827 -0.5058 -0.6377
    2MOL   C125 1247   2.318   0.844   6.363  0.9646  0.1419 -0.6612
    2MOL   C126 1248   2.445   0.924   6.385  0.5568  0.5134 -0.1584
    2MOL   O127 1249   2.508   0.967   6.288 -0.1920 -0.4269  0.5460
    2MOL   N128 1250   2.489   0.936   6.507  0.2726 -0.0169  0.3678
    2MOL   C129 1251   2.604   1.005   6.550  0.1461  0.1878 -0.3296
    2MOL   C130 1252   2.660   0.943   6.681 -0.5770  0.7858  0.2291
    2MOL   C131 1253   2.779   1.017   6.736  0.3284 -0.5976 -0.1367
    2MOL   C132 1254   2.801   0.979   6.883  0.0401 -0.4346  0.0256
    2MOL   C133 1255   2.924   1.056   6.940  0.0305  0.6626  0.3205
    2MOL   C134 1256   2.988   0.995   7.066 -0.3065  0.0328 -0.2205
    2MOL   N135 1257   3.090   1.096   7.096 -0.2814  0.0042 -0.3962
    2MOL   H136 1258   1.783   1.467   5.520 -0.3202  2.7549 -0.9260
    2MOL   H137 1259   1.944   1.445   5.466  0.3426  0.9450  0.2686
    2MOL   H138 1260   1.874   1.541   5.748 -0.3716  2.0195 -1.4033
    2MOL   H139 1261   2.033   1.528   5.681  0.9600 -1.4400 -0.9230
    2MOL   H140 1262   1.853   1.288   5.691  0.4706 -0.7546 -0.1555
    2MOL   H141 1263   2.025   1.301   5.633 -1.2831 -0.0765 -0.6122
    2MOL   H142 1264   2.077   1.376   5.867 -0.4693 -0.0987 -0.9053
    2MOL   H143 1265   1.910   1.324   5.916  0.6381 -1.4763  1.3651
    2MOL   H144 1266   1.962   1.086   5.846  1.4875 -1.5218  0.8553
    2MOL   H145 1267   2.113   1.155   5.798 -0.4487 -0.8697 -0.8700
    2MOL   H146 1268   2.002   1.147   6.075 -0.6572 -0.6436  0.0324
    2MOL   H147 1269   2.154   1.230   6.039  0.1587 -0.8183  1.4266
    2MOL   H148 1270   2.084   0.929   6.002  0.0509 -0.7315  0.8440
    2MOL   H149 1271   2.236   1.007   5.963  0.7590 -2.0552  0.0734
    2MOL   H150 1272   2.092   0.987   6.248 -0.3723  0.4516  0.1396
    2MOL   H151 1273   2.245   1.068   6.224  0.7473 -0.9090  1.7463
    2MOL   H152 1274   2.327   0.822   6.154 -0.4020 -0.0615 -0.5386
    2MOL   H153 1275   2.174   0.777   6.234  1.3023 -2.3248  0.2222
    2MOL   H154 1276   2.336   0.738   6.383 -0.6809  0.0772  0.6599
    2MOL   H155 1277   2.229   0.867   6.423  0.4352  1.6293 -2.0027
    2MOL   H156 1278   2.450   0.870   6.573  1.9919 -0.9636  0.4549
    2MOL   H157 1279   2.576   1.107   6.576 -0.4348  0.4760 -2.0311
    2MOL   H158 1280   2.671   1.022   6.465  2.1432 -1.3186  0.9070
    2MOL   H159 1281   2.698   0.842   6.667 -0.4387  0.6851  1.2999
    2MOL   H160 1282   2.590   0.951   6.765 -0.7361  1.3526  0.0414
    2MOL   H161 1283   2.865   0.999   6.671  0.8462  3.0749 -0.5455
    2MOL   H162 1284   2.764   1.124   6.726 -1.2935 -0.7742  0.3646
    2MOL   H163 1285   2.712   0.996   6.944 -0.3101 -2.1453  0.0194
    2MOL   H164 1286   2.817   0.871   6.882 -2.2574 -0.7908 -2.5500
    2MOL   H165 1287   2.897   1.161   6.942  0.0180  0.6577  0.4041
    2MOL   H166 1288   3.005   1.040   6.870  0.7121 -0.4212  1.3304
    2MOL   H167 1289   2.920   0.992   7.152 -0.3963  0.9789 -0.2594
    2MOL   H168 1290   3.033   0.896   7.055  0.7501  0.3818  0.8218
    2MOL   H169 1291   3.066   1.172   7.158  3.8046  2.2547 -1.4227
    2MOL   C170 1292   3.223   1.071   7.086  0.0891  0.3548  0.1285
    2MOL   O171 1293   3.270   0.973   7.029  0.4527 -0.3909  0.0795
    2MOL   C172 1294   3.313   1.170   7.154  0.5787 -0.7631 -0.6601
    2MOL   C173 1295   3.454   1.119   7.178  0.7995  0.0718  0.0250
    2MOL   C174 1296   3.535   1.192   7.286  0.5745 -0.3995  0.2965
    2MOL   C175 1297   3.576   1.344   7.263  0.2790  0.1382  0.6352
    2MOL   C176 1298   3.672   1.387   7.379  0.4191 -0.1793 -0.5979
    2MOL   C177 1299   3.723   1.530   7.357  0.1433  0.1460  0.8993
    2MOL   C178 1300   3.826   1.562   7.467  0.2345  0.2184  0.4561
    2MOL   C179 1301   3.926   1.667   7.424  0.3730  0.1102  0.3249
    2MOL   C180 1302   3.894   1.813   7.421 -0.5467  0.0791  0.1458
    2MOL   C181 1303   3.839   1.864   7.282 -0.4997  0.0307  0.1761
    2MOL   C182 1304   3.793   2.009   7.285 -0.3794 -0.4102 -0.1623
    2MOL   O183 1305   3.870   2.092   7.240 -0.1495 -0.3893 -0.5945
    2MOL   N184 1306   3.669   2.036   7.322  0.3270 -0.2308  0.2650
    2MOL   C185 1307   3.615   2.172   7.331 -0.7451 -0.3342  0.2319
    2MOL   C186 1308   3.487   2.171   7.412 -0.0214  0.1122  1.0688
    2MOL   C187 1309   3.427   2.316   7.417  0.4065 -0.1412 -0.2379
    2MOL   C188 1310   3.287   2.325   7.472 -0.0250  0.0131  0.4023
    2MOL   C189 1311   3.236   2.474   7.494 -0.4583  0.3082  0.2636
    2MOL   C190 1312   3.086   2.499   7.535  0.3705 -0.1623  0.3312
    2MOL   N191 1313   3.061   2.647   7.544  0.2027 -0.3370  0.4151
    2MOL   H192 1314   3.311   1.266   7.103  2.2465  0.5759  1.6837
    2MOL   H193 1315   3.274   1.184   7.255 -0.1191 -2.7445 -0.6418
    2MOL   H194 1316   3.512   1.114   7.086  0.7603 -0.3537  0.0201
    2MOL   H195 1317   3.465   1.017   7.216  1.4446  1.1848  3.0322
    2MOL   H196 1318   3.624   1.135   7.309  0.1489 -0.4108  2.0010
    2MOL   H197 1319   3.473   1.194   7.376  2.0958 -1.2438  1.3882
    2MOL   H198 1320   3.616   1.356   7.163 -2.5407  1.0403 -0.4110
    2MOL   H199 1321   3.486   1.404   7.266 -0.0169 -0.3442  2.0156
    2MOL   H200 1322   3.612   1.385   7.470 -0.3125 -0.1503 -1.0783
    2MOL   H201 1323   3.763   1.329   7.396  0.6231 -0.1734 -1.6418
    2MOL   H202 1324   3.638   1.598   7.360  0.0024 -0.0585  1.5409
    2MOL   H203 1325   3.768   1.530   7.257  0.6738  2.0245  1.1186
    2MOL   H204 1326   3.769   1.586   7.557  0.0351 -1.2780  0.7324
    2MOL   H205 1327   3.879   1.468   7.479 -1.1743 -0.7099 -0.3906
    2MOL   H206 1328   4.009   1.655   7.492 -1.9602 -3.9170  2.6251
    2MOL   H207 1329   3.966   1.647   7.324 -1.0906 -0.0497 -0.2424
    2MOL   H208 1330   3.981   1.869   7.455 -1.3962  1.4716  0.0711
    2MOL   H209 1331   3.821   1.837   7.499 -0.3263  2.7226 -0.3957
    2MOL   H210 1332   3.921   1.859   7.210 -2.2566  0.9208 -1.9786
    2MOL   H211 1333   3.748   1.806   7.264 -0.1861 -0.8616  1.4392
    2MOL   H212 1334   3.612   1.960   7.355  2.3618 -1.7442  0.3650
    2MOL   H213 1335   3.598   2.214   7.232  1.6285  1.3699  0.4920
    2MOL   H214 1336   3.688   2.235   7.383 -1.5130  0.0247  0.8993
    2MOL   H215 1337   3.411   2.102   7.377 -0.8244 -0.2108  3.3464
    2MOL   H216 1338   3.499   2.147   7.518 -3.2214 -0.0535  1.4290
    2MOL   H217 1339   3.489   2.378   7.482 -0.2667  0.5958 -0.2933
    2MOL   H218 1340   3.419   2.374   7.325  1.9565  1.7887  0.8129
    2MOL   H219 1341   3.278   2.261   7.559  2.4362 -1.5963 -0.4528
    2MOL   H220 1342   3.227   2.281   7.393  0.3059  0.5733 -0.1675
    2MOL   H221 1343   3.259   2.518   7.397 -0.7507 -1.2496 -0.5327
    2MOL   H222 1344   3.292   2.526   7.572 -0.5303  2.3564 -1.0083
    2MOL   H223 1345   3.055   2.441   7.622 -1.2627  0.9961  0.5465
    2MOL   H224 1346   3.023   2.471   7.451  1.5128  0.1740 -0.6401
    2MOL   H225 1347   3.020   2.697   7.467 -0.2846  2.4642  2.4070
    2MOL   C226 1348   3.114   2.735   7.635  0.8568  0.1428 -0.0840
    2MOL   O227 1349   3.166   2.701   0.051  0.0733 -0.0000 -0.1056
    2MOL   C228 1350   3.118   2.884   7.591  0.1354 -0.2259 -0.3345
    2MOL   C229 1351   3.113   2.986   0.016 -0.4105  0.4795  0.0616
    2MOL   C230 1352   3.257   3.005   0.085 -0.3182 -0.4226  0.0495
    2MOL   C231 1353   3.240   3.085   0.217 -0.2419  0.0671  0.2006
    2MOL   C232 1354   3.373   3.138   0.268 -0.4337  0.1575 -0.8514
    2MOL   C233 1355   3.369   3.253   0.373 -0.2488  0.4830 -0.2918
    2MOL   C234 1356   3.318   3.382   0.315 -0.4303  0.8932 -0.1545
    2MOL   C235 1357   3.344   3.510   0.394  0.0287  0.3428 -1.0704
    2MOL   C236 1358   3.257   3.622   0.328  0.3280  0.4747 -0.3847
    2MOL   C237 1359   3.296   3.761   0.373  0.6056 -0.9736  0.4492
    2MOL   C238 1360   3.285   3.788   0.527 -0.5285  0.3039 -0.4230
    2MOL   O239 1361   3.210   3.724   0.596 -0.1160  0.4595 -0.0756
    2MOL   N240 1362   3.365   3.891   0.563  0.2488  0.1334 -0.4751
    2MOL   C241 1363   3.360   3.944   0.694 -0.4168  0.1996 -0.5975
    2MOL   C242 1364   3.464   4.058   0.711  0.0429  0.8832  0.1750
    2MOL   C243 1365   3.422   4.190   0.638 -0.5766  0.0816  0.0180
    2MOL   C244 1366   3.508   4.307   0.684 -0.0485 -0.6150  0.4735
    2MOL   C245 1367   3.649   4.296   0.608 -0.4551  0.5066  0.4756
    2MOL   C246 1368   3.743   4.415   0.644 -0.2859  0.6427  0.6357
    2MOL   N247 1369   3.766   4.437   0.783  0.0743 -0.0458 -0.8893
    2MOL   H248 1370   3.025   2.893   7.534  1.6219 -0.5544 -2.8826
    2MOL   H249 1371   3.201   2.895   7.521  0.4182 -0.7130 -0.0742
    2MOL   H250 1372   3.080   3.083   7.669  1.4894  1.7188  1.4347
    2MOL   H251 1373   3.042   2.949   0.090  0.4255 -1.5113 -0.1209
    2MOL   H252 1374   3.311   2.912   0.102 -1.0900 -0.7878  0.5171
    2MOL   H253 1375   3.316   3.055   0.009  0.9132 -1.7036  0.1384
    2MOL   H254 1376   3.202   3.019   0.295  0.1471  2.2345  2.2848
    2MOL   H255 1377   3.172   3.170   0.211 -0.4458 -0.1763 -0.9390
    2MOL   H256 1378   3.435   3.155   0.180 -0.2327 -2.8362 -1.3322
    2MOL   H257 1379   3.418   3.055   0.321  0.2262  0.0827 -1.5166
    2MOL   H258 1380   3.310   3.231   0.462 -2.1225 -1.7552 -2.0515
    2MOL   H259 1381   3.468   3.265   0.417 -0.9044  1.3060  1.0084
    2MOL   H260 1382   3.211   3.369   0.300 -0.7053  0.0778  2.2831
    2MOL   H261 1383   3.349   3.396   0.211  0.6209 -2.9023 -0.4276
    2MOL   H262 1384   3.318   3.497   0.499 -0.7524  2.4621 -0.9812
    2MOL   H263 1385   3.448   3.541   0.384  0.3821  0.3149  1.9042
    2MOL   H264 1386   3.250   3.620   0.219 -0.3752  0.2378 -0.3381
    2MOL   H265 1387   3.152   3.606   0.352  0.2562 -0.8717 -1.5146
    2MOL   H266 1388   3.397   3.792   0.345 -0.2874  1.5645 -0.0956
    2MOL   H267 1389   3.237   3.837   0.323  2.3509 -0.7428 -1.3384
    2MOL   H268 1390   3.426   3.937   0.498 -0.3806 -1.5072 -2.2615
    2MOL   H269 1391   3.379   3.865   0.767  3.7648  1.2618 -0.3888
    2MOL   H270 1392   3.263   3.983   0.725 -0.5058  1.1372 -1.9902
    2MOL   H271 1393   3.565   4.027   0.683  0.6347  2.8808  0.0039
    2MOL   H272 1394   3.461   4.069   0.820  1.2523  2.4454  0.0742
    2MOL   H273 1395   3.420   4.190   0.529  0.4432 -0.9789 -0.0102
    2MOL   H274 1396   3.330   4.218   0.690 -0.3578  2.6469 -0.8857
    2MOL   H275 1397   3.533   4.311   0.790  2.7697 -0.8078 -0.1319
    2MOL   H276 1398   3.461   4.401   0.655 -0.1135  0.0600  2.7104
    2MOL   H277 1399   3.637   4.290   0.500 -0.0587  1.6862  0.3603
    2MOL   H278 1400   3.708   4.209   0.637 -0.4386  2.2572  6.2670
    2MOL   H279 1401   3.709   4.509   0.602 -0.0259 -0.6050 -2.5051
    2MOL   H280 1402   3.838   4.391   0.597 -0.1230  0.0753  1.2445
    2MOL   H281 1403   3.731   4.368   0.849 -1.8285  0.8603 -0.9185
    2MOL   C282 1404   3.804   4.556   0.841 -0.9304  0.7309 -0.3245
    2MOL   O283 1405   3.829   4.656   0.780  0.3061  0.0466 -0.1458
    2MOL   C284 1406   3.822   4.559   0.993  0.6104 -0.0515 -0.4403
    2MOL   C285 1407   3.795   4.698   1.054  0.0115  0.1525 -0.6254
    2MOL   C286 1408   3.873   4.697   1.184  0.0246  0.2122 -0.0205
    2MOL   C287 1409   3.812   4.628   1.305  0.0177 -0.1729  0.1354
    2MOL   C288 1410   3.910   4.629   1.432 -0.3799  0.2228  0.3624
    2MOL   C289 1411   4.022   4.525   1.421 -0.7636 -0.5103 -0.1933
    2MOL   C290 1412   4.132   4.547   1.529  0.3390  0.2656  0.9063
    2MOL   C291 1413   4.079   4.540   1.669  0.4204  0.0110 -0.3654
    2MOL   C292 1414   3.994   4.420   1.710 -0.0086 -0.6200  1.1179
    2MOL   C293 1415   3.980   4.404   1.865  0.1299  0.0719  0.1711
    2MOL   C294 1416   3.935   4.262   1.897  0.5037  0.2022  0.4786
    2MOL   O295 1417   3.980   4.166   1.840  0.0074 -0.4911  0.0004
    2MOL   N296 1418   3.845   4.260   1.998  0.3912 -0.1345  0.0588
    2MOL   C297 1419   3.760   4.147   2.028  0.0583  0.2317  0.5021
    2MOL   C298 1420   3.617   4.179   2.049 -0.1548 -0.7234  0.3083
    2MOL   C299 1421   3.529   4.067   2.097  0.8907  0.8700  0.2732
    2MOL   C300 1422   3.382   4.099   2.098 -0.0831 -0.4927  0.5175
    2MOL   C301 1423   3.311   4.006   2.203 -0.5756 -0.2694  0.0135
    2MOL   C302 1424   3.163   4.036   2.214  0.9395  0.4364 -0.3760
    2MOL   N303 1425   3.107   3.952   2.323 -0.2796 -0.6787 -0.1337
    2MOL   H304 1426   3.765   4.479   1.042 -0.0700  0.1645 -0.8678
    2MOL   H305 1427   3.919   4.521   1.024 -0.2436 -0.7173  1.5343
    2MOL   H306 1428   3.686   4.710   1.059  0.0162 -0.6686  2.2399
    2MOL   H307 1429   3.834   4.771   0.983 -0.5475  0.1151 -0.9801
    2MOL   H308 1430   3.977   4.668   1.168 -0.6146 -2.0935 -0.1755
    2MOL   H309 1431   3.880   4.805   1.194 -0.7758  0.5051 -2.3003
    2MOL   H310 1432   3.777   4.526   1.291  2.0794 -0.8866 -0.0739
    2MOL   H311 1433   3.732   4.691   1.344 -1.2314 -1.6897  0.0692
    2MOL   H312 1434   3.949   4.730   1.436 -1.1959  0.5025  1.2848
    2MOL   H313 1435   3.865   4.612   1.529 -1.4435  2.4663  0.2838
    2MOL   H314 1436   3.991   4.421   1.433 -0.8362 -0.8376 -2.8187
    2MOL   H315 1437   4.071   4.520   1.323  0.8706 -0.0274  0.5977
    2MOL   H316 1438   4.189   4.638   1.516  1.6950 -0.6636  0.1819
    2MOL   H317 1439   4.210   4.471   1.525  0.7176  0.7236 -0.9954
    2MOL   H318 1440   4.013   4.624   1.691  0.7952  0.4872 -1.0312
    2MOL   H319 1441   4.162   4.543   1.739 -0.0543 -0.8322  0.2408
    2MOL   H320 1442   3.892   4.432   1.673  0.6215  0.9104 -0.1611
    2MOL   H321 1443   4.025   4.325   1.666  0.3951 -0.8700  1.9277
    2MOL   H322 1444   4.074   4.426   1.916 -1.0907  2.1328  1.6108
    2MOL   H323 1445   3.910   4.479   1.904 -1.2539 -1.3996  0.5621
    2MOL   H324 1446   3.827   4.345   2.049 -0.3203 -0.4859  0.4037
    2MOL   H325 1447   3.791   4.126   2.130  2.6895  3.0053  0.3324
    2MOL   H326 1448   3.778   4.060   1.964 -0.7839  0.9600 -0.7602
    2MOL   H327 1449   3.582   4.218   1.954  1.1423  2.4664  1.0578
    2MOL   H328 1450   3.621   4.276   2.099 -1.0217 -0.5285  0.0119
    2MOL   H329 1451   3.573   4.037   2.193  0.6964  1.9631  0.7110
    2MOL   H330 1452   3.540   3.977   2.036  0.9909 -0.6854  2.5237
    2MOL   H331 1453   3.367   4.195   2.148  1.2437  0.6107 -1.1310
    2MOL   H332 1454   3.335   4.103   2.000  0.7612 -0.7698  0.0953
    2MOL   H333 1455   3.354   4.034   2.299  2.5975  1.3175 -1.7847
    2MOL   H334 1456   3.328   3.899   2.204  0.1145 -0.1893 -1.8497
    2MOL   H335 1457   3.161   4.143   2.234  0.2713  0.5925 -1.2589
    2MOL   H336 1458   3.119   4.018   2.116 -1.9372 -0.2749  0.9836
    2MOL   H337 1459   3.122   3.992   2.415  1.5547  2.0355 -1.5045
    2MOL   C338 1460   3.047   3.835   2.300 -1.2053  0.6726 -0.1260
    2MOL   O339 1461   3.036   3.789   2.186  0.0508 -0.0131  0.1647
    2MOL   C340 1462   2.987   3.768   2.427 -0.6706 -0.1193 -0.8137
    2MOL   C341 1463   2.881   3.663   2.402  0.8188 -0.3168  0.2563
    2MOL   C342 1464   2.930   3.533   2.334 -0.7601  0.3096  0.4201
    2MOL   C343 1465   2.818   3.433   2.297  0.2978  0.5995 -0.0320
    2MOL   C344 1466   2.859   3.301   2.227  0.4286 -0.2980 -0.0055
    2MOL   C345 1467   2.738   3.225   2.171 -0.3941  0.3592  0.3980
    2MOL   C346 1468   2.675   3.289   2.046 -0.2829  0.4117  0.5325
    2MOL   C347 1469   2.601   3.194   1.957  0.4565 -0.1470  0.3272
    2MOL   C348 1470   2.563   3.261   1.819  0.2509  0.6805 -0.3253
    2MOL   C349 1471   2.458   3.177   1.739 -0.2251 -0.1485  0.2984
    2MOL   C350 1472   2.314   3.177   1.787  0.1890  0.6506 -0.0246
    2MOL   O351 1473   2.270   3.254   1.869  0.5583 -0.0855  0.0131
    2MOL   N352 1474   2.238   3.077   1.736  0.0413  0.4542  0.0523
    2MOL   C353 1475   2.104   3.047   1.783  0.5030  0.4813 -0.6764
    2MOL   C354 1476   2.040   2.949   1.691  0.8386 -0.0986  0.3275
    2MOL   C355 1477   1.894   2.919   1.743 -0.4667 -0.2255 -0.0388
    2MOL   C356 1478   1.826   2.829   1.640  0.1537 -0.3454  0.2464
    2MOL   C357 1479   1.676   2.810   1.681 -0.0890 -0.0228 -0.0165
    2MOL   C358 1480   1.652   2.742   1.815  0.9559 -0.8619 -0.0352
    2MOL   N359 1481   1.517   2.686   1.802  0.3334 -0.3304  0.3059
    2MOL   H360 1482   2.926   3.840   2.482 -1.2605 -0.1221 -1.4649
    2MOL   H361 1483   3.066   3.752   2.501 -1.0502 -1.3033 -0.6602
    2MOL   H362 1484   2.838   3.638   2.499  0.5007  0.3661  0.2942
    2MOL   H363 1485   2.795   3.700   2.345  0.9898  1.1440  0.9392
    2MOL   H364 1486   2.999   3.481   2.401  1.7527  1.2159 -1.4043
    2MOL   H365 1487   2.982   3.554   2.241  1.2464 -0.9295  1.2423
    2MOL   H366 1488   2.772   3.415   2.394 -0.9391 -1.1743 -0.9117
    2MOL   H367 1489   2.746   3.487   2.234 -1.2481 -1.6968 -0.3118
    2MOL   H368 1490   2.928   3.326   2.146  3.2118 -0.9145  2.1119
    2MOL   H369 1491   2.922   3.237   2.289  0.1279  0.3735  1.0166
    2MOL   H370 1492   2.780   3.129   2.140  0.8721  1.6248 -1.9280
    2MOL   H371 1493   2.658   3.209   2.245 -0.3224 -1.3777  0.1299
    2MOL   H372 1494   2.611   3.371   2.080 -0.7650  0.3591 -0.2415
    2MOL   H373 1495   2.756   3.323   1.981  0.5573 -0.3126  1.1898
    2MOL   H374 1496   2.651   3.097   1.948  0.7346  0.0615 -0.3816
    2MOL   H375 1497   2.516   3.161   2.017  0.3851  0.7888  0.7518
    2MOL   H376 1498   2.651   3.293   1.764  1.5796  1.4004  2.1316
    2MOL   H377 1499   2.514   3.357   1.834 -0.4071  0.1785  0.8054
    2MOL   H378 1500   2.467   3.218   1.638  2.5206  1.1850  1.0394
    2MOL   H379 1501   2.505   3.079   1.730 -1.2767 -0.6574  0.2441
    2MOL   H380 1502   2.283   3.003   1.684 -3.0819 -1.6680  0.2471
    2MOL   H381 1503   2.039   3.131   1.804 -0.4813 -0.3230 -0.4606
    2MOL   H382 1504   2.119   3.001   1.881 -0.3535  0.1275 -0.7124
    2MOL   H383 1505   2.093   2.854   1.686  0.7152 -0.1925  0.7623
    2MOL   H384 1506   2.037   2.992   1.591  1.1605  1.7501  1.0835
    2MOL   H385 1507   1.889   2.875   1.842 -0.6809  1.4365  0.7025
    2MOL   H386 1508   1.824   3.002   1.755 -0.1032  0.3795 -1.8312
    2MOL   H387 1509   1.827   2.867   1.537  0.2983 -0.9826  0.0131
    2MOL   H388 1510   1.888   2.740   1.644  1.2355  0.4224  0.9589
    2MOL   H389 1511   1.627   2.749   1.605 -1.9041  0.6998  0.5382
    2MOL   H390 1512   1.626   2.907   1.673 -1.2210 -0.4808  1.2887
    2MOL   H391 1513   1.714   2.654   1.829 -0.5534 -1.6308  1.9339
    2MOL   H392 1514   1.666   2.812   1.898 -0.5497 -0.4089 -0.1465
    2MOL   H393 1515   1.506   2.590   1.774  0.3118  0.0112 -0.8821
    2MOL   C394 1516   1.405   2.751   1.825  0.7964 -0.3091  0.0680
    2MOL   O395 1517   1.400   2.877   1.841 -0.3617  0.5794  0.2519
    2MOL   C396 1518   1.278   2.673   1.811  0.7664 -0.0649  0.1061
    2MOL   C397 1519   1.162   2.758   1.761  0.3383 -0.9990 -0.4505
    2MOL   C398 1520   1.179   2.832   1.631  0.0915 -0.5700  0.4196
    2MOL   C399 1521   1.043   2.877   1.573  0.1011 -0.6289 -0.0532
    2MOL   C400 1522   1.065   2.960   1.446  0.4105  0.0058 -0.6246
    2MOL   C401 1523   0.946   3.007   1.365  0.2352  0.0801  1.2438
    2MOL   C402 1524   0.906   2.903   1.255 -0.0466 -0.5315  0.6498
    2MOL   C403 1525   0.771   2.935   1.184  0.3356 -0.6567 -0.1219
    2MOL   C404 1526   0.743   2.818   1.087  0.1202  0.1088  0.8213
    2MOL   C405 1527   0.606   2.826   1.024 -0.0216  0.0872  0.0338
    2MOL   C406 1528   0.574   2.714   0.921  0.4298 -0.2080 -0.1885
    2MOL   O407 1529   0.636   2.606   0.932  0.2357 -0.0471 -0.0872
    2MOL   N408 1530   0.477   2.737   0.822 -0.0768 -0.3346 -0.3047
    2MOL   C409 1531   0.461   2.659   0.700 -0.0660 -0.2027 -0.0985
    2MOL   C410 1532   0.381   2.524   0.727 -0.1629  0.0304 -0.1598
    2MOL   C411 1533   0.379   2.428   0.613 -0.2367  0.3778 -0.5191
    2MOL   C412 1534   0.301   2.307   0.658  0.8430 -0.1025  0.0521
    2MOL   C413 1535   0.330   2.180   0.580 -0.2045 -0.0211  0.6372
    2MOL   C414 1536   0.317   2.195   0.426 -0.1861  1.2795 -0.2616
    2MOL   N415 1537   0.356   2.077   0.354 -0.5359  0.1470  0.7129
    2MOL   H416 1538   1.257   2.653   1.917  0.6343 -2.5213 -0.3576
    2MOL   H417 1539   1.303   2.582   1.756  0.9421 -0.8352  1.4186
    2MOL   H418 1540   1.126   2.823   1.840  1.3950 -1.3631  0.3309
    2MOL   H419 1541   1.073   2.696   1.750 -1.0230  0.5888  1.2871
    2MOL   H420 1542   1.221   2.782   1.544  1.1116  1.9040 -0.5443
    2MOL   H421 1543   1.243   2.918   1.647 -1.1662  0.5248 -0.2953
    2MOL   H422 1544   0.994   2.942   1.644  0.1045 -0.9819  0.2736
    2MOL   H423 1545   0.973   2.793   1.562  0.0523 -0.6063  0.0951
    2MOL   H424 1546   1.114   3.055   1.468 -0.1433 -0.0919  1.1218
    2MOL   H425 1547   1.138   2.908   1.385  1.2772  0.3859  0.0762
    2MOL   H426 1548   0.863   3.012   1.435  1.1630 -0.2589  2.3808
    2MOL   H427 1549   0.963   3.108   1.329  1.6770 -0.2811  0.8634
    2MOL   H428 1550   0.981   2.877   1.181 -1.1640 -1.8492 -0.0295
    2MOL   H429 1551   0.891   2.807   1.304 -0.8848 -0.3103  0.8275
    2MOL   H430 1552   0.692   2.938   1.258  0.0387  0.1489 -0.4644
    2MOL   H431 1553   0.771   3.031   1.132 -0.9758 -0.4112  0.3242
    2MOL   H432 1554   0.754   2.724   1.141  0.9470 -0.1651  0.1862
    2MOL   H433 1555   0.823   2.807   1.015 -0.5099 -0.1405  0.1601
    2MOL   H434 1556   0.531   2.813   1.103 -0.8253 -0.3892 -0.7962
    2MOL   H435 1557   0.592   2.922   0.973 -0.6612 -0.4647 -0.8391
    2MOL   H436 1558   0.439   2.831   0.816  1.3509  0.2213 -0.8701
    2MOL   H437 1559   0.561   2.626   0.671  0.9315 -0.0532  2.9899
    2MOL   H438 1560   0.414   2.721   0.624 -0.9865 -1.0555 -0.2387
    2MOL   H439 1561   0.276   2.545   0.747  0.2269  0.8614  1.0648
    2MOL   H440 1562   0.411   2.474   0.819  0.2938 -0.7154 -0.7086
    2MOL   H441 1563   0.332   2.466   0.522  1.4617  3.5148 -0.1668
    2MOL   H442 1564   0.480   2.399   0.586  0.3510  1.6273  0.2682
    2MOL   H443 1565   0.314   2.289   0.765  0.4317  2.0908  0.5122
    2MOL   H444 1566   0.197   2.330   0.637  0.3951  0.3457  2.6169
    2MOL   H445 1567   0.432   2.156   0.612  0.5501  0.0523 -1.6278
    2MOL   H446 1568   0.276   2.092   0.617 -3.9985  0.7810 -2.7093
    2MOL   H447 1569   0.211   2.213   0.410 -0.8417 -1.6427  0.3893
    2MOL   H448 1570   0.372   2.279   0.385  1.1250  0.7826  0.4228
    2MOL   H449 1571   0.455   2.059   0.348  0.0209  2.9456  0.8936
    2MOL   C450 1572   0.277   1.978   0.317 -0.0984  0.7314 -0.4797
    2MOL   O451 1573   0.156   1.981   0.323  0.6070 -0.6099  0.8776
    2MOL   C452 1574   0.335   1.855   0.233 -0.3345 -0.0099  0.5738
    2MOL   C453 1575   0.358   1.723   0.308  0.3783 -0.6125  0.7157
    2MOL   C454 1576   0.475   1.723   0.403  0.4242  0.5665 -0.2066
    2MOL   C455 1577   0.480   1.584   0.469 -0.0041  0.6513  0.3989
    2MOL   C456 1578   0.361   1.557   0.569  0.0245  0.2618 -0.0153
    2MOL   C457 1579   0.372   1.424   0.646  0.3538  0.4419  0.0509
    2MOL   C458 1580   0.268   1.384   0.748  0.4711  0.5711 -0.0997
    2MOL   C459 1581   0.285   1.454   0.878 -0.6068 -0.7023  0.1342
    2MOL   C460 1582   0.186   1.418   0.983  0.3953  0.8238  0.0822
    2MOL   C461 1583   0.215   1.475   1.123 -0.1153 -0.3720 -0.3740
    2MOL   C462 1584   0.227   1.628   1.116 -0.5206  0.1832  0.8963
    2MOL   O463 1585   0.134   1.690   1.071  0.1196  0.3365  0.3152
    2MOL   N464 1586   0.346   1.693   1.127 -0.1860 -0.0444  1.0017
    2MOL   C465 1587   0.367   1.834   1.079  0.4976  0.4348 -0.4419
    2MOL   C466 1588   0.440   1.843   0.939 -0.2984 -0.1346 -0.6089
    2MOL   C467 1589   0.463   1.987   0.884  0.0514  0.4592  0.6204
    2MOL   C468 1590   0.594   2.054   0.921  0.2682  0.4437  0.3901
    2MOL   C469 1591   0.615   2.187   0.861 -0.0436 -0.4221 -0.0524
    2MOL   C470 1592   0.747   2.235   0.914  0.3313 -0.3721  0.2444
    2MOL   N471 1593   0.783   2.369   0.867 -0.0110 -1.0765 -0.1055
    2MOL   H472 1594   0.268   1.830   0.151 -1.1056  0.2778  1.1127
    2MOL   H473 1595   0.423   1.896   0.183 -0.6635  1.8230  1.4298
    2MOL   H474 1596   0.372   1.632   0.249 -0.6645 -0.7451  0.6706
    2MOL   H475 1597   0.271   1.700   0.370 -0.7859  1.2343 -0.1921
    2MOL   H476 1598   0.471   1.803   0.477 -0.3152  0.5442 -0.2153
    2MOL   H477 1599   0.568   1.737   0.349  0.8992  1.1431  0.7531
    2MOL   H478 1600   0.572   1.584   0.527  0.7247  1.4725 -0.7249
    2MOL   H479 1601   0.487   1.508   0.391 -0.5262 -0.8408  1.7815
    2MOL   H480 1602   0.270   1.545   0.511 -0.2275 -0.1086  0.4633
    2MOL   H481 1603   0.349   1.640   0.639  0.0768  0.4716 -0.2515
    2MOL   H482 1604   0.472   1.422   0.690 -0.1495 -0.2463  1.1722
    2MOL   H483 1605   0.373   1.340   0.577  0.5326  0.9335 -0.5500
    2MOL   H484 1606   0.171   1.419   0.712 -0.1190 -2.7222 -1.9352
    2MOL   H485 1607   0.279   1.277   0.763 -2.6188 -0.0920 -2.0829
    2MOL   H486 1608   0.384   1.443   0.921 -0.8038  2.3597  1.5021
    2MOL   H487 1609   0.283   1.560   0.850 -0.1492 -0.6305  0.3820
    2MOL   H488 1610   0.175   1.310   0.992  2.2500  0.5994 -0.2065
    2MOL   H489 1611   0.084   1.444   0.954  0.6378  1.3719 -0.3005
    2MOL   H490 1612   0.135   1.434   1.184 -0.0356 -2.4401 -1.6182
    2MOL   H491 1613   0.305   1.429   1.164  0.0532  0.1496 -0.1607
    2MOL   H492 1614   0.431   1.649   1.160  0.1368 -0.3197 -0.1945
    2MOL   H493 1615   0.417   1.894   1.156 -1.3647  1.1787  0.2162
    2MOL   H494 1616   0.269   1.878   1.063  1.1587  1.9252 -0.4787
    2MOL   H495 1617   0.535   1.788   0.933 -0.6570 -0.4511 -4.2079
    2MOL   H496 1618   0.370   1.783   0.881  0.1549  0.4069 -1.7223
    2MOL   H497 1619   0.381   2.052   0.915 -0.2552  0.1047  0.5585
    2MOL   H498 1620   0.458   1.980   0.775 -1.2068 -0.7377  0.7338
    2MOL   H499 1621   0.671   1.986   0.885 -1.5303 -0.0843 -2.6200
    2MOL   H500 1622   0.607   2.059   1.029 -0.9535 -1.2812  0.6439
    2MOL   H501 1623   0.616   2.173   0.753  0.6012  3.1687 -0.5944
    2MOL   H502 1624   0.534   2.253   0.891 -0.1847  0.0411 -1.3990
    2MOL   H503 1625   0.729   2.241   1.021 -0.6876 -1.8694  0.1773
    2MOL   H504 1626   0.832   2.172   0.886  0.4987  0.9383 -2.2970
    2MOL   H505 1627   0.738   2.455   0.895  0.4917 -0.8095 -0.1107
    2MOL   C506 1628   0.880   2.395   0.785 -0.6914  0.2118  0.1587
    2MOL   O507 1629   0.949   2.309   0.737  0.8355 -0.8679  0.0986
    2MOL   C508 1630   0.898   2.543   0.744 -0.3933  0.8261 -0.4121
    2MOL   C509 1631   1.051   2.580   0.752 -0.6845  0.0804  0.4970
    2MOL   C510 1632   1.096   2.713   0.684 -0.1444 -0.0056 -0.1591
    2MOL   C511 1633   1.116   2.699   0.535 -0.7508 -0.1960  0.0052
    2MOL   C512 1634   1.204   2.591   0.483  0.1687 -0.2555 -0.1641
    2MOL   C513 1635   1.348   2.582   0.551  0.1942  0.3494  0.7887
    2MOL   C514 1636   1.427   2.477   0.468  0.7526 -0.1675 -0.3199
    2MOL   C515 1637   1.521   2.401   0.558 -0.0858  0.2067 -0.0504
    2MOL   C516 1638   1.574   2.279   0.489  0.3725 -0.1811  0.3378
    2MOL   C517 1639   1.652   2.184   0.580  0.0781 -0.4543 -0.1381
    2MOL   C518 1640   1.664   2.047   0.514 -0.1359  0.4631  0.0416
    2MOL   O519 1641   1.747   2.024   0.428  0.5003 -0.1524  0.2270
    2MOL   N520 1642   1.577   1.952   0.559 -1.1691  0.0965  1.2404
    2MOL   C521 1643   1.546   1.828   0.489  0.8350  0.3020 -0.5592
    2MOL   C522 1644   1.660   1.722   0.504  0.7178  0.3954  0.0131
    2MOL   C523 1645   1.614   1.594   0.429 -0.1510 -0.3105 -0.1674
    2MOL   C524 1646   1.713   1.475   0.438  0.2053 -0.9229  0.4667
    2MOL   C525 1647   1.688   1.368   0.333  0.4322  0.5207 -0.0240
    2MOL   C526 1648   1.806   1.276   0.302  0.1012 -0.1923  0.3359
    2MOL   N527 1649   1.915   1.348   0.238  0.1308 -0.4959 -0.3060
    2MOL   H528 1650   0.842   2.620   0.796  0.2937  2.5535 -2.1799
    2MOL   H529 1651   0.858   2.561   0.644 -1.2240  2.1011  0.1476
    2MOL   H530 1652   1.114   2.495   0.723  1.1562  2.0453 -1.4037
    2MOL   H531 1653   1.079   2.588   0.857 -2.3167 -0.6955  1.0189
    2MOL   H532 1654   1.181   2.761   0.732  1.2264 -1.9204 -0.5911
    2MOL   H533 1655   1.024   2.791   0.707  1.6583  1.0050  2.2362
    2MOL   H534 1656   1.019   2.676   0.489 -0.4941 -0.7920 -0.2454
    2MOL   H535 1657   1.157   2.789   0.489  0.5161 -0.3106  0.9002
    2MOL   H536 1658   1.145   2.500   0.494 -0.1045 -0.2930 -1.8561
    2MOL   H537 1659   1.222   2.594   0.376 -1.6413  1.3205 -0.4241
    2MOL   H538 1660   1.393   2.680   0.534 -1.2769  0.9316  0.1728
    2MOL   H539 1661   1.357   2.564   0.659  0.3756 -1.1142  0.5428
    2MOL   H540 1662   1.356   2.400   0.438 -1.3901  2.0461 -1.0532
    2MOL   H541 1663   1.461   2.519   0.374 -2.7373  2.8441 -0.3588
    2MOL   H542 1664   1.607   2.462   0.586  1.3350 -1.2695 -1.0793
    2MOL   H543 1665   1.464   2.371   0.646  0.1064 -0.8219 -0.2617
    2MOL   H544 1666   1.621   2.310   0.395  0.5840 -0.9434  0.1826
    2MOL   H545 1667   1.492   2.214   0.458  1.2492 -1.0500 -0.2468
    2MOL   H546 1668   1.752   2.221   0.601  0.6000 -1.4970 -0.7276
    2MOL   H547 1669   1.605   2.172   0.678 -2.4530  1.8266 -1.0150
    2MOL   H548 1670   1.532   1.979   0.646  1.1595  4.1624  1.3152
    2MOL   H549 1671   1.533   1.857   0.385  1.9731  1.1395 -0.4630
    2MOL   H550 1672   1.449   1.797   0.530  2.1984 -1.0177  1.7586
    2MOL   H551 1673   1.674   1.702   0.611 -0.0494 -1.7092 -0.2489
    2MOL   H552 1674   1.753   1.762   0.467  1.4072  1.9403  3.2356
    2MOL   H553 1675   1.590   1.627   0.328 -2.3584 -0.2546  0.3614
    2MOL   H554 1676   1.522   1.554   0.471 -0.4945  0.7569  0.1080
    2MOL   H555 1677   1.722   1.427   0.535 -0.8290  0.6585  1.3763
    2MOL   H556 1678   1.812   1.515   0.420 -0.4659  1.0536  1.0540
    2MOL   H557 1679   1.594   1.317   0.354 -0.3518  2.3420  0.9039
    2MOL   H558 1680   1.668   1.416   0.237  1.0426  0.3014 -0.2700
    2MOL   H559 1681   1.835   1.228   0.395  1.5825  0.1690  0.0773
    2MOL   H560 1682   1.775   1.193   0.239 -1.0700  0.2866  0.2731
    2MOL   H561 1683   1.892   1.423   0.174  0.3284  1.6916  2.1145
    2MOL   C562 1684   2.043   1.339   0.275  0.7411  1.2553  0.1030
    2MOL   O563 1685   2.075   1.265   0.365 -1.0373  0.2780 -0.0592
    2MOL   C564 1686   2.144   1.439   0.216  0.2587 -0.2553 -0.1742
    2MOL   C565 1687   2.262   1.466   0.309  0.2520  0.2294  0.1620
    2MOL   C566 1688   2.335   1.593   0.273  0.6775 -0.5942  0.1881
    2MOL   C567 1689   2.455   1.634   0.346 -0.3936  0.2383 -0.1689
    2MOL   C568 1690   2.505   1.773   0.301  0.1092 -0.1532 -0.5991
    2MOL   C569 1691   2.622   1.831   0.384  0.2732  0.6198 -0.8055
    2MOL   C570 1692   2.718   1.918   0.300 -0.2158 -0.5631 -0.0507
    2MOL   C571 1693   2.684   2.068   0.299  0.6947 -0.2352  0.0251
    2MOL   C572 1694   2.756   2.146   0.417  0.1205 -0.0866  0.5188
    2MOL   C573 1695   2.720   2.105   0.563  0.2209  0.7222  0.3020
    2MOL   C574 1696   2.793   2.185   0.672  0.2608  0.0237 -0.5345
    2MOL   O575 1697   2.879   2.269   0.643  0.6576 -0.6484  0.2593
    2MOL   N576 1698   2.769   2.158   0.800 -0.0461 -0.1705 -0.3617
    2MOL   C577 1699   2.844   2.214   0.913  0.0645 -0.0406  0.0136
    2MOL   C578 1700   2.809   2.153   1.045  0.4215 -0.0122  0.1574
    2MOL   C579 1701   2.801   1.995   1.042 -0.3484 -0.3932  0.4413
    2MOL   C580 1702   2.767   1.939   1.178 -0.8887  0.2002  0.0566
    2MOL   C581 1703   2.726   1.794   1.163 -0.0345  0.1506  0.2938
    2MOL   C582 1704   2.658   1.738   1.292  0.1784 -0.7339 -0.6396
    2MOL   N583 1705   2.588   1.611   1.265  0.1337  0.1794 -0.1298
    2MOL   H584 1706   2.187   1.422   0.117 -1.3289  2.3629 -1.3649
    2MOL   H585 1707   2.090   1.534   0.209  0.6499  0.0739  1.1763
    2MOL   H586 1708   2.231   1.474   0.413 -0.8621 -2.1061  0.0499
    2MOL   H587 1709   2.318   1.373   0.298  0.7623  0.4453  0.9065
    2MOL   H588 1710   2.261   1.673   0.274  0.1341 -1.0757  2.7578
    2MOL   H589 1711   2.358   1.589   0.167 -0.0378 -2.9071  0.0858
    2MOL   H590 1712   2.439   1.635   0.454  0.0915 -1.9606 -0.0437
    2MOL   H591 1713   2.529   1.557   0.324  0.4649  1.1131 -0.3586
    2MOL   H592 1714   2.543   1.756   0.200  0.1335 -0.4370 -0.5440
    2MOL   H593 1715   2.421   1.843   0.297 -1.0845 -1.5951 -1.8472
    2MOL   H594 1716   2.579   1.894   0.461 -0.0227 -0.9778  0.3611
    2MOL   H595 1717   2.673   1.748   0.433 -1.0018 -1.2775 -2.5754
    2MOL   H596 1718   2.817   1.905   0.344  0.2075  0.0825 -0.7939
    2MOL   H597 1719   2.724   1.875   0.200 -0.6574  1.5212 -1.0024
    2MOL   H598 1720   2.579   2.096   0.301  0.0893 -2.4222  1.5932
    2MOL   H599 1721   2.721   2.113   0.207  2.0425  2.6657  1.9117
    2MOL   H600 1722   2.744   2.254   0.414  0.4012 -0.0584  0.3194
    2MOL   H601 1723   2.865   2.135   0.412 -0.0148 -0.7815 -1.3088
    2MOL   H602 1724   2.613   2.098   0.581  0.4522  0.9517  1.8701
    2MOL   H603 1725   2.764   2.005   0.572 -1.0450  0.0613 -0.7413
    2MOL   H604 1726   2.696   2.088   0.813 -0.7861  0.7047  0.2223
    2MOL   H605 1727   2.845   2.323   0.907 -0.3034  0.0117  0.9404
    2MOL   H606 1728   2.950   2.196   0.894 -0.2043 -2.7429  0.7867
    2MOL   H607 1729   2.713   2.177   1.091  1.0293  2.1792  0.3205
    2MOL   H608 1730   2.877   2.182   1.125  0.5411 -2.7450  1.1206
    2MOL   H609 1731   2.891   1.940   1.016 -0.7496 -1.2724  0.8565
    2MOL   H610 1732   2.727   1.969   0.965  0.3518 -2.0045  0.2934
    2MOL   H611 1733   2.847   1.950   1.251 -0.9347  1.7669 -0.1013
    2MOL   H612 1734   2.680   1.989   1.221 -2.2068  0.1494 -2.4527
    2MOL   H613 1735   2.808   1.723   1.154  0.1863 -0.2104  4.2376
    2MOL   H614 1736   2.665   1.788   1.073  0.8286 -2.9675 -0.1149
    2MOL   H615 1737   2.735   1.718   1.367  0.2259 -0.9051 -0.7342
    2MOL   H616 1738   2.585   1.802   1.343  0.7703 -1.2799  0.9258
    2MOL   H617 1739   2.605   1.579   1.170  0.1609  3.2785 -1.2168
    2MOL   C618 1740   2.506   1.555   1.353 -0.5645 -0.5833  0.1606
    2MOL   O619 1741   2.483   1.607   1.466 -0.8083  0.3461 -0.3175
    2MOL   C620 1742   2.422   1.437   1.309  0.3219 -0.1225  0.3868
    2MOL   C621 1743   2.445   1.306   1.394 -0.5425 -0.1550 -0.9100
    2MOL   C622 1744   2.589   1.251   1.390 -0.3544  0.3284 -0.5246
    2MOL   C623 1745   2.602   1.121   1.479  0.1011  0.2247 -0.0219
    2MOL   C624 1746   2.746   1.064   1.488 -0.4767 -0.5222 -0.4021
    2MOL   C625 1747   2.773   0.969   1.604 -0.5105  0.4484 -0.8418
    2MOL   C626 1748   2.909   0.902   1.599 -1.3815  0.4694  0.2080
    2MOL   C627 1749   3.026   0.993   1.622 -0.0568 -0.0233 -0.1462
    2MOL   C628 1750   3.036   1.061   1.755  0.0564 -0.4270 -0.5773
    2MOL   C629 1751   3.165   1.152   1.750 -0.0440  0.1867 -0.6353
    2MOL   C630 1752   3.183   1.236   1.877 -0.6300  0.2307 -0.5059
    2MOL   O631 1753   3.114   1.207   1.979  0.0692 -0.0597 -0.4001
    2MOL   N632 1754   3.274   1.338   1.877  0.4202  0.3491 -0.2268
    2MOL   C633 1755   3.274   1.428   1.992  0.4770 -0.8840  0.8045
    2MOL   C634 1756   3.371   1.545   1.959  0.0851 -0.4314 -0.8166
    2MOL   C635 1757   3.412   1.628   2.085 -0.6842  0.2013 -0.5259
    2MOL   C636 1758   3.516   1.550   2.168  0.2895 -0.0826  0.2151
    2MOL   C637 1759   3.543   1.623   2.296  0.2460  0.3727  0.3657
    2MOL   C638 1760   3.640   1.559   2.394 -0.0411 -0.1033  0.0783
    2MOL   N639 1761   3.596   1.435   2.440 -0.2253 -0.2137 -0.1503
    2MOL   H640 1762   2.456   1.411   1.208 -1.6617 -0.8374 -0.1184
    2MOL   H641 1763   2.316   1.462   1.308  0.5670  0.9096 -0.3366
    2MOL   H642 1764   2.392   1.223   1.349  1.6921 -1.4568 -1.2104
    2MOL   H643 1765   2.412   1.316   1.498 -0.9365  0.3308 -1.0804
    2MOL   H644 1766   2.659   1.331   1.416  1.0517 -0.2874 -2.3118
    2MOL   H645 1767   2.609   1.222   1.287  1.8364  1.2840 -0.4030
    2MOL   H646 1768   2.574   1.141   1.583 -0.3145 -2.5748  0.4500
    2MOL   H647 1769   2.529   1.046   1.450  0.6053 -0.0648 -0.5240
    2MOL   H648 1770   2.789   1.019   1.398  1.0318  0.4713 -0.1901
    2MOL   H649 1771   2.817   1.145   1.502 -1.4453  0.4129 -0.7520
    2MOL   H650 1772   2.698   0.890   1.600  1.0604 -1.1461  0.3848
    2MOL   H651 1773   2.776   1.020   1.700 -0.8068  1.4810 -1.3785
    2MOL   H652 1774   2.904   0.820   1.671 -0.4287  1.6434  1.6359
    2MOL   H653 1775   2.933   0.848   1.508 -1.7066  2.3369 -1.0244
    2MOL   H654 1776   3.116   0.932   1.614  0.7311  0.9162  1.3140
    2MOL   H655 1777   3.034   1.066   1.542  0.8464 -0.8667 -0.8353
    2MOL   H656 1778   3.054   0.990   1.835  2.4693  1.0971  0.2695
    2MOL   H657 1779   2.951   1.126   1.774  0.9213  0.7994 -0.8612
    2MOL   H658 1780   3.255   1.092   1.735 -0.3674 -1.1853  2.5637
    2MOL   H659 1781   3.162   1.219   1.664 -0.1648 -0.3830 -1.0787
    2MOL   H660 1782   3.325   1.352   1.791  0.4930  0.2106 -0.2079
    2MOL   H661 1783   3.171   1.462   2.005  0.6654  0.3173 -0.7881
    2MOL   H662 1784   3.313   1.374   2.079 -0.1848 -1.1577  0.9361
    2MOL   H663 1785   3.318   1.599   1.881  0.0980 -0.5577 -0.9125
    2MOL   H664 1786   3.451   1.502   1.900 -1.0231 -1.7329 -1.3964
    2MOL   H665 1787   3.446   1.727   2.053 -1.3948  0.8105  0.5921
    2MOL   H666 1788   3.320   1.651   2.139  0.7230 -1.1231  2.5316
    2MOL   H667 1789   3.608   1.533   2.111 -0.4450  0.0581 -1.0297
    2MOL   H668 1790   3.485   1.449   2.195 -0.1960 -0.2920 -1.1038
    2MOL   H669 1791   3.573   1.726   2.280 -0.5221  0.8068  1.6816
    2MOL   H670 1792   3.454   1.630   2.358 -0.1209  1.6612 -0.2936
    2MOL   H671 1793   3.733   1.538   2.343  0.0070  1.1185 -0.3568
    2MOL   H672 1794   3.665   1.630   2.473 -0.0908 -2.0858  1.9236
    2MOL   H673 1795   3.607   1.361   2.372 -0.6764 -0.5671  0.1639
    2MOL   C674 1796   3.538   1.403   2.556 -0.9500 -0.1642 -0.9170
    2MOL   O675 1797   3.519   1.486   2.640  0.1991 -0.4750 -0.2070
    2MOL   C676 1798   3.497   1.258   2.583 -0.3421 -0.1497 -0.5017
    2MOL   C677 1799   3.354   1.227   2.548 -0.2819 -0.1848 -0.4230
    2MOL   C678 1800   3.250   1.316   2.615 -0.1599  0.1386  0.2342
    2MOL   C679 1801   3.107   1.296   2.568 -0.1554 -0.4679  0.7330
    2MOL   C680 1802   2.994   1.337   2.669 -0.1104 -0.1345 -0.3553
    2MOL   C681 1803   2.855   1.316   2.608  0.5336  0.0700  0.2469
    2MOL   C682 1804   2.813   1.174   2.589 -0.1073 -0.9424 -0.4287
    2MOL   C683 1805   2.675   1.157   2.531 -0.3775 -0.9147 -0.3814
    2MOL   C684 1806   2.635   1.021   2.478 -0.8537 -0.4393 -0.0883
    2MOL   C685 1807   2.506   1.016   2.397 -0.1309  0.0220 -0.1004
    2MOL   C686 1808   2.381   0.976   2.478 -0.6416 -0.8503 -0.2266
    2MOL   O687 1809   2.316   1.062   2.534  0.1940 -0.0484  0.1615
    2MOL   N688 1810   2.350   0.850   2.481  0.5026  0.4174  0.0005
    2MOL   C689 1811   2.247   0.792   2.569  0.5465 -0.5630  0.2216
    2MOL   C690 1812   2.301   0.776   2.713 -0.5481  0.4202  0.1985
    2MOL   C691 1813   2.197   0.735   2.818  0.5303  0.0710  0.0847
    2MOL   C692 1814   2.253   0.740   2.965 -0.0692  0.6738  0.1017
    2MOL   C693 1815   2.298   0.872   3.001 -0.8648 -1.1116 -0.4312
    2MOL   C694 1816   2.343   0.878   3.148  0.3962  0.7882 -0.7723
    2MOL   N695 1817   2.389   1.007   3.190  0.6192 -0.1073 -0.0316
    2MOL   H696 1818   3.526   1.225   2.683  0.5334  0.9070 -0.3971
    2MOL   H697 1819   3.550   1.196   2.511  1.2509  1.1064 -0.4361
    2MOL   H698 1820   3.339   1.127   2.589  1.4493  0.2354  1.3155
    2MOL   H699 1821   3.335   1.218   2.441  1.2665  0.6994 -0.7859
    2MOL   H700 1822   3.262   1.313   2.723  0.4530 -0.5510  0.1538
    2MOL   H701 1823   3.270   1.422   2.599 -4.4055  0.7649 -1.6955
    2MOL   H702 1824   3.094   1.189   2.546 -1.2594 -0.1442 -0.2571
    2MOL   H703 1825   3.094   1.356   2.478 -1.4369 -0.8132  0.6872
    2MOL   H704 1826   3.005   1.445   2.683 -1.6072 -0.0648  0.3610
    2MOL   H705 1827   3.008   1.295   2.768  0.6291 -1.9858 -1.2269
    2MOL   H706 1828   2.779   1.369   2.666 -0.5769  1.9846 -2.8397
    2MOL   H707 1829   2.852   1.353   2.505  1.8971 -1.8631 -0.5207
    2MOL   H708 1830   2.884   1.107   2.540 -1.7172 -0.9158 -2.9407
    2MOL   H709 1831   2.814   1.124   2.686 -0.4310 -1.2923 -0.6027
    2MOL   H710 1832   2.609   1.178   2.616  0.4986 -1.8872  0.5491
    2MOL   H711 1833   2.656   1.234   2.457  3.3292 -1.2129 -1.7335
    2MOL   H712 1834   2.632   0.951   2.562 -1.2615  0.2014  0.4375
    2MOL   H713 1835   2.712   0.982   2.412 -0.9678  1.2247 -1.2314
    2MOL   H714 1836   2.489   1.111   2.346 -0.8844 -0.7857 -1.3879
    2MOL   H715 1837   2.514   0.938   2.322 -0.3094 -2.5974  2.5218
    2MOL   H716 1838   2.400   0.779   2.430 -1.1849 -1.6066  1.0933
    2MOL   H717 1839   2.154   0.848   2.563  0.5192 -0.7240 -1.2710
    2MOL   H718 1840   2.217   0.691   2.540  0.7747 -1.6188  3.4780
    2MOL   H719 1841   2.344   0.869   2.750 -1.5549 -0.0138  2.5691
    2MOL   H720 1842   2.388   0.710   2.719 -1.5275 -0.7780  1.4979
    2MOL   H721 1843   2.118   0.809   2.809  0.4312 -0.2227 -1.7064
    2MOL   H722 1844   2.149   0.638   2.807  1.2252 -0.3765  0.9139
    2MOL   H723 1845   2.330   0.664   2.980 -0.0055  0.7732  0.2784
    2MOL   H724 1846   2.177   0.698   3.031  2.0117 -4.3978 -0.4831
    2MOL   H725 1847   2.229   0.954   2.980  2.3430  1.4138 -1.4730
    2MOL   H726 1848   2.384   0.903   2.942 -1.3891  0.4658 -0.3774
    2MOL   H727 1849   2.250   0.854   3.200 -0.3922  0.7467 -2.1846
    2MOL   H728 1850   2.423   0.806   3.160 -1.9413 -1.8918 -0.6284
    2MOL   H729 1851   2.321   1.079   3.213  2.7739  1.2118  2.4420
    2MOL   C730 1852   2.516   1.050   3.175 -0.0053  0.0862  0.3578
    2MOL   O731 1853   2.611   0.978   3.144 -0.0435 -0.4570 -0.4347
    2MOL   C732 1854   2.533   1.201   3.182 -0.0585 -0.3010  0.2003
    2MOL   C733 1855   2.602   1.260   3.061  0.5638 -0.0810 -0.2671
    2MOL   C734 1856   2.533   1.237   2.922 -0.6680 -1.2490 -0.6344
    2MOL   C735 1857   2.454   1.350   2.872  0.7487  0.6577  0.6223
    2MOL   C736 1858   2.381   1.325   2.742  0.0542  0.7390 -0.0925
    2MOL   C737 1859   2.261   1.416   2.721  0.2210 -0.0365 -0.0675
    2MOL   C738 1860   2.176   1.371   2.600  0.2450  0.2582  0.5708
    2MOL   C739 1861   2.236   1.429   2.469  0.3618  0.3913  0.4615
    2MOL   C740 1862   2.157   1.370   2.349 -0.2757 -0.8107  0.5095
    2MOL   C741 1863   2.215   1.403   2.206 -0.0378 -0.1097  0.4146
    2MOL   C742 1864   2.258   1.552   2.180  0.2557 -0.0085  0.0596
    2MOL   O743 1865   2.173   1.636   2.197  0.6378 -0.4884  0.1106
    2MOL   N744 1866   2.391   1.577   2.153  0.3116 -0.3364  0.0242
    2MOL   C745 1867   2.461   1.701   2.165  0.3837  0.4821  0.7655
    2MOL   C746 1868   2.509   1.739   2.307  0.3604 -0.1786 -0.1876
    2MOL   C747 1869   2.625   1.648   2.349 -0.3131  0.5044  0.0101
    2MOL   C748 1870   2.680   1.675   2.493  0.2152 -0.3312 -0.4376
    2MOL   C749 1871   2.592   1.638   2.612  0.0826  0.5585 -0.3566
    2MOL   C750 1872   2.494   1.740   2.662 -0.0047  0.3657 -0.0021
    2MOL   N751 1873   2.546   1.879   2.671 -0.0889 -0.1009 -0.0844
    2MOL   H752 1874   2.593   1.220   3.270 -1.3225 -2.3336  1.5438
    2MOL   H753 1875   2.436   1.249   3.193 -0.7955 -1.5091 -0.8012
    2MOL   H754 1876   2.707   1.230   3.058  0.3748 -0.7493 -0.2264
    2MOL   H755 1877   2.608   1.367   3.080 -0.3439 -0.2185  0.8344
    2MOL   H756 1878   2.495   1.137   2.905 -0.5556 -1.0080 -2.3522
    2MOL   H757 1879   2.618   1.238   2.853  0.1369  1.5179  0.3101
    2MOL   H758 1880   2.514   1.441   2.867 -0.8723  1.8618  2.5021
    2MOL   H759 1881   2.380   1.358   2.952 -0.0191 -0.6954  0.0665
    2MOL   H760 1882   2.335   1.226   2.740  0.2129  0.6722 -0.5363
    2MOL   H761 1883   2.438   1.337   2.649 -0.1536  0.9205 -0.1967
    2MOL   H762 1884   2.202   1.395   2.811 -0.6220  0.6723 -0.4525
    2MOL   H763 1885   2.286   1.522   2.730  0.7896 -0.2622  1.2801
    2MOL   H764 1886   2.182   1.263   2.587 -0.3669  0.2131  0.6826
    2MOL   H765 1887   2.070   1.391   2.609  0.6331  1.9445  1.6736
    2MOL   H766 1888   2.239   1.537   2.482 -0.8466  0.2460  2.0870
    2MOL   H767 1889   2.338   1.392   2.457 -0.1775 -1.0231  0.2110
    2MOL   H768 1890   2.053   1.402   2.348 -0.0370  0.2711  3.9478
    2MOL   H769 1891   2.166   1.262   2.351 -1.6147 -0.9774 -1.3868
    2MOL   H770 1892   2.300   1.345   2.171 -1.0060 -1.1583 -0.2415
    2MOL   H771 1893   2.148   1.365   2.129  1.3452 -0.6331 -0.5443
    2MOL   H772 1894   2.453   1.499   2.137 -2.1406 -2.5540  0.9675
    2MOL   H773 1895   2.403   1.778   2.115 -0.1785 -1.0718 -1.0036
    2MOL   H774 1896   2.548   1.676   2.106 -0.8848 -1.6876 -0.2532
    2MOL   H775 1897   2.441   1.719   2.390  1.1324  0.9258  0.7225
    2MOL   H776 1898   2.535   1.845   2.311 -0.6292  0.1024 -0.8705
    2MOL   H777 1899   2.695   1.643   2.266 -0.2712  0.2906  0.0580
    2MOL   H778 1900   2.607   1.541   2.359 -0.5222  0.4763 -0.6363
    2MOL   H779 1901   2.773   1.619   2.487  1.3618  1.2464  1.7470
    2MOL   H780 1902   2.730   1.772   2.500  2.0324 -1.1147 -1.9595
    2MOL   H781 1903   2.655   1.608   2.696 -0.2771 -0.4919 -0.4476
    2MOL   H782 1904   2.533   1.549   2.589 -0.8730 -0.2496  4.5943
    2MOL   H783 1905   2.392   1.733   2.624  0.2954  2.6390 -1.2975
    2MOL   H784 1906   2.482   1.703   2.764  1.2664  0.0641  0.0490
    2MOL   H785 1907   2.499   1.951   2.618 -0.2784 -1.2766 -1.5413
    2MOL   C786 1908   2.651   1.914   2.744  0.6380 -0.4547  0.2295
    2MOL   O787 1909   2.720   1.831   2.805  0.2977  0.2147 -0.3108
    2MOL   C788 1910   2.687   2.057   2.756 -0.5533 -0.2153  0.4584
    2MOL   C789 1911   2.778   2.114   2.643 -0.2858 -0.3810 -0.2900
    2MOL   C790 1912   2.716   2.110   2.500  0.5380 -0.1210  0.0007
    2MOL   C791 1913   2.823   2.156   2.397 -0.4336 -0.3149  0.1070
    2MOL   C792 1914   2.774   2.180   2.258  0.9349 -0.5433  0.6185
    2MOL   C793 1915   2.711   2.054   2.189 -0.5393 -0.0137  0.1306
    2MOL   C794 1916   2.713   2.066   2.030  0.0875 -0.0345 -0.4495
    2MOL   C795 1917   2.621   1.964   1.965  0.5647  0.0539  0.0211
    2MOL   C796 1918   2.632   1.948   1.813  0.0476  0.5182 -0.0098
    2MOL   C797 1919   2.567   1.816   1.757  0.6030  0.2259  0.8061
    2MOL   C798 1920   2.641   1.682   1.784 -0.4100 -0.1139 -0.0041
    2MOL   O799 1921   2.697   1.657   1.889 -0.4101  0.5308 -0.1218
    2MOL   N800 1922   2.642   1.587   1.692  0.7212 -0.8685 -0.2039
    2MOL   C801 1923   2.690   1.449   1.695 -0.7794  0.4371 -0.4497
    2MOL   C802 1924   2.842   1.446   1.680 -1.0292 -0.1018 -0.1268
    2MOL   C803 1925   2.905   1.533   1.570  1.4085  0.1010  0.8639
    2MOL   C804 1926   3.051   1.498   1.551 -0.0102 -1.0963  0.3570
    2MOL   C805 1927   3.129   1.603   1.465 -0.0168  0.2309  0.0554
    2MOL   C806 1928   3.274   1.585   1.481  0.4173  0.0570 -0.1346
    2MOL   N807 1929   3.305   1.456   1.416  0.4012  0.0841 -0.6677
    2MOL   H808 1930   2.741   2.060   2.851  0.0358 -1.1766  0.1590
    2MOL   H809 1931   2.601   2.123   2.766  0.5006  1.1075  1.0784
    2MOL   H810 1932   2.806   2.213   2.681 -3.0116 -0.5553  2.3945
    2MOL   H811 1933   2.867   2.054   2.629  0.4193  0.4227  0.6375
    2MOL   H812 1934   2.633   2.179   2.484  0.9079 -0.3046 -3.1339
    2MOL   H813 1935   2.684   2.007   2.481  0.0838  0.1554 -0.8085
    2MOL   H814 1936   2.869   2.252   2.424 -2.1667  0.3994  0.5544
    2MOL   H815 1937   2.907   2.086   2.406 -0.5564 -0.5838 -0.8698
    2MOL   H816 1938   2.700   2.260   2.258 -1.1669 -2.4098  0.4997
    2MOL   H817 1939   2.847   2.224   2.191  0.6362 -2.6918 -1.1794
    2MOL   H818 1940   2.757   1.962   2.223 -1.8875 -0.3232  1.1621
    2MOL   H819 1941   2.606   2.049   2.220 -0.2535 -0.1768  1.0873
    2MOL   H820 1942   2.690   2.167   1.997 -1.4861 -0.0506  0.5314
    2MOL   H821 1943   2.816   2.041   2.005  0.5839 -3.0076  3.8443
    2MOL   H822 1944   2.634   1.870   2.018 -1.3963 -1.0917 -1.4367
    2MOL   H823 1945   2.517   1.991   1.984  0.5164  0.5483 -0.9139
    2MOL   H824 1946   2.739   1.938   1.794 -0.1390 -1.3713 -0.2494
    2MOL   H825 1947   2.594   2.032   1.756  2.4607  1.2329 -0.6154
    2MOL   H826 1948   2.461   1.803   1.778  0.4958 -1.9061 -0.9607
    2MOL   H827 1949   2.575   1.825   1.648 -1.5070 -0.8603  0.5380
    2MOL   H828 1950   2.580   1.610   1.616  2.5089  0.9021 -1.1902
    2MOL   H829 1951   2.640   1.398   1.612  2.5563 -1.3907 -1.4175
    2MOL   H830 1952   2.652   1.399   1.783 -2.4444  0.1585 -1.3045
    2MOL   H831 1953   2.873   1.342   1.672 -1.3354 -0.2650  0.6906
    2MOL   H832 1954   2.869   1.482   1.779 -0.1673  0.0916 -0.4316
    2MOL   H833 1955   2.842   1.544   1.482  0.5414  1.4902  1.6444
    2MOL   H834 1956   2.903   1.633   1.613  1.0912  1.5285 -2.3604
    2MOL   H835 1957   3.061   1.397   1.511  1.5493 -1.3169  1.2950
    2MOL   H836 1958   3.104   1.487   1.645 -0.4860 -0.6629  0.6758
    2MOL   H837 1959   3.095   1.700   1.499 -0.0668  0.6195 -1.0959
    2MOL   H838 1960   3.109   1.580   1.360  2.1782  0.0362 -0.3367
    2MOL   H839 1961   3.307   1.589   1.585 -1.7991 -4.4050  0.8845
    2MOL   H840 1962   3.327   1.666   1.431 -0.5223  0.7238 -0.0775
    2MOL   H841 1963   3.308   1.459   1.315 -0.8105  0.1509 -0.7101
    2MOL   C842 1964   3.376   1.363   1.473 -0.4565 -0.2156 -0.2556
    2MOL   O843 1965   3.387   1.350   1.594  0.8386 -0.7210  1.0439
    2MOL   C844 1966   3.441   1.253   1.394 -0.0748  0.7564 -0.5190
    2MOL   C845 1967   3.380   1.119   1.435  0.0512 -0.5219 -0.0356
    2MOL   C846 1968   3.456   0.997   1.366 -0.0662 -0.4110 -0.5277
    2MOL   C847 1969   3.468   0.977   1.213 -0.0035  0.1361 -0.3549
    2MOL   C848 1970   3.588   0.886   1.179 -0.3014 -0.1079 -0.7514
    2MOL   C849 1971   3.646   0.884   1.032  0.1786 -0.5189  0.1446
    2MOL   C850 1972   3.759   0.782   1.024  0.1406 -0.4577  0.2246
    2MOL   C851 1973   3.896   0.840   1.064 -0.6653  0.0053 -0.4315
    2MOL   C852 1974   3.966   0.922   0.950  0.4341  0.6206  0.4031
    2MOL   C853 1975   4.095   0.996   0.990 -0.1776  0.4443  0.1860
    2MOL   C854 1976   4.213   0.901   1.024  0.0341 -0.2480 -0.0246
    2MOL   O855 1977   4.238   0.817   0.942 -0.0384 -0.0106 -0.1345
    2MOL   N856 1978   4.281   0.908   1.145 -0.0893 -0.5202  0.2191
    2MOL   C857 1979   4.380   0.810   1.186 -0.3276  0.4590 -0.5159
    2MOL   C858 1980   4.305   0.695   1.266  0.0590  0.3191  0.2470
    2MOL   C859 1981   4.392   0.576   1.307  0.8368 -0.4169 -0.9837
    2MOL   C860 1982   4.524   0.618   1.374  0.1157  0.1482  1.1602
    2MOL   C861 1983   4.491   0.681   1.509 -0.3749  0.6180  0.1159
    2MOL   C862 1984   4.613   0.726   1.594 -0.7419  0.3672 -0.2330
    2MOL   N863 1985   4.699   0.818   1.533 -0.5863 -0.4764  0.5144
    2MOL   H864 1986   3.549   1.251   1.404 -0.1281 -0.5756 -0.0485
    2MOL   H865 1987   3.437   1.273   1.287  2.1535  0.7941 -0.6118
    2MOL   H866 1988   3.280   1.123   1.392  0.4473  2.6950 -0.8565
    2MOL   H867 1989   3.377   1.105   1.543 -2.6192 -1.1163 -0.1656
    2MOL   H868 1990   3.556   0.989   1.409  1.1653 -0.6484 -3.3352
    2MOL   H869 1991   3.401   0.911   1.404 -0.6611  0.0926 -0.2462
    2MOL   H870 1992   3.473   1.069   1.155  1.6858  0.8835  0.9210
    2MOL   H871 1993   3.372   0.930   1.191 -1.1286  1.7990  0.7723
    2MOL   H872 1994   3.667   0.918   1.247  0.8440 -0.3886 -1.9384
    2MOL   H873 1995   3.568   0.786   1.216 -1.2320 -0.6378 -2.6395
    2MOL   H874 1996   3.564   0.851   0.967 -0.5552  0.4489  0.5653
    2MOL   H875 1997   3.678   0.985   1.006 -1.0132 -0.1322  0.1535
    2MOL   H876 1998   3.734   0.698   1.090 -0.2003 -0.7724 -0.3045
    2MOL   H877 1999   3.760   0.747   0.921 -2.0107  0.0256  0.0127
    2MOL   H878 2000   3.954   0.752   1.093  1.2504  1.0846 -0.9455
    2MOL   H879 2001   3.883   0.902   1.152  1.6035  0.6673 -0.5394
    2MOL   H880 2002   3.891   0.993   0.913  0.3179 -0.2801 -1.1646
    2MOL   H881 2003   3.976   0.848   0.870 -2.3238  0.4543  0.1421
    2MOL   H882 2004   4.123   1.042   0.895  1.7132  0.4071  0.7277
    2MOL   H883 2005   4.070   1.076   1.060 -4.5002  0.3894 -1.1040
    2MOL   H884 2006   4.249   0.971   1.217  0.9644 -2.3675  2.3722
    2MOL   H885 2007   4.462   0.856   1.241  0.2835  1.8220 -2.5058
    2MOL   H886 2008   4.428   0.764   1.100 -0.4807 -1.3096  0.3157
    2MOL   H887 2009   4.231   0.663   1.193  0.9412 -2.3961  0.4541
    2MOL   H888 2010   4.241   0.730   1.347 -1.1881  0.1212 -0.6364
    2MOL   H889 2011   4.411   0.511   1.221 -1.0756 -0.9182 -1.0535
    2MOL   H890 2012   4.328   0.519   1.374 -0.6907  2.3541 -0.0315
    2MOL   H891 2013   4.579   0.683   1.305 -3.0756  0.4153 -1.2356
    2MOL   H892 2014   4.586   0.531   1.395 -2.7102 -2.1521  0.2863
    2MOL   H893 2015   4.434   0.773   1.491  0.9071  1.2000 -1.0159
    2MOL   H894 2016   4.432   0.611   1.567  2.3773  0.3488  2.7460
    2MOL   H895 2017   4.581   0.762   1.692 -1.7076  0.2874 -0.5157
    2MOL   H896 2018   4.665   0.632   1.614  2.5048  1.8362 -1.3790
    2MOL   H897 2019   4.682   0.823   1.433 -0.6620  0.3201  0.5645
    2MOL   C898 2020   4.806   0.870   1.594 -0.2695  0.0864 -0.3340
    2MOL   O899 2021   4.846   0.821   1.700 -0.0577 -0.2184 -0.3353
    2MOL   C900 2022   4.882   0.984   1.537  0.1056 -0.3724 -0.1572
    2MOL   C901 2023   5.033   0.958   1.556  0.0634  0.4602  0.5137
    2MOL   C902 2024   5.079   0.839   1.481  0.4093  0.3294  0.3166
    2MOL   C903 2025   5.231   0.834   1.466 -0.8658 -0.0024  0.2096
    2MOL   C904 2026   5.278   0.709   1.393 -0.1415  0.0560  0.3949
    2MOL   C905 2027   5.423   0.706   1.334  0.6701 -0.2193 -0.1868
    2MOL   C906 2028   5.523   0.642   1.438 -0.0322 -1.0276  0.7084
    2MOL   C907 2029   5.649   0.582   1.379  0.4785  1.1585  0.3890
    2MOL   C908 2030   5.756   0.535   1.476 -0.0544 -0.1127  0.0107
    2MOL   C909 2031   5.861   0.450   1.402  0.6370  0.0996 -0.1025
    2MOL   C910 2032   5.945   0.365   1.500  0.4724 -0.5334 -0.3196
    2MOL   O911 2033   6.011   0.418   1.589  0.3635  0.2329 -0.5429
    2MOL   N912 2034   5.944   0.234   1.475  0.1982  0.4848 -0.2140
    2MOL   C913 2035   6.021   0.129   1.544 -0.3904  0.2442 -0.1231
    2MOL   C914 2036   6.136   0.082   1.449  0.2658 -0.1216  0.1424
    2MOL   C915 2037   6.229   7.670   1.512  0.7158  0.2556 -0.8712
    2MOL   C916 2038   6.322   0.039   1.615 -0.3155 -0.2661  0.3517
    2MOL   C917 2039   6.422   7.624   1.678 -0.2438  0.6218  0.2006
    2MOL   C918 2040   6.489   7.688   1.801 -0.0296  0.3844  0.0896
    2MOL   N919 2041   6.599   7.609   1.835 -0.1165 -0.4823 -0.4640
    2MOL   H920 2042   4.855   1.009   1.435  2.7951 -1.0217 -1.0688
    2MOL   H921 2043   4.863   1.072   1.598  0.4168  0.3657 -1.1246
    2MOL   H922 2044   5.056   0.944   1.661  0.8434 -0.0523  0.2813
    2MOL   H923 2045   5.080   1.048   1.517 -0.8241  0.5571 -0.3531
    2MOL   H924 2046   5.034   0.816   1.385 -0.0969 -2.3182  1.1687
    2MOL   H925 2047   5.042   0.754   1.538  1.1237 -0.4155 -0.3326
    2MOL   H926 2048   5.268   0.924   1.417 -1.3869  0.1926  0.1719
    2MOL   H927 2049   5.278   0.848   1.563 -1.4081  1.2006  0.3149
    2MOL   H928 2050   5.219   0.704   1.301  1.1283 -1.6590 -0.3577
    2MOL   H929 2051   5.256   0.616   1.445  1.8438 -0.9548 -0.5173
    2MOL   H930 2052   5.420   0.642   1.246  1.3647  0.0160 -0.3860
    2MOL   H931 2053   5.446   0.804   1.291 -0.2694  0.0820 -0.0287
    2MOL   H932 2054   5.480   0.556   1.488  0.0863 -1.5877 -0.1424
    2MOL   H933 2055   5.547   0.727   1.503 -3.1883  0.4914 -0.0158
    2MOL   H934 2056   5.703   0.649   1.313  1.0755 -1.4578 -1.8821
    2MOL   H935 2057   5.627   0.500   1.311  0.1874  1.3350  0.2736
    2MOL   H936 2058   5.814   0.618   1.516  0.3872  0.4113 -1.7013
    2MOL   H937 2059   5.712   0.473   1.554  0.4919 -1.6166 -0.8503
    2MOL   H938 2060   5.812   0.381   1.333 -0.6567 -0.5718  1.4541
    2MOL   H939 2061   5.925   0.525   1.355  0.0619 -0.1676 -1.3488
    2MOL   H940 2062   5.881   0.196   1.406 -1.1894  0.9118  0.7972
    2MOL   H941 2063   5.969   0.036   1.566  0.5291 -0.8386 -2.3453
    2MOL   H942 2064   6.050   0.161   1.644  1.2629  0.1569 -0.5531
    2MOL   H943 2065   6.096   0.042   1.357 -0.2732  3.7349 -1.3784
    2MOL   H944 2066   6.186   0.173   1.414 -1.4389  0.3239 -1.2021
    2MOL   H945 2067   6.168   7.591   1.554  2.6255  0.3735  2.2523
    2MOL   H946 2068   6.272   7.627   1.421 -3.1137 -0.8495 -2.2622
    2MOL   H947 2069   6.263   0.078   1.698  0.5509  0.4467  0.6517
    2MOL   H948 2070   6.377   0.127   1.583  0.5095  0.2576  3.0357
    2MOL   H949 2071   6.365   7.534   1.704  0.0974  0.5742  0.8002
    2MOL   H950 2072   6.493   7.592   1.602 -1.7952 -0.5195 -0.7963
    2MOL   H951 2073   6.421   0.039   1.875 -0.7900  1.9379 -1.4706
    2MOL   H952 2074   6.535   0.084   1.754  0.0975 -1.0084 -2.4669
    2MOL   H953 2075   6.681   7.621   1.776 -0.3262  1.0474 -0.4520
    2MOL   C954 2076   6.604   7.524   1.935  0.4506  0.2677 -0.3209
    2MOL   O955 2077   6.713   7.477   1.960 -0.3690 -0.1012 -0.1418
    2MOL   C956 2078   6.484   7.505   2.032 -0.2546 -0.1297  0.0913
    2MOL   C957 2079   6.515   7.422   2.162  1.4630  0.6439  0.2190
    2MOL   C958 2080   6.378   7.399   2.229 -0.3433  0.6562 -0.1565
    2MOL   C959 2081   6.388   7.298   2.343 -0.4255  0.1464 -0.1843
    2MOL   C960 2082   6.251   7.264   2.397 -0.5470  0.3430  0.1851
    2MOL   C961 2083   6.245   7.161   2.510 -0.2884 -0.1957  0.4041
    2MOL   C962 2084   6.303   7.218   2.631  0.1260 -0.4556 -0.0913
    2MOL   C963 2085   6.298   7.128   2.751 -0.2234  0.2778  0.4058
    2MOL   C964 2086   6.361   6.982   2.743  0.5298 -0.2111  0.1740
    2MOL   C965 2087   6.520   6.990   2.739  0.5405 -0.2079 -0.3736
    2MOL   C966 2088   6.581   7.011   2.878 -0.4067  0.6394  0.2878
    2MOL   O967 2089   6.526   6.993   2.986  0.4523  0.1801 -0.2408
    2MOL   N968 2090   6.710   7.046   2.877 -0.2887  0.1382 -0.5698
    2MOL   C969 2091   6.793   7.061   2.989 -0.1413  0.4264 -0.3834
    2MOL   C970 2092   6.872   6.936   3.038  0.3793  0.4028 -0.3536
    2MOL   C971 2093   6.922   6.942   3.186  1.0679  0.4201 -0.2796
    2MOL   C972 2094   7.019   6.837   3.246 -0.0074  0.3461 -0.6123
    2MOL   C973 2095   7.047   6.856   3.389 -0.1956 -0.2282  0.2386
    2MOL   C974 2096   7.147   6.752   3.449  0.2606  0.1969  0.8158
    2MOL   N975 2097   7.073   6.635   3.488 -0.2781  0.1144 -0.1639
    2MOL   H976 2098   6.454   7.602   2.073  1.0830 -0.4116  1.7421
    2MOL   H977 2099   6.400   7.456   1.983 -0.3300  1.6654 -1.6356
    2MOL   H978 2100   6.592   7.472   2.220  2.9656 -1.8420  0.4401
    2MOL   H979 2101   6.563   7.327   2.138  1.9260  1.0937 -0.6770
    2MOL   H980 2102   6.340   7.496   2.263  0.3962  1.0603 -0.4900
    2MOL   H981 2103   6.310   7.351   2.159  3.1296 -1.1211 -2.4191
    2MOL   H982 2104   6.440   7.205   2.318 -0.2545  0.1886  0.0106
    2MOL   H983 2105   6.452   7.336   2.422  1.6244  1.9413 -2.6117
    2MOL   H984 2106   6.216   7.361   2.432  2.1838  2.6460 -3.0142
    2MOL   H985 2107   6.183   7.241   2.314  0.4064 -0.3611 -0.4144
    2MOL   H986 2108   6.142   7.141   2.540  0.3176 -0.5870  2.2857
    2MOL   H987 2109   6.285   7.073   2.460 -0.8999 -0.6350  0.6971
    2MOL   H988 2110   6.410   7.236   2.617  0.0372  0.2900  0.1906
    2MOL   H989 2111   6.264   7.316   2.656  2.2790  0.4968 -0.3685
    2MOL   H990 2112   6.345   7.180   2.835 -0.1394  0.8677  0.0009
    2MOL   H991 2113   6.194   7.122   2.783  0.1038 -1.2477  1.2086
    2MOL   H992 2114   6.319   6.921   2.662  3.0929 -2.3817  0.3999
    2MOL   H993 2115   6.325   6.930   2.831 -1.2567 -0.1106 -0.4771
    2MOL   H994 2116   6.571   6.899   2.707 -0.7685 -1.1582  0.1864
    2MOL   H995 2117   6.539   7.070   2.668  0.2034  0.8657  0.7179
    2MOL   H996 2118   6.744   7.059   2.782  1.1267  0.6656  0.0028
    2MOL   H997 2119   6.731   7.093   3.073 -2.7021 -0.2970 -1.9399
    2MOL   H998 2120   6.857   7.146   2.965 -0.3105  1.0029  1.1132
    2MOL   H999 2121   6.954   6.916   2.969  1.0139  1.2083  0.1613
    2MOL     H1 2122   6.804   6.851   3.042  1.3386 -0.4936 -2.2927
    2MOL     H2 2123   6.829   6.942   3.243  1.4789  0.0838  0.3953
    2MOL     H3 2124   6.953   7.044   3.205  0.5103  0.4662  0.4281
    2MOL     H4 2125   6.991   6.735   3.220  1.6322 -0.1975 -0.2701
    2MOL     H5 2126   7.111   6.842   3.188  1.3202 -2.1901  1.1456
    2MOL     H6 2127   6.956   6.863   3.449  0.9232  0.1266  1.9377
    2MOL     H7 2128   7.089   6.955   3.408  0.4170 -0.7558  1.7113
    2MOL     H8 2129   7.226   6.736   3.375 -0.5556  0.2938 -0.0945
    2MOL     H9 2130   7.183   6.805   3.537 -0.3459  0.3124  0.9977
    2MOL    H10 2131   7.040   6.566   3.422  1.1725 -2.3454  1.5677
    2MOL    C11 2132   7.042   6.600   3.617  0.7836  0.1330  0.3443
    2MOL    O12 2133   7.058   6.673   3.712 -0.2164 -0.2274  0.5243
    2MOL    C13 2134   6.959   6.475   3.638  0.2167  0.8380 -0.6752
    2MOL    C14 2135   6.894   6.456   3.779 -0.4171  0.0946  0.3982
    2MOL    C15 2136   6.989   6.393   3.879  0.3007  0.8518 -0.4618
    2MOL    C16 2137   6.926   6.369   4.013 -0.6474 -0.1993  0.1229
    2MOL    C17 2138   7.019   6.281   4.106  0.3864  0.1270 -0.1661
    2MOL    C18 2139   7.021   6.128   4.077  0.3837 -0.4818  0.5186
    2MOL    C19 2140   7.124   6.044   4.166 -0.0037  1.0097 -0.1115
    2MOL    C20 2141   7.273   6.088   4.183 -0.5642  0.3692 -0.3675
    2MOL    C21 2142   7.357   5.987   4.262 -0.6723 -0.6429  0.3586
    2MOL    C22 2143   7.514   5.990   4.250 -0.1546  0.1293 -0.0252
    2MOL    C23 2144   7.577   5.919   4.123  0.1777  0.0411 -0.2552
    2MOL    O24 2145   7.515   5.902   4.018 -0.2643 -0.5114 -0.0541
    2MOL    N25 2146   0.016   5.876   4.135 -0.3480 -0.2296 -0.2131
    2MOL    C26 2147   0.089   5.808   4.034 -0.4538 -0.2424 -0.5807
    2MOL    C27 2148   0.106   5.659   4.056  0.3608 -0.4165  0.2520
    2MOL    C28 2149   0.180   5.625   4.183 -0.4115 -0.1660  0.2431
    2MOL    C29 2150   0.326   5.686   4.189 -0.2711 -0.0637 -0.1688
    2MOL    C30 2151   0.390   5.648   4.325  0.2286 -0.3929 -0.2485
    2MOL    C31 2152   0.321   5.703   4.454  0.7648 -0.3524 -0.3310
    2MOL    N32 2153   0.324   5.847   4.468  0.3361 -0.1494 -1.0875
    2MOL    H33 2154   7.008   6.385   3.599  0.9959 -0.1590  2.4695
    2MOL    H34 2155   6.888   6.489   3.556  0.0158 -0.0188 -0.6549
    2MOL    H35 2156   6.811   6.387   3.768 -0.6411  0.5595 -0.9811
    2MOL    H36 2157   6.850   6.551   3.811  1.6759  0.1216  3.3207
    2MOL    H37 2158   7.077   6.457   3.891  0.6850  0.3294 -0.4935
    2MOL    H38 2159   7.027   6.297   3.845  1.2116  0.6979  0.9377
    2MOL    H39 2160   6.894   6.459   4.066 -1.2317 -0.8711  0.9113
    2MOL    H40 2161   6.843   6.302   3.993 -1.5997  0.5045  1.6212
    2MOL    H41 2162   7.120   6.322   4.107 -0.1824  1.5624  1.3327
    2MOL    H42 2163   6.985   6.291   4.209 -1.1192 -2.1264 -0.4201
    2MOL    H43 2164   6.920   6.092   4.093 -0.5350  1.6634 -0.3489
    2MOL    H44 2165   7.031   6.108   3.970 -0.6254 -1.3737  0.5825
    2MOL    H45 2166   7.089   6.041   4.269 -0.7231  1.3828 -0.3429
    2MOL    H46 2167   7.114   5.946   4.120 -0.6938  1.8401 -1.7523
    2MOL    H47 2168   7.315   6.119   4.087 -1.1777  0.9768 -0.4438
    2MOL    H48 2169   7.274   6.186   4.232 -0.9270 -0.1499  0.6715
    2MOL    H49 2170   7.320   5.885   4.247 -1.4485 -0.2204 -0.6283
    2MOL    H50 2171   7.342   6.007   4.368 -1.3502 -2.3167  0.5962
    2MOL    H51 2172   7.547   6.093   4.259 -1.4023  0.4879  0.6393
    2MOL    H52 2173   7.546   5.940   4.342 -0.7769  1.4234  0.9040
    2MOL    H53 2174   0.059   5.902   4.223 -2.4585  0.3457  0.6736
    2MOL    H54 2175   0.179   5.870   4.027 -0.2588 -0.7689 -3.0996
    2MOL    H55 2176   0.041   5.817   3.937  0.5436 -0.6885 -1.1222
    2MOL    H56 2177   0.158   5.624   3.967 -1.5113 -1.3759 -0.4799
    2MOL    H57 2178   0.004   5.622   4.059  0.0902  0.1592 -1.3791
    2MOL    H58 2179   0.180   5.518   4.202 -0.2877 -0.1098  0.5551
    2MOL    H59 2180   0.121   5.664   4.266 -0.5085  0.4228 -0.1008
    2MOL    H60 2181   0.339   5.793   4.175  3.8287 -0.6801 -1.7969
    2MOL    H61 2182   0.387   5.628   4.120  0.6866  2.9180 -1.8858
    2MOL    H62 2183   0.497   5.670   4.325  0.2289 -0.2102  2.9316
    2MOL    H63 2184   0.378   5.539   4.326  0.3463 -0.4001  0.8367
    2MOL    H64 2185   0.364   5.663   4.546 -3.5608 -1.4531  1.3178
    2MOL    H65 2186   0.221   5.663   4.470  0.4580  0.1440 -0.9829
    2MOL    H66 2187   0.414   5.876   4.503  0.2174 -0.5946 -0.3930
    2MOL    C67 2188   0.228   5.927   4.430 -0.4283  0.0937 -0.0023
    2MOL    O68 2189   0.123   5.891   4.386 -0.5267  0.0370 -0.3651
    2MOL    C69 2190   0.254   6.076   4.473  0.1324  0.9190  0.9067
    2MOL    C70 2191   0.162   6.177   4.412 -0.0803 -0.1826  1.0412
    2MOL    C71 2192   0.190   6.182   4.254  0.0399 -0.3537  0.3813
    2MOL    C72 2193   0.131   6.306   4.187  0.2966 -0.4642 -0.1723
    2MOL    C73 2194   7.665   6.325   4.197  0.4244  0.5004 -0.5569
    2MOL    C74 2195   7.612   6.466   4.148  0.5903  1.1482  0.1530
    2MOL    C75 2196   7.650   6.581   4.249  0.4523  0.0866  0.3017
    2MOL    C76 2197   7.604   6.714   4.186  0.0763  0.2309 -0.4130
    2MOL    C77 2198   7.615   6.840   4.279  0.3292 -0.0561  0.2534
    2MOL    C78 2199   7.592   6.961   4.192  0.4502 -0.5632  0.9015
    2MOL    C79 2200   7.590   7.093   4.270 -0.2257  0.8170 -0.0664
    2MOL    O80 2201   7.606   7.097   4.393 -0.2670  0.2187  0.3656
    2MOL    N81 2202   7.577   7.200   4.191 -0.4257 -0.1944 -0.7042
    2MOL    C82 2203   7.541   7.336   4.237 -0.5530  0.8835 -0.5603
    2MOL    C83 2204   7.605   7.444   4.148 -0.0480 -0.0083  0.2293
    2MOL    C84 2205   0.065   7.448   4.147  0.4426  0.3373 -0.1264
    2MOL    C85 2206   0.113   7.569   4.066 -0.9707 -0.3085  0.0813
    2MOL    C86 2207   0.267   7.584   4.069 -0.2527 -0.8910  0.7304
    2MOL    C87 2208   0.302   0.037   4.035 -0.0585  0.2980  0.6041
    2MOL    N88 2209   0.446   0.033   4.006  0.1489 -0.0809 -0.6533
    2MOL    H89 2210   0.362   6.086   4.466  0.2973 -1.0155  0.1797
    2MOL    H90 2211   0.243   6.069   4.581  0.4376 -0.9171  0.8382
    2MOL    H91 2212   0.059   6.161   4.442  0.1449 -2.3094  0.7182
    2MOL    H92 2213   0.194   6.273   4.452 -0.7253 -0.2871  1.8272
    2MOL    H93 2214   0.297   6.203   4.251 -0.0817  0.1743 -0.1883
    2MOL    H94 2215   0.168   6.088   4.203 -1.6230  0.7013 -0.8839
    2MOL    H95 2216   0.178   6.395   4.229  0.1054 -0.1253 -0.6803
    2MOL    H96 2217   0.152   6.310   4.080 -0.2641 -2.7260 -0.3914
    2MOL    H97 2218   7.624   6.249   4.132 -2.4042  1.9027 -0.5103
    2MOL    H98 2219   7.637   6.319   4.303 -0.0973 -0.6038 -0.7522
    2MOL    H99 2220   7.651   6.482   4.047  0.0332 -0.0251 -0.2595
    2MOL   H100 2221   7.504   6.459   4.144  0.6966 -0.2481 -0.8288
    2MOL   H101 2222   0.065   6.591   4.265  0.7281 -0.1456 -1.3102
    2MOL   H102 2223   7.588   6.552   4.335 -0.1451  0.8576  0.1392
    2MOL   H103 2224   7.670   6.739   4.104 -1.1113  3.2670 -0.5233
    2MOL   H104 2225   7.501   6.714   4.149  0.0960 -3.4554 -0.6328
    2MOL   H105 2226   0.015   6.862   4.335 -0.0330 -0.3440  0.9711
    2MOL   H106 2227   7.536   6.830   4.353 -2.0934 -0.8423 -2.3639
    2MOL   H107 2228   7.674   6.970   4.122  0.1281 -1.8668  0.3357
    2MOL   H108 2229   7.492   6.945   4.151  0.2068 -1.2719  1.7601
    2MOL   H109 2230   7.577   7.176   4.093  2.5655  0.6110 -0.9510
    2MOL   H110 2231   7.573   7.342   4.341 -2.9459  2.4841  0.1337
    2MOL   H111 2232   7.433   7.341   4.243 -0.5680 -1.2314  1.9262
    2MOL   H112 2233   7.558   7.536   4.183 -1.2926 -0.4101 -0.3842
    2MOL   H113 2234   7.575   7.442   4.043  0.9273  0.1640 -0.0617
    2MOL   H114 2235   0.103   7.355   4.106 -1.8950 -0.6431 -0.1767
    2MOL   H115 2236   0.093   7.468   4.250  2.0376  1.8923 -0.8274
    2MOL   H116 2237   0.071   7.568   3.965 -1.3987  1.8199  0.2132
    2MOL   H117 2238   0.055   7.655   4.098  0.5415  1.0205 -0.7028
    2MOL   H118 2239   0.308   7.567   4.169  1.0271  2.0857  0.7546
    2MOL   H119 2240   0.308   7.509   4.001  0.2573 -1.7937  2.0003
    2MOL   H120 2241   0.245   0.075   3.950  2.4176 -2.4994 -2.5045
    2MOL   H121 2242   0.270   0.096   4.120 -2.3251  0.2007 -0.1461
    2MOL   H122 2243   0.497   0.020   4.092 -0.3382 -2.3257 -0.6752
    2MOL   H123 2244   0.481   0.125   3.986 -0.3204  0.3652  0.5126
    3MOL     C1 2245   3.527   5.621   2.888 -0.4451  0.5359  0.0681
    3MOL     O2 2246   3.647   5.654   2.908 -0.0705  0.0467 -0.3455
    3MOL     C3 2247   3.439   5.726   2.821 -0.0084 -0.3358  0.2155
    3MOL     C4 2248   3.413   5.861   2.888 -0.4181  0.1496  0.4535
    3MOL     C5 2249   3.339   5.963   2.804  0.4300 -0.1851 -0.6016
    3MOL     C6 2250   3.438   6.030   2.713 -0.3831 -0.1372 -0.6574
    3MOL     C7 2251   3.375   6.121   2.613  0.3323  0.6262 -0.5107
    3MOL     C8 2252   3.442   6.260   2.598 -1.5400 -0.3864  0.3247
    3MOL     C9 2253   3.403   6.363   2.711 -0.0651 -0.3808 -0.1422
    3MOL    C10 2254   3.490   6.484   2.682  0.5254  0.1104 -0.4708
    3MOL    C11 2255   3.488   6.594   2.787 -0.5384 -0.4343  0.5380
    3MOL    C12 2256   3.581   6.708   2.762  0.0798 -0.2249 -0.2528
    3MOL    C13 2257   3.536   6.809   2.657  0.0582 -0.0247  0.5187
    3MOL    O14 2258   3.415   6.821   2.625 -0.5111 -0.5912 -0.1160
    3MOL    N15 2259   3.626   6.898   2.597 -0.1144  0.0384 -0.3672
    3MOL    C16 2260   3.765   6.892   2.625 -0.1744 -0.2746  0.2257
    3MOL    C17 2261   3.823   7.013   2.555  0.3888  0.0680 -0.0586
    3MOL    C18 2262   3.978   7.029   2.554  0.0530 -0.0387  0.3524
    3MOL    C19 2263   4.020   7.146   2.464 -0.1589 -0.1377 -0.1216
    3MOL    C20 2264   4.176   7.174   2.479 -0.5125  0.4034  0.5788
    3MOL    C21 2265   4.229   7.294   2.384  0.4640  0.4352  0.2896
    3MOL    N22 2266   4.369   7.330   2.421 -0.1594  0.0395  0.0856
    3MOL    H23 2267   3.338   5.683   2.818 -0.0859 -0.0550 -2.2946
    3MOL    H24 2268   3.474   5.740   2.719 -2.3526 -1.4905 -0.7950
    3MOL    H25 2269   3.509   5.905   2.912 -0.0586 -0.5254  0.2667
    3MOL    H26 2270   3.352   5.854   2.978  0.7641  1.2511  1.3648
    3MOL    H27 2271   3.298   6.048   2.859  2.0870  0.0379  0.3446
    3MOL    H28 2272   3.254   5.914   2.757  0.2005  1.7758 -2.2798
    3MOL    H29 2273   3.504   6.088   2.778 -0.1313  0.1946 -1.2117
    3MOL    H30 2274   3.506   5.959   2.666  2.9825  3.7114 -1.9343
    3MOL    H31 2275   3.270   6.137   2.637  0.2648 -0.2233 -0.2326
    3MOL    H32 2276   3.370   6.062   2.522 -2.5102  0.8246 -0.5243
    3MOL    H33 2277   3.549   6.242   2.592 -1.4324  0.1993  0.4508
    3MOL    H34 2278   3.402   6.306   2.507 -1.8759  1.6273  1.4673
    3MOL    H35 2279   3.296   6.385   2.707 -0.1402 -0.8624 -0.8356
    3MOL    H36 2280   3.435   6.318   2.806 -0.4939  0.9196  0.6268
    3MOL    H37 2281   3.592   6.451   2.665  0.7978 -0.5477  2.2137
    3MOL    H38 2282   3.461   6.512   2.580 -3.0778  0.2437  0.5203
    3MOL    H39 2283   3.520   6.553   2.883 -0.8387 -1.9377  0.0229
    3MOL    H40 2284   3.384   6.622   2.798 -0.6697 -0.6607 -0.0520
    3MOL    H41 2285   3.615   6.769   2.845  0.0179  0.1747 -0.5182
    3MOL    H42 2286   3.676   6.672   2.721  0.8350 -1.0395  2.1728
    3MOL    H43 2287   3.589   6.974   2.542  0.7123  0.3845 -0.4584
    3MOL    H44 2288   3.815   6.805   2.582 -0.3248 -1.1886  1.8900
    3MOL    H45 2289   3.785   6.898   2.732  0.9660 -1.7454  0.1088
    3MOL    H46 2290   3.795   7.112   2.590  1.4049  0.0321  0.8828
    3MOL    H47 2291   3.806   7.010   2.447 -3.8162  0.9914  0.5162
    3MOL    H48 2292   4.017   7.048   2.654  0.0145  0.2134  0.3195
    3MOL    H49 2293   4.019   6.935   2.517  0.9688  0.2645  0.5681
    3MOL    H50 2294   3.973   7.244   2.476  1.9094  0.8845 -0.1618
    3MOL    H51 2295   4.000   7.130   2.358 -1.0800  1.6686 -0.2504
    3MOL    H52 2296   4.199   7.193   2.584 -0.5587  0.4702  0.5767
    3MOL    H53 2297   4.230   7.082   2.460 -0.1278  0.6806  0.3328
    3MOL    H54 2298   4.215   7.267   2.279  2.7746  1.8499 -0.4150
    3MOL    H55 2299   4.164   7.381   2.396  1.8793  1.0170  4.3533
    3MOL    H56 2300   4.443   7.289   2.367 -0.3070  0.7121 -0.6401
    3MOL    H57 2301   3.481   5.528   2.921 -2.3062  1.4502  0.0975
    3MOL    C58 2302   4.417   7.414   2.512 -0.0837  0.3080 -0.1641
    3MOL    O59 2303   4.338   7.454   2.597 -0.3105  0.7475  0.5334
    3MOL    C60 2304   4.567   7.454   2.509 -0.3932 -0.2011  0.9289
    3MOL    C61 2305   4.587   7.604   2.470 -0.5550  0.5168 -0.6705
    3MOL    C62 2306   4.578   7.631   2.324  0.0508 -0.4516  0.0480
    3MOL    C63 2307   4.567   0.083   2.273 -0.5896 -0.0168 -0.1702
    3MOL    C64 2308   4.570   0.107   2.118 -0.3165  0.4788  0.5512
    3MOL    C65 2309   4.447   0.045   2.051 -0.0683 -0.4615 -0.3269
    3MOL    C66 2310   4.462   7.601   1.985  0.2851  0.4017  0.7439
    3MOL    C67 2311   4.338   7.542   1.914 -0.1095 -0.4231 -0.0983
    3MOL    C68 2312   4.236   7.463   2.005 -0.0521  0.0297  0.4484
    3MOL    C69 2313   4.143   7.544   2.099  0.4744 -0.1108  0.1492
    3MOL    C70 2314   4.012   7.464   2.127 -0.2460 -0.3745  0.5616
    3MOL    O71 2315   3.986   7.366   2.064  0.1467 -0.1584 -0.3102
    3MOL    N72 2316   3.928   7.509   2.221  0.1753  0.3293 -0.0695
    3MOL    C73 2317   3.808   7.436   2.261  0.2216 -0.4639 -0.1907
    3MOL    C74 2318   3.687   7.459   2.165  0.2622 -0.5311 -0.2303
    3MOL    C75 2319   3.575   7.363   2.198  0.2027  1.0963  0.3496
    3MOL    C76 2320   3.459   7.360   2.097  0.4631  0.6832 -0.0237
    3MOL    C77 2321   3.358   7.481   2.108  0.2560 -0.0438 -0.2128
    3MOL    C78 2322   3.260   7.493   2.226  0.3064 -0.0979 -0.2119
    3MOL    N79 2323   3.336   7.505   2.351 -0.0849  0.4431  0.3414
    3MOL    H80 2324   4.635   7.400   2.442  0.1506  0.8298  0.6317
    3MOL    H81 2325   4.604   7.440   2.610  1.4765  1.9454  0.5941
    3MOL    H82 2326   4.516   7.661   2.530 -0.7305  0.5182 -0.8774
    3MOL    H83 2327   4.681   7.635   2.515 -1.1277  0.2878  0.7108
    3MOL    H84 2328   4.499   7.568   2.284  0.1812 -0.8442  0.4003
    3MOL    H85 2329   4.669   7.583   2.288 -1.2890 -0.0188 -4.1151
    3MOL    H86 2330   4.652   0.128   2.324  0.8277 -1.4766 -1.1544
    3MOL    H87 2331   4.475   0.132   2.303 -0.4751 -1.0640  1.9631
    3MOL    H88 2332   4.569   0.215   2.105  1.5932  0.2850 -1.5071
    3MOL    H89 2333   4.660   0.072   2.068 -1.2691 -0.5183 -0.4943
    3MOL    H90 2334   4.430   0.123   1.977  0.3764  2.1372  2.2023
    3MOL    H91 2335   4.365   0.042   2.123  2.4041  0.4102  2.6144
    3MOL    H92 2336   4.505   7.523   2.048 -1.1527 -1.9892 -1.1221
    3MOL    H93 2337   4.536   7.618   1.907 -1.0501  1.9232 -0.2179
    3MOL    H94 2338   4.291   7.612   1.846  0.8142  0.8351  0.5319
    3MOL    H95 2339   4.375   7.464   1.847 -1.2664  0.0306 -1.2892
    3MOL    H96 2340   4.297   7.398   2.068  1.1397  1.2035  0.5181
    3MOL    H97 2341   4.178   7.394   1.944 -0.0205 -0.2530  0.7374
    3MOL    H98 2342   4.196   7.571   2.190  0.2900 -0.0757  0.2472
    3MOL    H99 2343   4.110   7.640   2.060 -1.7919 -0.3141  1.4919
    3MOL   H100 2344   3.953   7.590   2.276 -0.2241  0.8914 -0.6995
    3MOL   H101 2345   3.775   7.474   2.358 -0.7489 -2.6480  0.3609
    3MOL   H102 2346   3.828   7.330   2.275 -1.7186 -0.6708  1.2148
    3MOL   H103 2347   3.657   7.564   2.160 -0.9054 -0.8723 -0.7127
    3MOL   H104 2348   3.707   7.428   2.063  2.2820  1.3378 -0.4296
    3MOL   H105 2349   3.540   7.395   2.296  1.5670  0.5845  1.0263
    3MOL   H106 2350   3.622   7.265   2.209 -1.9352  0.0382  0.3629
    3MOL   H107 2351   3.501   7.352   1.996  0.9673  2.0310  0.0627
    3MOL   H108 2352   3.404   7.267   2.107  4.9496 -2.0112  1.3806
    3MOL   H109 2353   3.294   7.451   2.024 -0.5408 -0.8167  0.6630
    3MOL   H110 2354   3.405   7.576   2.081 -0.9167  0.6816  0.2613
    3MOL   H111 2355   3.184   7.415   2.229 -0.0617  0.2868  1.2587
    3MOL   H112 2356   3.191   7.575   2.206 -1.4932 -1.1139  1.6086
    3MOL   H113 2357   3.362   7.414   2.386 -0.8243 -0.4092 -1.2766
    3MOL   C114 2358   3.360   7.629   2.409  0.3526  0.7194  0.2911
    3MOL   O115 2359   3.311   0.040   2.363 -0.5052 -0.3100  0.2094
    3MOL   C116 2360   3.455   7.640   2.536 -0.0358  0.1983  0.1842
    3MOL   C117 2361   3.397   0.021   2.654 -0.3990  0.5994  0.4402
    3MOL   C118 2362   3.335   7.619   2.765  0.2776 -0.2145  0.2005
    3MOL   C119 2363   3.200   7.555   2.716  0.3906  0.1230 -0.3195
    3MOL   C120 2364   3.084   7.650   2.687  0.6714  0.1139  0.1474
    3MOL   C121 2365   2.947   7.593   2.662 -0.2989  0.4125 -0.2257
    3MOL   C122 2366   2.940   7.497   2.538  0.1416 -0.0419  0.7376
    3MOL   C123 2367   2.972   7.351   2.563  0.4781  0.1950 -0.3518
    3MOL   C124 2368   2.874   7.285   2.654  0.4318  0.3465 -0.4467
    3MOL   C125 2369   2.889   7.133   2.663  0.1781 -0.2495 -0.6273
    3MOL   C126 2370   3.004   7.079   2.744 -0.0857  0.8432 -0.0650
    3MOL   O127 2371   3.076   7.157   2.812  0.3801 -0.9794 -0.0221
    3MOL   N128 2372   3.017   6.950   2.739  0.2021 -0.6903  0.0591
    3MOL   C129 2373   3.119   6.877   2.806 -0.2566  0.1683 -0.3338
    3MOL   C130 2374   3.075   6.834   2.945  0.0680  0.0915 -0.3794
    3MOL   C131 2375   2.975   6.719   2.944 -0.0573 -0.6588  0.4708
    3MOL   C132 2376   2.924   6.680   3.081  0.4001 -0.3408 -1.2871
    3MOL   C133 2377   2.793   6.592   3.091 -0.2307  0.1542  0.2663
    3MOL   C134 2378   2.755   6.539   3.229 -0.4863  0.4638 -1.1027
    3MOL   N135 2379   2.622   6.471   3.219  0.9997 -0.6180  0.3402
    3MOL   H136 2380   3.492   7.542   2.566  1.6601  0.9028  0.4645
    3MOL   H137 2381   3.541   7.688   2.490  0.3747 -1.5077 -0.8764
    3MOL   H138 2382   3.317   0.084   2.615  0.7758  1.5480 -0.4449
    3MOL   H139 2383   3.477   0.080   2.698  0.3783 -1.5770  2.0577
    3MOL   H140 2384   3.397   7.536   2.798 -0.7350 -1.4653 -0.9647
    3MOL   H141 2385   3.316   7.684   2.850 -1.3335  1.4462 -1.3721
    3MOL   H142 2386   3.218   7.511   2.618 -1.0103 -0.9659 -0.1008
    3MOL   H143 2387   3.156   7.488   2.790  1.4216  1.5086  1.6046
    3MOL   H144 2388   3.081   0.043   2.756  0.4386  1.9387 -2.0408
    3MOL   H145 2389   3.104   0.020   2.599 -0.0575  2.1831  1.3982
    3MOL   H146 2390   2.878   7.675   2.648 -2.6589 -1.5203 -0.1929
    3MOL   H147 2391   2.918   7.540   2.753  0.5843  0.9932  0.4061
    3MOL   H148 2392   2.842   7.512   2.492  0.1314 -1.1787  0.3670
    3MOL   H149 2393   2.999   7.537   2.455 -0.1362 -1.0380  0.0471
    3MOL   H150 2394   3.071   7.341   2.608 -0.9660  0.5648  3.0374
    3MOL   H151 2395   2.970   7.294   2.470  0.1944 -1.6906  0.7932
    3MOL   H152 2396   2.774   7.301   2.614 -0.1797  1.6779  1.5315
    3MOL   H153 2397   2.875   7.325   2.755 -0.0108  2.4219 -1.2297
    3MOL   H154 2398   2.914   7.096   2.564 -0.1301  0.4207 -0.9568
    3MOL   H155 2399   2.803   7.076   2.697 -1.0766 -0.2813 -3.7507
    3MOL   H156 2400   2.968   6.910   2.661  0.9769  0.2762 -0.9558
    3MOL   H157 2401   3.205   6.940   2.826 -0.3775  0.9801 -2.3235
    3MOL   H158 2402   3.153   6.794   2.744 -0.3636  0.3523 -0.6361
    3MOL   H159 2403   3.031   6.921   2.995 -1.0669 -1.2837  1.0621
    3MOL   H160 2404   3.164   6.817   3.005 -0.4792  2.0560  1.0647
    3MOL   H161 2405   2.884   6.747   2.890 -1.2945 -1.6826  1.9718
    3MOL   H162 2406   3.007   6.642   2.873 -0.0521 -0.8175  0.6444
    3MOL   H163 2407   3.012   6.641   3.132 -0.1773  0.1693  0.1389
    3MOL   H164 2408   2.896   6.768   3.138 -0.1559 -1.0553 -0.4364
    3MOL   H165 2409   2.804   6.512   3.017 -4.4748  1.1622 -1.6468
    3MOL   H166 2410   2.705   6.641   3.048 -0.8362 -1.3545 -0.2548
    3MOL   H167 2411   2.826   6.463   3.261 -0.0716  1.6596  0.9265
    3MOL   H168 2412   2.753   6.621   3.301  1.1499 -1.0889  0.7542
    3MOL   H169 2413   2.614   6.400   3.148  1.0902 -0.0122 -0.2794
    3MOL   C170 2414   2.496   6.504   3.260 -0.0709 -0.6374 -0.2894
    3MOL   O171 2415   2.392   6.459   3.214  0.0272 -0.4213  0.1680
    3MOL   C172 2416   2.492   6.593   3.384 -0.3096 -0.5140 -0.3788
    3MOL   C173 2417   2.452   6.735   3.345 -0.2166  0.1147 -0.0772
    3MOL   C174 2418   2.537   6.818   3.259  0.5260 -0.3917  0.0386
    3MOL   C175 2419   2.500   6.959   3.230  0.3660  0.0743  0.1731
    3MOL   C176 2420   2.602   7.044   3.154 -0.0281  0.7958  0.1714
    3MOL   C177 2421   2.555   7.178   3.122  0.7688 -0.2316 -0.1154
    3MOL   C178 2422   2.636   7.263   3.028 -0.7507 -0.4352  0.2925
    3MOL   C179 2423   2.585   7.410   3.005  0.0226 -0.1287  0.7210
    3MOL   C180 2424   2.678   7.495   2.911 -0.3613  0.7067 -0.0388
    3MOL   C181 2425   2.633   7.629   2.862 -0.3237 -0.1652 -0.6075
    3MOL   C182 2426   2.586   0.032   2.972  0.2617 -0.5871 -0.0081
    3MOL   O183 2427   2.467   0.023   3.002  0.0289  0.1606 -0.3636
    3MOL   N184 2428   2.670   0.121   3.030 -0.2093  0.3982 -0.0214
    3MOL   C185 2429   2.632   0.179   3.161  0.6491  0.3245  0.3638
    3MOL   C186 2430   2.680   0.098   3.273  0.5213 -0.8503  0.2733
    3MOL   C187 2431   2.661   0.175   3.407 -0.3527 -0.4423  0.7639
    3MOL   C188 2432   2.683   0.077   3.521 -0.1340  0.5008  0.1407
    3MOL   C189 2433   2.695   0.143   3.661 -0.4663 -0.8871  0.6245
    3MOL   C190 2434   2.726   0.039   3.767 -0.3380 -0.2543 -0.1211
    3MOL   N191 2435   2.693   0.098   3.899  0.0929  0.3508 -0.4545
    3MOL   H192 2436   2.419   6.546   3.450 -0.0179  0.0970  0.3889
    3MOL   H193 2437   2.582   6.600   3.445 -0.5700 -1.4946  0.1297
    3MOL   H194 2438   2.438   6.785   3.440  0.2938 -0.9000  0.5388
    3MOL   H195 2439   2.355   6.735   3.297  1.2752  0.2423 -3.2420
    3MOL   H196 2440   2.558   6.768   3.165 -1.5147  1.0093 -1.1918
    3MOL   H197 2441   2.637   6.826   3.302  0.4509  4.6248 -0.3865
    3MOL   H198 2442   2.404   6.954   3.179  0.2460 -0.0358  0.4076
    3MOL   H199 2443   2.461   7.007   3.320  0.7577 -0.5726  0.6960
    3MOL   H200 2444   2.698   7.053   3.204 -0.0149  1.9237 -0.0553
    3MOL   H201 2445   2.606   6.995   3.057 -0.9020  2.6636 -0.8140
    3MOL   H202 2446   2.538   7.233   3.214  0.6925 -0.3539 -0.0556
    3MOL   H203 2447   2.455   7.174   3.077 -0.2496  0.2987  2.0518
    3MOL   H204 2448   2.741   7.265   3.059 -0.3646  0.0741 -1.0018
    3MOL   H205 2449   2.639   7.219   2.928 -0.9208  0.2619 -0.0249
    3MOL   H206 2450   2.483   7.404   2.965  0.5773 -0.4340 -0.6723
    3MOL   H207 2451   2.586   7.472   3.095 -1.3927 -1.0007  1.3664
    3MOL   H208 2452   2.682   7.433   2.821  1.0726 -1.4230  1.4403
    3MOL   H209 2453   2.779   7.512   2.948  0.1447  0.0126 -1.0775
    3MOL   H210 2454   2.714   7.673   2.804 -0.3963 -2.4823 -2.5296
    3MOL   H211 2455   2.547   7.634   2.796  0.5601  0.8355 -1.7201
    3MOL   H212 2456   2.770   0.115   3.017 -0.3961 -0.2626 -1.2264
    3MOL   H213 2457   2.525   0.198   3.175  0.5171 -0.6224  0.7087
    3MOL   H214 2458   2.680   0.276   3.167 -0.9850  1.1623  0.2898
    3MOL   H215 2459   2.613   0.013   3.264 -1.8424  0.8298  1.3305
    3MOL   H216 2460   2.781   0.061   3.263  0.2147 -1.1205 -1.9182
    3MOL   H217 2461   2.733   0.257   3.399  0.2131 -1.1305 -1.6859
    3MOL   H218 2462   2.563   0.220   3.406  0.1464  0.7040 -2.6813
    3MOL   H219 2463   2.768   0.011   3.505 -0.6817  0.0718 -1.1004
    3MOL   H220 2464   2.598   0.009   3.526 -0.7325  1.2929  0.9948
    3MOL   H221 2465   2.605   0.202   3.681  0.0507  0.1990 -0.2176
    3MOL   H222 2466   2.782   0.207   3.671 -0.7090 -0.4428 -0.0753
    3MOL   H223 2467   2.822   7.679   3.764 -0.4041 -0.3834 -0.0352
    3MOL   H224 2468   2.652   7.652   3.762  1.0463 -1.5578 -0.4583
    3MOL   H225 2469   2.611   0.157   3.906 -0.7035 -0.4167 -2.7565
    3MOL   C226 2470   2.771   0.084   4.006  0.0472  0.5963  0.6434
    3MOL   O227 2471   2.869   0.013   4.005 -0.2738 -0.0878  0.8364
    3MOL   C228 2472   2.757   0.174   4.125 -0.5067 -0.8699 -0.6885
    3MOL   C229 2473   2.792   0.103   4.259  0.4128 -0.5765 -0.4596
    3MOL   C230 2474   2.692   7.688   4.294  0.5418  0.2665 -0.0749
    3MOL   C231 2475   2.681   7.648   4.441 -0.0895  0.1933  0.1981
    3MOL   C232 2476   2.611   7.519   4.487 -0.4146  0.2236  0.0373
    3MOL   C233 2477   2.464   7.508   4.437  0.7118  0.4359  0.0708
    3MOL   C234 2478   2.357   7.543   4.537 -0.0843 -0.1735  0.4496
    3MOL   C235 2479   2.364   7.689   4.595 -0.3652 -0.3229  0.0198
    3MOL   C236 2480   2.244   0.029   4.678  0.1397  0.0085  0.4492
    3MOL   C237 2481   2.273   0.156   4.765 -0.2964  0.2255  0.1605
    3MOL   C238 2482   2.155   0.170   4.855  0.4404 -0.5073 -0.0734
    3MOL   O239 2483   2.083   0.076   4.880 -0.5946 -0.3859 -0.0444
    3MOL   N240 2484   2.122   0.287   4.899  0.1549 -0.1745  1.0862
    3MOL   C241 2485   1.991   0.324   4.948 -0.4652 -0.3356 -0.7928
    3MOL   C242 2486   1.978   0.477   4.954  0.6347 -0.6729 -0.2910
    3MOL   C243 2487   2.062   0.544   5.069  0.2800  0.6027  0.2160
    3MOL   C244 2488   2.069   0.696   5.062 -0.5325  0.2327 -0.3634
    3MOL   C245 2489   1.940   0.777   5.077 -1.5499  0.3660  0.4192
    3MOL   C246 2490   1.850   0.799   4.954  0.0292 -0.1984 -0.1906
    3MOL   N247 2491   1.747   0.898   4.975  0.2220 -0.1896 -0.3028
    3MOL   H248 2492   2.659   0.221   4.126 -0.5758 -1.0063  0.4400
    3MOL   H249 2493   2.829   0.257   4.120 -1.3154 -0.2696 -2.4862
    3MOL   H250 2494   2.891   0.057   4.258  0.1307 -1.2400  1.5652
    3MOL   H251 2495   2.790   0.181   4.335 -0.1954 -0.9005 -0.1403
    3MOL   H252 2496   2.596   0.026   4.250  1.2868  1.2722 -1.0497
    3MOL   H253 2497   2.709   7.593   4.243 -0.1218  0.0822  0.0409
    3MOL   H254 2498   2.639   0.042   4.495  0.6605 -0.6669  2.2225
    3MOL   H255 2499   2.778   7.634   4.489  0.0476 -0.7964 -0.3645
    3MOL   H256 2500   2.610   7.527   4.595 -2.7966  0.0155  0.0450
    3MOL   H257 2501   2.659   7.428   4.449 -2.4972 -1.2776  0.9007
    3MOL   H258 2502   2.444   7.578   4.357  4.6122  2.4780  0.7481
    3MOL   H259 2503   2.440   7.407   4.402 -2.5080  2.0170 -2.5382
    3MOL   H260 2504   2.362   7.472   4.619 -0.0326 -1.4152 -0.6237
    3MOL   H261 2505   2.257   7.527   4.497 -0.6194  0.1716  1.6188
    3MOL   H262 2506   2.448   0.001   4.663 -1.4833  0.9315  1.3676
    3MOL   H263 2507   2.382   0.078   4.523  0.9476 -0.4844  0.1657
    3MOL   H264 2508   2.149   0.039   4.625  1.1853  2.5732 -0.9992
    3MOL   H265 2509   2.237   7.633   4.743  1.7476 -1.4325 -1.2576
    3MOL   H266 2510   2.359   0.152   4.832 -1.0904 -2.6024  1.1054
    3MOL   H267 2511   2.288   0.243   4.702  0.6083  0.9309  1.3190
    3MOL   H268 2512   2.178   0.365   4.868  0.3382  0.1172  2.1583
    3MOL   H269 2513   1.973   0.275   5.044  0.4196 -0.5029 -0.7108
    3MOL   H270 2514   1.907   0.284   4.890 -0.3357 -0.1521 -1.1114
    3MOL   H271 2515   1.875   0.488   4.988 -0.3565 -0.9591 -3.0517
    3MOL   H272 2516   1.979   0.524   4.855 -0.6665  0.3925  0.1890
    3MOL   H273 2517   2.026   0.506   5.165  0.6974 -0.4737 -0.0500
    3MOL   H274 2518   2.167   0.515   5.077  0.4975  1.4527  0.5497
    3MOL   H275 2519   2.107   0.708   4.960 -1.9037 -0.7119 -1.0007
    3MOL   H276 2520   2.137   0.744   5.133  0.6181  0.9071 -1.8900
    3MOL   H277 2521   1.948   0.876   5.120 -0.2879  0.4431  0.0182
    3MOL   H278 2522   1.880   0.725   5.152  1.7398 -0.5720  2.4695
    3MOL   H279 2523   1.807   0.702   4.931 -0.4239  0.5026 -2.4512
    3MOL   H280 2524   1.902   0.829   4.863 -0.1687 -2.9086 -1.2425
    3MOL   H281 2525   1.667   0.866   5.028 -0.1213  0.9691 -0.1082
    3MOL   C282 2526   1.741   1.023   4.920 -0.2899  0.3279  0.5405
    3MOL   O283 2527   1.837   1.069   4.852 -0.1913  0.2704  0.0298
    3MOL   C284 2528   1.613   1.112   4.944 -0.1961  0.3577  0.4465
    3MOL   C285 2529   1.577   1.221   4.841  0.1603  0.1235  0.3462
    3MOL   C286 2530   1.459   1.178   4.753 -0.1887  0.3793 -0.4382
    3MOL   C287 2531   1.474   1.043   4.677 -0.1013 -0.2674 -0.2008
    3MOL   C288 2532   1.343   1.012   4.602  0.3337  0.8094  0.2539
    3MOL   C289 2533   1.358   0.883   4.514  0.6211  0.0725  0.5878
    3MOL   C290 2534   1.230   0.848   4.427 -0.2661 -0.8043 -0.0610
    3MOL   C291 2535   1.260   0.739   4.322  0.4247 -0.1242  0.8281
    3MOL   C292 2536   1.303   0.607   4.381 -0.6984 -0.1178 -0.0527
    3MOL   C293 2537   1.368   0.514   4.282  0.5026 -0.3491 -0.0483
    3MOL   C294 2538   1.495   0.562   4.210  0.3586  0.1698 -0.3399
    3MOL   O295 2539   1.544   0.671   4.239  0.3679  0.0051 -0.1520
    3MOL   N296 2540   1.557   0.476   4.132  0.3985  0.5344  0.1199
    3MOL   C297 2541   1.684   0.503   4.066 -0.2159  0.2288 -0.1291
    3MOL   C298 2542   1.677   0.615   3.963  0.3092 -0.2796  0.5535
    3MOL   C299 2543   1.810   0.632   3.891  0.2395  0.4900  0.7547
    3MOL   C300 2544   1.805   0.741   3.784 -0.0023  0.4624  1.0628
    3MOL   C301 2545   1.811   0.689   3.645 -0.2589  0.1000 -0.2705
    3MOL   C302 2546   1.826   0.788   3.541 -0.1194 -0.0247  0.5761
    3MOL   N303 2547   1.954   0.852   3.557  0.4827  0.4872  0.3960
    3MOL   H304 2548   1.524   1.051   4.963  0.9201 -1.1743  0.8734
    3MOL   H305 2549   1.624   1.171   5.035 -0.0216 -0.8915  1.2524
    3MOL   H306 2550   1.662   1.242   4.776  1.1105 -1.3738  1.0742
    3MOL   H307 2551   1.558   1.314   4.895 -0.7533 -0.1657  0.5232
    3MOL   H308 2552   1.374   1.179   4.822  0.8881  0.2908  0.8965
    3MOL   H309 2553   1.445   1.258   4.679  1.7992  0.9184 -0.2568
    3MOL   H310 2554   1.494   0.973   4.758 -0.4514 -0.8190 -0.5940
    3MOL   H311 2555   1.553   1.033   4.603 -1.2262  2.5157 -1.8455
    3MOL   H312 2556   1.270   0.994   4.681 -0.7112 -0.2767 -0.9281
    3MOL   H313 2557   1.290   1.092   4.549 -1.3329  0.6415  1.6440
    3MOL   H314 2558   1.442   0.894   4.446 -0.5919  1.5884 -0.7157
    3MOL   H315 2559   1.385   0.804   4.584 -0.0132  1.2775  2.2304
    3MOL   H316 2560   1.191   0.937   4.377  0.9952  0.9428  1.9217
    3MOL   H317 2561   1.157   0.808   4.497 -0.1520 -0.7345  0.0982
    3MOL   H318 2562   1.336   0.791   4.264 -0.5895  2.3614  1.6577
    3MOL   H319 2563   1.179   0.729   4.250  1.8314  0.9125 -0.9252
    3MOL   H320 2564   1.373   0.608   4.465  0.0703 -0.7339 -0.6786
    3MOL   H321 2565   1.218   0.548   4.417 -1.7028  0.9424 -0.6638
    3MOL   H322 2566   1.392   0.421   4.334  2.4128 -0.1565 -0.5555
    3MOL   H323 2567   1.301   0.471   4.208 -1.0618 -0.6884  1.5287
    3MOL   H324 2568   1.525   0.381   4.130 -0.0249  0.6848 -0.3035
    3MOL   H325 2569   1.718   0.405   4.035  0.1070 -0.4239  2.1880
    3MOL   H326 2570   1.757   0.530   4.143 -1.9721 -0.7956  1.9787
    3MOL   H327 2571   1.648   0.714   3.998 -1.2510  0.0286 -1.5321
    3MOL   H328 2572   1.596   0.595   3.893  1.9865 -1.1012 -1.2032
    3MOL   H329 2573   1.837   0.538   3.842 -1.2824  0.3116  0.2293
    3MOL   H330 2574   1.889   0.659   3.960  1.0018  1.0047 -0.3003
    3MOL   H331 2575   1.725   0.812   3.805  0.3115  1.4573 -0.9653
    3MOL   H332 2576   1.891   0.807   3.795 -1.4965  2.4719  1.1287
    3MOL   H333 2577   1.729   0.617   3.638  1.9561 -2.7621  2.2252
    3MOL   H334 2578   1.899   0.625   3.643 -2.0800 -2.6774  2.7864
    3MOL   H335 2579   1.837   0.739   3.444  0.0196 -2.3506  1.7356
    3MOL   H336 2580   1.750   0.865   3.531 -1.1741 -0.6429  3.5304
    3MOL   H337 2581   1.946   0.951   3.578  1.3507  0.5994  0.2493
    3MOL   C338 2582   2.074   0.812   3.509  0.4894 -0.6355  0.4657
    3MOL   O339 2583   2.094   0.711   3.449 -0.3737  0.8337  0.2957
    3MOL   C340 2584   2.183   0.916   3.527  0.8802 -0.8078  0.4735
    3MOL   C341 2585   2.320   0.853   3.546 -0.1551  0.5655 -0.3902
    3MOL   C342 2586   2.430   0.956   3.575  0.5635  0.1528 -0.0451
    3MOL   C343 2587   2.578   0.916   3.555 -0.1327 -0.8130 -0.2266
    3MOL   C344 2588   2.674   1.037   3.558 -0.4939  0.0194 -0.8088
    3MOL   C345 2589   2.822   1.009   3.538 -0.2850 -0.8557 -0.7559
    3MOL   C346 2590   2.921   1.123   3.539 -0.2027 -0.0406  0.4049
    3MOL   C347 2591   3.052   1.098   3.463 -0.0092 -0.8413  0.2791
    3MOL   C348 2592   3.039   1.068   3.317  0.6741 -1.0671  0.4193
    3MOL   C349 2593   3.179   1.069   3.267 -0.1122  0.6987 -0.8517
    3MOL   C350 2594   3.206   1.128   3.130  0.7302 -0.2146 -0.3224
    3MOL   O351 2595   3.117   1.114   3.044 -0.0844 -0.2016  0.0311
    3MOL   N352 2596   3.311   1.203   3.115  0.1363  0.1540  0.2037
    3MOL   C353 2597   3.354   1.282   3.001  0.0377  0.2177  0.4144
    3MOL   C354 2598   3.302   1.428   3.018 -0.5468  0.5362 -0.0405
    3MOL   C355 2599   3.152   1.461   3.007 -0.5938  0.8299 -0.1126
    3MOL   C356 2600   3.113   1.597   3.038  0.2721 -0.1123  0.2326
    3MOL   C357 2601   2.959   1.607   3.054 -0.4060  0.1339  0.0817
    3MOL   C358 2602   2.918   1.745   3.115  0.3283 -0.5392 -0.0061
    3MOL   N359 2603   2.773   1.768   3.116  0.0398 -0.0662 -0.6380
    3MOL   H360 2604   2.166   0.988   3.606 -0.4288 -1.4957  0.8260
    3MOL   H361 2605   2.190   0.973   3.434  2.8704  1.8119  2.1516
    3MOL   H362 2606   2.315   0.788   3.633  2.1434  0.8915  0.0113
    3MOL   H363 2607   2.356   0.797   3.460  0.5188  1.2796 -0.5753
    3MOL   H364 2608   2.414   1.000   3.674 -4.7350 -1.9721  0.1788
    3MOL   H365 2609   2.408   1.038   3.507 -3.1243 -1.3343 -0.7393
    3MOL   H366 2610   2.596   0.839   3.631  1.5275  1.7605  2.0812
    3MOL   H367 2611   2.589   0.873   3.456  1.7370  0.0731 -0.4140
    3MOL   H368 2612   2.644   1.111   3.484  0.3926 -0.7700 -1.9829
    3MOL   H369 2613   2.666   1.086   3.655  0.3509  0.5687 -1.0116
    3MOL   H370 2614   2.854   0.938   3.614 -2.8404 -0.1674  1.0244
    3MOL   H371 2615   2.820   0.961   3.440  0.8714 -0.9680 -0.7321
    3MOL   H372 2616   2.866   1.207   3.498 -1.3074 -0.5832  0.7619
    3MOL   H373 2617   2.931   1.154   3.643  4.0042  2.8152 -0.7346
    3MOL   H374 2618   3.111   1.186   3.488 -0.1013 -0.8414  0.5031
    3MOL   H375 2619   3.112   1.023   3.514  0.2668 -2.2108 -2.0096
    3MOL   H376 2620   2.985   1.154   3.277 -1.5884 -1.5612  2.2936
    3MOL   H377 2621   2.970   0.987   3.290 -2.7480  1.1784  2.0078
    3MOL   H378 2622   3.259   1.108   3.331 -1.0089  1.7416 -0.3620
    3MOL   H379 2623   3.203   0.963   3.253 -0.3433  0.4906  0.2945
    3MOL   H380 2624   3.386   1.201   3.182 -0.0545  0.7009  0.4407
    3MOL   H381 2625   3.319   1.237   2.909  0.1823 -0.6075  0.7585
    3MOL   H382 2626   3.462   1.278   3.010 -0.0086 -2.0834  0.3863
    3MOL   H383 2627   3.355   1.504   2.962 -0.3301 -0.7424 -1.6201
    3MOL   H384 2628   3.340   1.451   3.118  0.6734  1.5457 -0.7395
    3MOL   H385 2629   3.123   1.430   2.907 -0.1446 -1.6892  0.4842
    3MOL   H386 2630   3.096   1.392   3.071  1.6069  0.6681  1.6925
    3MOL   H387 2631   3.163   1.630   3.129  0.5696  0.7979 -0.2616
    3MOL   H388 2632   3.145   1.668   2.962 -0.3022 -0.7504 -0.6041
    3MOL   H389 2633   2.924   1.517   3.104 -0.2967  0.5601  0.9197
    3MOL   H390 2634   2.914   1.614   2.955  1.9376  0.7284 -0.9757
    3MOL   H391 2635   2.961   1.758   3.214  2.7153  0.9566 -1.2019
    3MOL   H392 2636   2.956   1.825   3.052 -1.1046 -0.4409 -0.7772
    3MOL   H393 2637   2.730   1.787   3.027  0.1050 -0.2853 -0.7174
    3MOL   C394 2638   2.692   1.733   3.220 -0.1045  0.8663  0.0066
    3MOL   O395 2639   2.728   1.698   3.333  0.2858 -0.0660 -0.3627
    3MOL   C396 2640   2.544   1.749   3.191 -0.1205  0.0547  0.0507
    3MOL   C397 2641   2.479   1.615   3.145  0.4066 -0.7512 -0.3345
    3MOL   C398 2642   2.330   1.625   3.148 -0.4636  0.1116 -0.5489
    3MOL   C399 2643   2.281   1.728   3.059 -0.1527 -0.1698 -0.2206
    3MOL   C400 2644   2.128   1.747   3.060  0.1749 -0.2741  0.1854
    3MOL   C401 2645   2.061   1.625   2.995  0.5181 -0.0437 -0.0324
    3MOL   C402 2646   1.910   1.631   2.994 -0.5233  0.2353 -0.5789
    3MOL   C403 2647   1.827   1.524   2.937 -0.1388  0.0698 -0.1295
    3MOL   C404 2648   1.684   1.570   2.923  0.5522  0.2354  0.3796
    3MOL   C405 2649   1.612   1.613   3.050 -0.5003  0.2014 -0.7370
    3MOL   C406 2650   1.464   1.582   3.053  0.0709 -0.2414 -0.6307
    3MOL   O407 2651   1.395   1.580   2.952 -0.1581 -0.0768 -0.0385
    3MOL   N408 2652   1.407   1.582   3.174 -0.3635 -0.0184  0.2740
    3MOL   C409 2653   1.268   1.555   3.201 -0.0973  0.0720 -0.0976
    3MOL   C410 2654   1.231   1.555   3.349  0.4606 -0.7046  0.1588
    3MOL   C411 2655   1.288   1.435   3.428 -0.6527  0.6261 -0.1982
    3MOL   C412 2656   1.269   1.443   3.583 -0.0259 -0.7563 -0.2947
    3MOL   C413 2657   1.260   1.307   3.654  0.0102 -0.6848 -0.7919
    3MOL   C414 2658   1.218   1.308   3.795 -0.6320  0.5427 -1.2627
    3MOL   N415 2659   1.232   1.183   3.869  0.6324 -0.3369  0.4726
    3MOL   H416 2660   2.533   1.825   3.114  2.0582  0.3939  0.0373
    3MOL   H417 2661   2.489   1.793   3.273  1.5579  0.4930  0.9675
    3MOL   H418 2662   2.512   1.539   3.215  1.7047 -0.8380 -1.0433
    3MOL   H419 2663   2.498   1.578   3.044 -1.1327 -0.7310 -0.6471
    3MOL   H420 2664   2.279   1.636   3.244  0.1934  1.3875 -0.3352
    3MOL   H421 2665   2.301   1.528   3.109 -0.4772  1.1308 -3.1351
    3MOL   H422 2666   2.299   1.696   2.957 -0.3232 -0.1872 -0.2453
    3MOL   H423 2667   2.338   1.819   3.078 -1.0794 -0.4544  4.5168
    3MOL   H424 2668   2.091   1.765   3.161  1.0175 -1.2169  0.6649
    3MOL   H425 2669   2.098   1.830   2.996 -0.8771 -1.6297 -1.1185
    3MOL   H426 2670   2.078   1.610   2.888  1.7938  2.9553 -0.3019
    3MOL   H427 2671   2.077   1.541   3.062 -0.4611  0.7262  1.1789
    3MOL   H428 2672   1.884   1.641   3.100  0.1946  1.0140 -0.4703
    3MOL   H429 2673   1.874   1.726   2.954  1.4908  1.0678 -0.4416
    3MOL   H430 2674   1.857   1.508   2.834  0.4262  0.5997 -0.0542
    3MOL   H431 2675   1.834   1.434   2.999 -1.7982  1.6738  2.4952
    3MOL   H432 2676   1.620   1.489   2.887 -0.6929  1.0766  0.6611
    3MOL   H433 2677   1.686   1.658   2.858  0.1757  2.2213  2.9936
    3MOL   H434 2678   1.664   1.570   3.137 -1.1406  0.1569 -0.3764
    3MOL   H435 2679   1.629   1.720   3.056  1.5902 -0.1928  1.5464
    3MOL   H436 2680   1.457   1.616   3.255  1.5643 -1.4086 -0.3156
    3MOL   H437 2681   1.228   1.466   3.152  2.2997 -1.9681  1.4585
    3MOL   H438 2682   1.224   1.644   3.157  0.5112  0.4820  0.1131
    3MOL   H439 2683   1.124   1.536   3.347  0.6348 -1.7312 -3.9137
    3MOL   H440 2684   1.261   1.647   3.400 -2.9811  0.2239  0.6473
    3MOL   H441 2685   1.243   1.345   3.386 -0.7412  0.9741 -0.8710
    3MOL   H442 2686   1.395   1.415   3.415 -0.8560 -2.5324  2.2689
    3MOL   H443 2687   1.338   1.512   3.631 -1.4753 -0.9576  2.1730
    3MOL   H444 2688   1.171   1.489   3.593 -0.7027 -2.2407 -0.0531
    3MOL   H445 2689   1.184   1.250   3.601 -0.4598  0.3649 -1.2546
    3MOL   H446 2690   1.361   1.264   3.650 -0.1274 -1.0064 -0.8406
    3MOL   H447 2691   1.269   1.389   3.849  1.3045 -0.6678 -1.2332
    3MOL   H448 2692   1.111   1.327   3.799 -1.1923 -2.7497  1.5292
    3MOL   H449 2693   1.150   1.133   3.900  1.2283  0.0298  2.7566
    3MOL   C450 2694   1.344   1.121   3.907 -0.0037  0.0070 -0.4730
    3MOL   O451 2695   1.455   1.171   3.879  0.1123  0.7586 -0.3761
    3MOL   C452 2696   1.341   0.992   3.995 -0.1080  0.1215 -0.0430
    3MOL   C453 2697   1.384   0.869   3.915 -0.4546 -0.6136 -0.2735
    3MOL   C454 2698   1.281   0.819   3.808  1.1733 -0.1124 -0.6200
    3MOL   C455 2699   1.306   0.682   3.750  0.4287 -0.3215  0.8518
    3MOL   C456 2700   1.181   0.630   3.675  0.0663 -0.1775  0.5840
    3MOL   C457 2701   1.137   0.712   3.549  0.0768 -0.0353 -0.1742
    3MOL   C458 2702   1.000   0.683   3.488  0.1389  0.1339 -0.5489
    3MOL   C459 2703   1.002   0.547   3.410  0.7201 -0.1026 -0.4131
    3MOL   C460 2704   0.940   0.430   3.482  1.0119  0.2247 -0.7546
    3MOL   C461 2705   0.931   0.295   3.405 -0.9346 -0.0808  0.4132
    3MOL   C462 2706   1.063   0.218   3.389 -0.1992  0.8655  0.0088
    3MOL   O463 2707   1.122   0.182   3.490  0.6652 -0.0497 -0.0755
    3MOL   N464 2708   1.097   0.183   3.268  0.2675 -0.0031  0.4271
    3MOL   C465 2709   1.224   0.120   3.236 -0.1820  0.6138 -0.4925
    3MOL   C466 2710   1.302   0.172   3.108 -0.0654  0.1845 -0.7187
    3MOL   C467 2711   1.422   0.080   3.079  0.0806 -0.0229  0.0089
    3MOL   C468 2712   1.544   0.162   3.023  0.2128 -0.6054 -0.2246
    3MOL   C469 2713   1.672   0.074   2.985 -0.4654 -0.2508  0.6300
    3MOL   C470 2714   1.638   0.000   2.852 -0.5457 -0.3017 -0.0773
    3MOL   N471 2715   1.739   7.589   2.830  0.0763  0.4524  0.2880
    3MOL   H472 2716   1.420   1.000   4.070 -1.1910  1.9433  0.9407
    3MOL   H473 2717   1.260   0.980   4.067  0.8971 -1.0897  0.9139
    3MOL   H474 2718   1.394   0.783   3.982  0.6497  0.5942  1.1476
    3MOL   H475 2719   1.478   0.896   3.867 -1.3719  1.4590 -0.9491
    3MOL   H476 2720   1.258   0.900   3.739 -0.8317  0.4568  0.6761
    3MOL   H477 2721   1.186   0.812   3.861  0.6764  3.2934 -0.9141
    3MOL   H478 2722   1.328   0.614   3.832 -3.1617 -1.2492  1.1294
    3MOL   H479 2723   1.400   0.686   3.695 -1.6369  0.9038 -2.7591
    3MOL   H480 2724   1.097   0.628   3.745  0.3026 -1.7919  0.8412
    3MOL   H481 2725   1.212   0.537   3.628  1.3097  1.5945 -2.2352
    3MOL   H482 2726   1.219   0.709   3.478  0.3852  2.9288 -0.0234
    3MOL   H483 2727   1.132   0.819   3.571 -1.5916  0.2454 -1.7983
    3MOL   H484 2728   0.920   0.691   3.562  0.3307  2.4909 -0.5586
    3MOL   H485 2729   0.966   0.764   3.423 -3.1307  2.7987  4.1292
    3MOL   H486 2730   0.952   0.564   3.315 -0.8198  0.2616  0.4396
    3MOL   H487 2731   1.107   0.522   3.392  0.9568  1.2592 -1.0195
    3MOL   H488 2732   0.843   0.466   3.515  1.6042  1.7932 -0.6801
    3MOL   H489 2733   0.990   0.413   3.577 -0.5943 -0.4820 -0.0163
    3MOL   H490 2734   0.862   0.222   3.448  0.0370 -1.1613  0.1630
    3MOL   H491 2735   0.889   0.315   3.306  1.2701 -1.5137 -0.8524
    3MOL   H492 2736   1.040   0.212   3.190 -1.1154  0.9318  1.7668
    3MOL   H493 2737   1.186   0.020   3.218 -0.6352  0.5587  0.7296
    3MOL   H494 2738   1.283   0.104   3.326  0.4676 -1.9597 -1.3366
    3MOL   H495 2739   1.240   0.177   3.018  0.5882 -0.0762 -1.1826
    3MOL   H496 2740   1.324   0.277   3.127  1.0349 -0.0013 -0.9216
    3MOL   H497 2741   1.402   7.687   3.013 -0.4543 -0.7349  1.0717
    3MOL   H498 2742   1.455   0.043   3.176  0.2663 -0.5757 -0.2621
    3MOL   H499 2743   1.571   0.232   3.102  1.8406  1.2076 -2.3092
    3MOL   H500 2744   1.511   0.219   2.936 -1.0894  1.4514  1.5612
    3MOL   H501 2745   1.756   0.142   2.977 -1.5650  0.9290 -1.3194
    3MOL   H502 2746   1.692   0.005   3.067  1.1532  0.7847  1.1296
    3MOL   H503 2747   1.537   7.650   2.855  0.0751 -1.7787  0.8419
    3MOL   H504 2748   1.647   0.076   2.775  0.3639  0.2334  0.5519
    3MOL   H505 2749   1.824   7.594   2.883  1.4781  0.5196 -1.9005
    3MOL   C506 2750   1.707   7.481   2.752  0.4835 -0.2324 -0.2500
    3MOL   O507 2751   1.602   7.468   2.690 -0.1540  0.0909 -0.5115
    3MOL   C508 2752   1.815   7.367   2.751 -1.0733 -0.5772  1.0001
    3MOL   C509 2753   1.777   7.246   2.847 -0.7191  0.1775  0.0999
    3MOL   C510 2754   1.737   7.299   2.986  0.1146  0.9287  0.3985
    3MOL   C511 2755   1.692   7.182   3.070 -0.5507 -0.0713  0.3575
    3MOL   C512 2756   1.822   7.134   3.149  0.1756  0.2810  0.8132
    3MOL   C513 2757   1.793   7.028   3.262  0.4899 -0.2133 -0.1869
    3MOL   C514 2758   1.698   7.088   3.375  0.3490 -0.5603  0.5823
    3MOL   C515 2759   1.676   6.992   3.494  0.2571  0.5469  0.1235
    3MOL   C516 2760   1.570   7.044   3.596  0.6912 -0.5817  0.4766
    3MOL   C517 2761   1.424   7.035   3.524 -0.1717  0.4712 -0.2799
    3MOL   C518 2762   1.301   7.030   3.610 -0.2931 -0.5958 -0.0415
    3MOL   O519 2763   1.295   6.944   3.701 -0.1790  0.0804 -0.0273
    3MOL   N520 2764   1.212   7.131   3.596 -0.1156 -0.2313 -0.1448
    3MOL   C521 2765   1.110   7.150   3.700  0.8167  0.6925  0.6368
    3MOL   C522 2766   1.159   7.247   3.816  0.2018 -0.1088 -0.5789
    3MOL   C523 2767   1.045   7.258   3.922 -0.4060  0.1987  0.3829
    3MOL   C524 2768   1.079   7.349   4.041 -0.3627  0.0002  0.4688
    3MOL   C525 2769   1.175   7.276   4.139  0.1814 -0.1645 -0.7278
    3MOL   C526 2770   1.207   7.349   4.271  0.3870 -0.1897 -1.3306
    3MOL   N527 2771   1.294   7.276   4.356 -0.6024  0.2444 -0.2532
    3MOL   H528 2772   1.917   7.396   2.776  0.2452 -0.5137 -3.8688
    3MOL   H529 2773   1.829   7.326   2.650 -2.4552 -0.0507  0.5778
    3MOL   H530 2774   1.849   7.165   2.861  0.4439  1.3847  1.2216
    3MOL   H531 2775   1.691   7.191   2.809 -0.8717  0.2352  0.3586
    3MOL   H532 2776   1.648   7.360   2.978 -0.7754 -0.7156 -3.5024
    3MOL   H533 2777   1.815   7.357   3.035  1.1064 -1.8840  2.3025
    3MOL   H534 2778   1.608   7.214   3.131 -0.5795 -0.6879  0.6501
    3MOL   H535 2779   1.657   7.104   3.003  1.5304 -0.6936 -0.0632
    3MOL   H536 2780   1.893   7.098   3.075 -1.6710 -1.0966 -0.3408
    3MOL   H537 2781   1.857   7.227   3.193  2.7804  0.1073 -0.8123
    3MOL   H538 2782   1.753   6.933   3.226  0.3213 -0.4223  0.5313
    3MOL   H539 2783   1.883   7.007   3.320 -0.3088 -1.8468  0.5026
    3MOL   H540 2784   1.749   7.173   3.421 -0.2687 -0.3966  0.9748
    3MOL   H541 2785   1.608   7.114   3.319  1.7153 -1.0855 -1.9471
    3MOL   H542 2786   1.645   6.897   3.451 -0.6129  0.6166  0.5817
    3MOL   H543 2787   1.769   7.002   3.550  0.6781 -0.2468 -0.4280
    3MOL   H544 2788   1.588   7.141   3.642 -1.0343 -0.0373  0.0460
    3MOL   H545 2789   1.568   6.971   3.676  0.1032 -2.5098 -1.2545
    3MOL   H546 2790   1.422   7.123   3.460 -0.0153 -1.0097 -2.3705
    3MOL   H547 2791   1.417   6.949   3.457 -1.2312 -1.5209  2.2790
    3MOL   H548 2792   1.222   7.201   3.524  1.1257 -1.8946 -1.6298
    3MOL   H549 2793   1.088   7.055   3.747 -2.7955  0.2050 -1.9005
    3MOL   H550 2794   1.020   7.180   3.647  0.6177  1.1924  1.2533
    3MOL   H551 2795   1.172   7.347   3.776  0.9007  0.0148 -0.0505
    3MOL   H552 2796   1.249   7.226   3.873  1.7350  3.9304 -1.3704
    3MOL   H553 2797   1.018   7.168   3.978  1.9246 -0.0930  1.1095
    3MOL   H554 2798   0.953   7.292   3.874 -1.0781  0.9357  2.1425
    3MOL   H555 2799   0.980   7.365   4.084 -1.8620 -1.8690 -2.1967
    3MOL   H556 2800   1.118   7.446   4.009 -0.1849  0.4481  1.9928
    3MOL   H557 2801   1.132   7.176   4.147  0.2151 -0.1007  0.2853
    3MOL   H558 2802   1.273   7.277   4.092  0.4169  1.2082 -0.2203
    3MOL   H559 2803   1.240   7.450   4.250  2.1636 -0.6015 -0.5788
    3MOL   H560 2804   1.111   7.353   4.324  0.5097 -2.0215 -0.9098
    3MOL   H561 2805   1.272   7.178   4.366 -1.2933  0.3332 -0.8748
    3MOL   C562 2806   1.412   7.323   4.405 -0.1442  0.2101 -0.0525
    3MOL   O563 2807   1.450   7.437   4.380  0.5000  0.3792  0.5384
    3MOL   C564 2808   1.487   7.230   4.505  0.3185 -0.0567  0.0426
    3MOL   C565 2809   1.631   7.264   4.515 -0.0798  0.3846  0.1446
    3MOL   C566 2810   1.715   7.159   4.598  0.3854 -0.5533  0.4514
    3MOL   C567 2811   1.654   7.118   4.731  0.6248  0.0633 -0.2330
    3MOL   C568 2812   1.752   7.018   4.798 -0.1995  0.0514  0.3870
    3MOL   C569 2813   1.694   6.928   4.907  0.2212  0.2497  0.4524
    3MOL   C570 2814   1.802   6.844   4.981  0.3216  0.2960 -0.2215
    3MOL   C571 2815   1.861   6.901   5.108  0.2150 -0.3688 -0.0033
    3MOL   C572 2816   1.763   6.917   5.221 -0.3888  0.0730 -0.3072
    3MOL   C573 2817   1.813   7.014   5.335 -0.6988 -0.3698  0.4215
    3MOL   C574 2818   1.736   7.149   5.343 -0.2925  0.3996  0.0720
    3MOL   O575 2819   1.625   7.160   5.395  0.4117  0.5409 -0.4730
    3MOL   N576 2820   1.796   7.246   5.272 -0.2046 -0.4751 -0.0622
    3MOL   C577 2821   1.722   7.365   5.222  0.5352  0.5846  0.5087
    3MOL   C578 2822   1.632   7.327   5.108  0.5642  0.2341 -0.5566
    3MOL   C579 2823   1.542   7.439   5.053 -0.7437 -0.3316  0.5553
    3MOL   C580 2824   1.439   7.490   5.151  0.1685 -0.2739  0.4656
    3MOL   C581 2825   1.345   7.378   5.192  0.3446  0.4351  0.0181
    3MOL   C582 2826   1.235   7.443   5.279 -0.5744  0.8285  0.2754
    3MOL   N583 2827   1.135   7.339   5.311 -0.2398 -0.0027 -0.0116
    3MOL   H584 2828   1.438   7.263   4.596  1.4506 -2.4188  1.5572
    3MOL   H585 2829   1.451   7.128   4.495  1.5875 -0.4248 -0.9704
    3MOL   H586 2830   1.671   7.263   4.413 -0.1883  0.2194  0.1033
    3MOL   H587 2831   1.648   7.362   4.560 -0.5866  0.7393 -0.4443
    3MOL   H588 2832   1.811   7.206   4.618 -0.5442  2.8372 -2.6317
    3MOL   H589 2833   1.731   7.072   4.535 -1.3652  0.5017 -1.4954
    3MOL   H590 2834   1.623   7.199   4.797 -0.3402  0.0254 -0.6268
    3MOL   H591 2835   1.560   7.065   4.717  0.0318  1.1012 -0.2530
    3MOL   H592 2836   1.798   6.956   4.721 -2.5768  0.1493 -1.1413
    3MOL   H593 2837   1.833   7.082   4.832  0.9354 -0.7340 -0.7709
    3MOL   H594 2838   1.626   6.986   4.969  0.3427  0.2387  0.5966
    3MOL   H595 2839   1.628   6.855   4.861 -1.0367  0.9894  1.0609
    3MOL   H596 2840   1.755   6.753   5.019 -0.3279  0.3474 -0.8918
    3MOL   H597 2841   1.874   6.809   4.907  0.7636  1.0432 -0.1474
    3MOL   H598 2842   1.905   6.998   5.086 -1.2168  0.4393  0.6103
    3MOL   H599 2843   1.940   6.833   5.138 -0.7650 -2.0590 -1.1606
    3MOL   H600 2844   1.768   6.818   5.266 -0.0606 -0.1606 -0.8495
    3MOL   H601 2845   1.668   6.947   5.177 -1.0553 -0.4755  0.7399
    3MOL   H602 2846   1.822   6.975   5.436  1.9381  1.3887  0.9128
    3MOL   H603 2847   1.914   7.044   5.308 -1.0803  0.9546  0.4423
    3MOL   H604 2848   1.887   7.235   5.230  0.8904  0.0580  2.0458
    3MOL   H605 2849   1.797   7.438   5.190  0.4609  0.3423 -0.2277
    3MOL   H606 2850   1.665   7.408   5.304  0.5897  0.2238  0.7353
    3MOL   H607 2851   1.568   7.239   5.115  0.9055  0.0365  0.0434
    3MOL   H608 2852   1.695   7.294   5.026 -0.3794  0.0947 -1.2403
    3MOL   H609 2853   1.497   7.412   4.958 -0.4712 -0.9530  0.5971
    3MOL   H610 2854   1.596   7.529   5.024 -1.5110 -0.2980 -0.7753
    3MOL   H611 2855   1.478   7.518   5.248 -0.2601  0.5950  0.3938
    3MOL   H612 2856   1.391   7.582   5.116  0.3588 -0.4427 -0.2627
    3MOL   H613 2857   1.404   7.302   5.243  2.4414  2.1292  0.1621
    3MOL   H614 2858   1.311   7.316   5.108  1.9441 -0.7161  0.1995
    3MOL   H615 2859   1.269   7.496   5.369 -0.5774  0.4363  0.5069
    3MOL   H616 2860   1.189   7.515   5.211 -1.2918 -0.4120 -0.5585
    3MOL   H617 2861   1.119   7.265   5.245  1.8301  0.5299 -1.1520
    3MOL   C618 2862   1.070   7.326   5.429 -0.2241 -0.5209  0.2797
    3MOL   O619 2863   1.084   7.412   5.508  0.2816 -0.5004 -0.0176
    3MOL   C620 2864   0.978   7.207   5.463 -0.2469  0.2332  0.2852
    3MOL   C621 2865   0.966   7.174   5.617 -0.2942 -0.2122 -1.0782
    3MOL   C622 2866   1.090   7.103   5.679 -0.4100  0.1044  0.0412
    3MOL   C623 2867   1.085   7.097   5.829  0.7451 -0.4020 -0.2992
    3MOL   C624 2868   1.231   7.067   5.873  0.5098 -0.4824 -0.3544
    3MOL   C625 2869   1.255   7.078   6.021 -0.0812 -0.1754  0.2119
    3MOL   C626 2870   1.396   7.036   6.064  0.6430  0.3529  0.5639
    3MOL   C627 2871   1.435   7.042   6.210  0.2830 -0.0302  0.4334
    3MOL   C628 2872   1.357   6.939   6.292 -0.1528  0.2543  1.2860
    3MOL   C629 2873   1.387   6.935   6.444  0.0260 -0.2629 -0.1520
    3MOL   C630 2874   1.343   7.062   6.518 -0.3189  0.2209 -0.5390
    3MOL   O631 2875   1.278   7.155   6.468  0.1852  0.6755  0.3028
    3MOL   N632 2876   1.367   7.050   6.649 -0.1311  0.3793  0.1096
    3MOL   C633 2877   1.343   7.148   6.758 -0.4462 -0.0413  0.2902
    3MOL   C634 2878   1.226   7.108   6.851 -0.4126  0.3708  0.0586
    3MOL   C635 2879   1.087   7.157   6.802  0.3933  0.1676 -0.3440
    3MOL   C636 2880   1.013   7.045   6.721 -1.0900 -0.1570  0.0525
    3MOL   C637 2881   0.873   7.081   6.686 -0.3356 -0.3873  0.8007
    3MOL   C638 2882   0.800   6.980   6.604  0.4232  0.1350 -0.4954
    3MOL   N639 2883   0.790   6.847   6.666  0.0484 -0.7940 -0.5893
    3MOL   H640 2884   1.019   7.123   5.407  0.0150  0.9595 -0.6382
    3MOL   H641 2885   0.875   7.222   5.430  0.9155  1.3045 -3.1321
    3MOL   H642 2886   0.879   7.114   5.642  0.7821 -1.1009  0.6114
    3MOL   H643 2887   0.946   7.271   5.662  0.4589 -0.4312 -0.2562
    3MOL   H644 2888   1.181   7.147   5.639 -0.2487 -0.2664 -0.0014
    3MOL   H645 2889   1.098   7.000   5.644  0.6510  0.3121 -0.3507
    3MOL   H646 2890   1.042   7.191   5.866 -0.3148 -0.2469 -1.9033
    3MOL   H647 2891   1.021   7.016   5.863 -0.3708  0.2458 -0.8150
    3MOL   H648 2892   1.249   6.964   5.840 -0.4214 -0.5195 -0.7629
    3MOL   H649 2893   1.304   7.125   5.817 -0.7903  1.4569 -0.0963
    3MOL   H650 2894   1.190   7.006   6.072 -0.1491  0.1616  0.6004
    3MOL   H651 2895   1.227   7.180   6.045 -2.2087 -0.6988  0.1521
    3MOL   H652 2896   1.400   6.932   6.029  1.8725  1.1407 -1.7707
    3MOL   H653 2897   1.467   7.096   6.008  1.5101  0.0042  1.2818
    3MOL   H654 2898   1.538   7.014   6.232  0.4559 -0.4412 -0.8414
    3MOL   H655 2899   1.428   7.142   6.252 -1.9064 -0.0228  0.1075
    3MOL   H656 2900   1.364   6.841   6.244 -2.7519  1.7673 -2.4122
    3MOL   H657 2901   1.254   6.972   6.278 -0.0767  0.1428  0.4295
    3MOL   H658 2902   1.335   6.853   6.495 -2.0169  1.4486  0.5797
    3MOL   H659 2903   1.494   6.920   6.456 -0.0232  0.5469  1.2874
    3MOL   H660 2904   1.425   6.976   6.685 -1.0372 -0.1409  0.5139
    3MOL   H661 2905   1.433   7.149   6.819  0.5619 -2.8289 -1.0878
    3MOL   H662 2906   1.326   7.250   6.723  0.6374  0.5512  1.4573
    3MOL   H663 2907   1.244   7.148   6.950  3.3676  2.4820 -1.4155
    3MOL   H664 2908   1.218   7.000   6.863  0.3080  0.5284  2.0914
    3MOL   H665 2909   1.027   7.179   6.890 -0.7902  1.1817 -1.3954
    3MOL   H666 2910   1.091   7.251   6.747  0.6727  0.6812  0.5483
    3MOL   H667 2911   1.019   6.953   6.780 -0.1335 -0.3539 -0.3384
    3MOL   H668 2912   1.062   7.012   6.629 -0.5313 -1.2674  0.7307
    3MOL   H669 2913   0.826   7.109   6.780 -1.3133  0.9059 -0.0484
    3MOL   H670 2914   0.877   7.172   6.626 -2.3676 -1.7421 -1.4858
    3MOL   H671 2915   0.699   7.019   6.588 -0.5250 -0.6518  3.1136
    3MOL   H672 2916   0.842   6.971   6.504 -0.6377 -0.5265 -0.8973
    3MOL   H673 2917   0.722   6.825   6.737  0.0012  0.7027 -0.1681
    3MOL   C674 2918   0.863   6.746   6.619 -0.6162  0.0795 -0.0160
    3MOL   O675 2919   0.953   6.756   6.534  0.4670 -0.6053  0.1054
    3MOL   C676 2920   0.821   6.611   6.679  0.0098  0.2346 -0.0770
    3MOL   C677 2921   0.835   6.490   6.590 -0.3260  0.7268 -0.1948
    3MOL   C678 2922   0.739   6.500   6.468 -0.3637 -0.0603  0.3575
    3MOL   C679 2923   0.757   6.379   6.373  0.6446 -0.1550  0.6416
    3MOL   C680 2924   0.686   6.369   6.240  0.1210  0.5381  0.2598
    3MOL   C681 2925   0.546   6.432   6.245 -0.0618 -0.0931  0.8179
    3MOL   C682 2926   0.486   6.449   6.099  1.1051  0.2756 -0.0739
    3MOL   C683 2927   0.341   6.506   6.092  0.2318 -0.2166 -0.4109
    3MOL   C684 2928   0.232   6.398   6.104 -0.2836  0.7943  0.2904
    3MOL   C685 2929   0.099   6.443   6.037  0.0060 -0.2031 -0.1339
    3MOL   C686 2930   0.021   6.546   6.109 -0.2131 -0.1613 -0.8320
    3MOL   O687 2931   7.679   6.529   6.223  0.7453  0.0139 -0.1489
    3MOL   N688 2932   7.678   6.655   6.027 -0.0211  0.7421 -0.6481
    3MOL   C689 2933   7.582   6.759   6.060  0.4656  1.4233 -0.1221
    3MOL   C690 2934   7.473   6.748   5.956 -0.7393  0.0319 -0.6451
    3MOL   C691 2935   7.376   6.866   5.960 -0.2668  0.6684  0.1689
    3MOL   C692 2936   7.281   6.879   6.083 -0.3309 -0.1416  0.4652
    3MOL   C693 2937   7.181   6.992   6.061  0.4813  0.0761  0.1963
    3MOL   C694 2938   7.094   7.027   6.179  0.1379 -0.1263  0.0791
    3MOL   N695 2939   7.012   7.139   6.138 -0.2069 -0.1947  0.4316
    3MOL   H696 2940   0.716   6.629   6.702  0.1134  1.3888 -0.4742
    3MOL   H697 2941   0.871   6.590   6.773  0.9426  0.8847 -0.4227
    3MOL   H698 2942   0.809   6.402   6.649  0.9686 -0.1890 -0.9572
    3MOL   H699 2943   0.939   6.483   6.559 -0.1097  1.4106  0.3957
    3MOL   H700 2944   0.638   6.520   6.506 -0.6683  0.1829 -0.5722
    3MOL   H701 2945   0.758   6.589   6.407  0.1123  1.8441  3.1645
    3MOL   H702 2946   0.741   6.292   6.437 -0.2873 -1.2022 -0.9725
    3MOL   H703 2947   0.863   6.365   6.352 -0.2881 -3.3921 -2.2847
    3MOL   H704 2948   0.668   6.264   6.215  0.5331  0.6824 -0.6490
    3MOL   H705 2949   0.751   6.408   6.161 -2.2242  0.0661 -1.9603
    3MOL   H706 2950   0.473   6.370   6.298 -1.0553  1.2226  1.0252
    3MOL   H707 2951   0.547   6.535   6.281 -0.2626  0.4596 -0.6958
    3MOL   H708 2952   0.548   6.506   6.030 -1.5639  3.0299 -0.2825
    3MOL   H709 2953   0.474   6.351   6.054 -1.2043  0.4088  0.1938
    3MOL   H710 2954   0.336   6.585   6.168 -1.1152  0.1535 -0.8786
    3MOL   H711 2955   0.314   6.554   5.999 -0.3842  1.6315  0.6928
    3MOL   H712 2956   0.209   6.369   6.207 -0.9952 -0.4611 -0.2013
    3MOL   H713 2957   0.255   6.305   6.052 -0.2502  1.0375 -0.1306
    3MOL   H714 2958   0.116   6.465   5.931  0.1440  1.4583  0.2121
    3MOL   H715 2959   0.038   6.353   6.037 -1.1111  0.5489 -0.3983
    3MOL   H716 2960   0.015   6.641   5.931 -0.3448 -0.6928 -0.5558
    3MOL   H717 2961   7.544   6.741   6.161  1.0855  1.1621  0.0699
    3MOL   H718 2962   7.630   6.856   6.070  1.5955  1.1139 -2.4060
    3MOL   H719 2963   7.423   6.657   5.987  0.6367  0.0556  1.7693
    3MOL   H720 2964   7.512   6.735   5.855  2.2229 -2.2721  0.7235
    3MOL   H721 2965   7.428   6.961   5.957 -0.7668  0.9816  1.0693
    3MOL   H722 2966   7.315   6.867   5.869 -0.8712  2.1691  0.5722
    3MOL   H723 2967   7.340   6.902   6.172 -0.1057  1.3222 -0.0525
    3MOL   H724 2968   7.236   6.781   6.091  1.3189 -0.8948  0.8618
    3MOL   H725 2969   7.114   6.973   5.977  0.4643  0.2345  0.1741
    3MOL   H726 2970   7.234   7.082   6.030 -1.8975  0.6130 -2.4736
    3MOL   H727 2971   7.036   6.940   6.210  0.8701 -0.8669 -0.6130
    3MOL   H728 2972   7.157   7.055   6.263 -0.3516  0.3361  0.2969
    3MOL   H729 2973   7.058   7.227   6.157 -1.3684  0.5554 -0.2287
    3MOL   C730 2974   6.900   7.139   6.068 -0.0943  0.1599  0.2340
    3MOL   O731 2975   6.843   7.032   6.045  0.0787  0.1169 -0.2881
    3MOL   C732 2976   6.839   7.280   6.030 -0.5995 -0.1097  0.7980
    3MOL   C733 2977   6.924   7.334   5.909  0.1849  0.7369  0.1430
    3MOL   C734 2978   6.862   7.280   5.775 -0.3756 -0.4571  0.2833
    3MOL   C735 2979   6.915   7.151   5.716 -0.4105 -0.1670  1.3299
    3MOL   C736 2980   6.862   7.131   5.575 -0.3514 -0.4567 -0.1311
    3MOL   C737 2981   6.961   7.079   5.476 -0.3094  0.1150  1.0162
    3MOL   C738 2982   7.072   7.174   5.423 -0.5883 -0.5497  0.7030
    3MOL   C739 2983   7.171   7.102   5.331  0.2272  0.4989  0.2398
    3MOL   C740 2984   7.264   7.210   5.270  0.2658 -0.4108  0.0443
    3MOL   C741 2985   7.384   7.149   5.196  0.1124  0.8694  0.2648
    3MOL   C742 2986   7.352   7.025   5.107 -0.2441  0.9950  0.0505
    3MOL   O743 2987   7.247   7.002   5.053  0.9728 -0.0912 -0.2792
    3MOL   N744 2988   7.447   6.936   5.092  0.4263  0.4099 -0.0034
    3MOL   C745 2989   7.430   6.805   5.029 -0.1711 -0.1477 -0.2784
    3MOL   C746 2990   7.549   6.721   5.052  0.0574  0.3912 -0.3596
    3MOL   C747 2991   7.533   6.568   5.007  0.4002  0.6404  0.1336
    3MOL   C748 2992   7.528   6.477   5.136 -0.4917  0.4422  0.4597
    3MOL   C749 2993   7.548   6.324   5.098  0.1384 -0.6143 -0.6445
    3MOL   C750 2994   7.492   6.233   5.205  0.7057 -0.0161  0.1286
    3MOL   N751 2995   7.535   6.101   5.180  0.3867  0.5994 -0.1857
    3MOL   H752 2996   6.848   7.341   6.120 -0.5344  0.6709  0.2572
    3MOL   H753 2997   6.732   7.286   6.014 -1.1104  1.8339  4.3771
    3MOL   H754 2998   7.030   7.308   5.920  0.9552  2.8145 -2.0122
    3MOL   H755 2999   6.919   7.443   5.913 -1.4066  0.6297  1.5398
    3MOL   H756 3000   6.879   7.351   5.694  0.1068 -0.6717  0.1922
    3MOL   H757 3001   6.753   7.273   5.777 -0.4350 -0.1117 -1.0456
    3MOL   H758 3002   6.889   7.065   5.778  0.1248  0.8914  3.0785
    3MOL   H759 3003   7.024   7.158   5.707 -0.6516  0.2685 -1.4924
    3MOL   H760 3004   6.826   7.223   5.527 -0.7418 -1.0251 -0.9399
    3MOL   H761 3005   6.777   7.064   5.564 -0.1405 -0.6221 -0.7871
    3MOL   H762 3006   7.019   6.998   5.519  0.7193 -0.0311 -0.6099
    3MOL   H763 3007   6.912   7.031   5.392 -0.9626  0.0179  1.4495
    3MOL   H764 3008   7.024   7.260   5.377  0.2464  0.0654  0.9585
    3MOL   H765 3009   7.133   7.215   5.504 -0.3252 -1.0727  0.7731
    3MOL   H766 3010   7.228   7.025   5.382  0.6472  0.6198 -0.0445
    3MOL   H767 3011   7.109   7.063   5.250 -0.3484  2.5391 -0.3286
    3MOL   H768 3012   7.291   7.282   5.348  1.1994 -1.8325  1.0573
    3MOL   H769 3013   7.202   7.259   5.195  0.6468 -0.5011 -0.3280
    3MOL   H770 3014   7.448   7.211   5.133 -0.3068  1.9466  0.8763
    3MOL   H771 3015   7.441   7.114   5.282 -1.3827 -0.2437  0.8208
    3MOL   H772 3016   7.540   6.957   5.124 -0.0203  3.5899 -0.6905
    3MOL   H773 3017   7.402   6.829   4.926 -1.0112 -1.9696 -0.4816
    3MOL   H774 3018   7.342   6.756   5.070 -0.8606  0.8235 -0.5719
    3MOL   H775 3019   7.585   6.732   5.154  0.5706  1.2753 -0.6268
    3MOL   H776 3020   7.629   6.765   4.992 -0.3409 -0.6957 -1.7189
    3MOL   H777 3021   7.613   6.548   4.936 -0.5688  0.7517 -1.0092
    3MOL   H778 3022   7.445   6.560   4.943  0.0109  2.7614  0.3606
    3MOL   H779 3023   7.609   6.509   5.202 -0.0505 -0.0118  0.1417
    3MOL   H780 3024   7.434   6.498   5.187 -0.7582  0.4196 -0.0179
    3MOL   H781 3025   7.655   6.305   5.093  0.4299  0.9084 -0.2150
    3MOL   H782 3026   7.519   6.321   4.993 -1.4640 -0.3471 -0.2225
    3MOL   H783 3027   7.532   6.277   5.296  1.7160  2.3429 -1.3998
    3MOL   H784 3028   7.384   6.240   5.195  0.2286 -1.7926  3.5977
    3MOL   H785 3029   7.618   6.070   5.230 -0.1590  1.7976  1.5155
    3MOL   C786 3030   7.454   6.001   5.141  0.2872  0.4251 -0.2100
    3MOL   O787 3031   7.331   6.017   5.117 -0.7264 -0.1954  0.3292
    3MOL   C788 3032   7.519   5.870   5.129  0.4812  0.6279  0.1139
    3MOL   C789 3033   7.450   5.763   5.227 -0.6432 -0.3491  0.0568
    3MOL   C790 3034   7.483   5.779   5.378  0.6417 -0.0451 -0.1750
    3MOL   C791 3035   7.627   5.744   5.412  0.0962  0.3928  0.1782
    3MOL   C792 3036   7.658   5.777   5.555  0.7294 -0.2609  0.1975
    3MOL   C793 3037   7.620   5.922   5.602 -0.9804 -0.8228 -0.2799
    3MOL   C794 3038   7.685   5.963   5.732 -0.1112 -0.4871 -0.2039
    3MOL   C795 3039   0.141   6.018   5.716  0.6407  0.8106  0.1142
    3MOL   C796 3040   0.208   6.054   5.850  0.1334 -0.5298  1.0888
    3MOL   C797 3041   0.345   6.119   5.848  0.2043 -0.2530  0.0852
    3MOL   C798 3042   0.440   6.016   5.788 -0.0012 -0.0330  0.3322
    3MOL   O799 3043   0.451   5.901   5.837  0.2523 -0.3287  0.1938
    3MOL   N800 3044   0.506   6.041   5.676  0.3853  0.5489  0.7268
    3MOL   C801 3045   0.565   5.935   5.596  0.1520 -0.0672  0.1461
    3MOL   C802 3046   0.654   5.990   5.489  0.4776  0.3658 -0.2740
    3MOL   C803 3047   0.668   5.905   5.360  0.1886  0.2078  0.3066
    3MOL   C804 3048   0.749   5.978   5.248  0.9368 -0.6043 -0.1931
    3MOL   C805 3049   0.761   5.901   5.124  0.0501  0.9284  0.5724
    3MOL   C806 3050   0.854   5.987   5.027 -0.2093  0.3410 -0.3212
    3MOL   N807 3051   0.984   5.919   5.029  0.2815 -0.3671  0.2667
    3MOL   H808 3052   7.621   5.875   5.168  0.6006  1.9428 -0.3361
    3MOL   H809 3053   7.518   5.836   5.025 -0.1109 -1.6646  0.8453
    3MOL   H810 3054   7.343   5.769   5.210 -0.5979  0.8505  0.1400
    3MOL   H811 3055   7.495   5.669   5.194  0.4043 -0.2650  1.2030
    3MOL   H812 3056   7.421   5.708   5.433 -4.1333  3.1636 -1.1038
    3MOL   H813 3057   7.444   5.875   5.411  0.6826 -0.1368  0.1467
    3MOL   H814 3058   7.624   5.635   5.420  2.4831  0.3582  1.0824
    3MOL   H815 3059   0.013   5.789   5.350  1.4375 -0.0016  1.5492
    3MOL   H816 3060   7.586   5.719   5.612 -1.3625  1.1903 -0.9337
    3MOL   H817 3061   0.068   5.756   5.589  1.8817  1.7526 -1.8763
    3MOL   H818 3062   7.657   5.986   5.522  0.0467 -0.4405  0.4932
    3MOL   H819 3063   7.511   5.932   5.609 -1.2830 -1.4384 -3.2514
    3MOL   H820 3064   7.633   6.049   5.776  1.9899  0.6701  0.0753
    3MOL   H821 3065   7.675   5.877   5.798 -0.0469 -1.4854 -1.4910
    3MOL   H822 3066   0.201   5.947   5.659  1.4682  0.7349  1.0636
    3MOL   H823 3067   0.135   6.104   5.650 -1.6986 -0.2349 -1.1142
    3MOL   H824 3068   0.214   5.967   5.914  0.8444 -0.1998  1.4717
    3MOL   H825 3069   0.136   6.126   5.890 -1.2783 -1.6184  0.5538
    3MOL   H826 3070   0.341   6.212   5.791  1.4305  0.1581  0.6576
    3MOL   H827 3071   0.388   6.135   5.947 -3.9972  0.4553  1.9277
    3MOL   H828 3072   0.497   6.135   5.641 -0.9776 -0.1798 -0.9844
    3MOL   H829 3073   0.478   5.882   5.557 -1.2127  1.3636  1.1466
    3MOL   H830 3074   0.616   5.867   5.664  0.1769  0.8929  1.1051
    3MOL   H831 3075   0.757   6.003   5.521 -0.3592 -0.2058  2.8330
    3MOL   H832 3076   0.614   6.087   5.458  2.4282  2.0615  2.2836
    3MOL   H833 3077   0.719   5.809   5.375 -2.0595 -0.9927  0.5098
    3MOL   H834 3078   0.571   5.870   5.326  1.8425 -4.0981 -0.3942
    3MOL   H835 3079   0.850   5.996   5.285  0.6762  2.0325 -0.6749
    3MOL   H836 3080   0.712   6.077   5.222  0.2333 -0.9063 -0.3560
    3MOL   H837 3081   0.667   5.893   5.071 -0.3686  0.4064  1.3818
    3MOL   H838 3082   0.794   5.800   5.148  2.1325  1.8790  1.9640
    3MOL   H839 3083   0.864   6.093   5.049  1.3390 -0.2524  1.9424
    3MOL   H840 3084   0.829   5.994   4.921 -1.0069 -1.4492 -0.2748
    3MOL   H841 3085   1.047   5.944   5.103 -0.1803  1.6615  0.0210
    3MOL   C842 3086   1.037   5.837   4.930  0.5867  0.3052 -0.3581
    3MOL   O843 3087   0.982   5.816   4.823 -0.5685  0.5850 -0.1001
    3MOL   C844 3088   1.174   5.788   4.957  0.3751  0.1429 -0.5338
    3MOL   C845 3089   1.223   5.681   4.855  0.9961  0.1222 -0.1948
    3MOL   C846 3090   1.364   5.630   4.891  0.8682 -1.0013  0.1268
    3MOL   C847 3091   1.412   5.522   4.794 -0.3070  0.0130  0.4367
    3MOL   C848 3092   1.310   5.403   4.777  0.2980  0.2189  0.3056
    3MOL   C849 3093   1.380   5.284   4.714  0.3665 -0.0702 -0.1739
    3MOL   C850 3094   1.302   5.150   4.721 -0.0703 -0.9038 -0.8066
    3MOL   C851 3095   1.394   5.028   4.702  0.2174 -0.6142 -0.8852
    3MOL   C852 3096   1.319   4.900   4.682  0.0304  0.2054 -0.1047
    3MOL   C853 3097   1.406   4.775   4.700  0.0311  0.1039  0.2506
    3MOL   C854 3098   1.442   4.760   4.848  0.9643 -0.1061 -0.0029
    3MOL   O855 3099   1.352   4.733   4.929  0.2430  0.3722  0.1384
    3MOL   N856 3100   1.564   4.784   4.883  0.5283  0.2789  0.2762
    3MOL   C857 3101   1.615   4.795   5.022  0.3031  0.6630  0.0394
    3MOL   C858 3102   1.627   4.653   5.091 -1.1632 -0.1019 -0.2423
    3MOL   C859 3103   1.705   4.650   5.228  0.9838  0.1991  0.4478
    3MOL   C860 3104   1.729   4.504   5.269  0.0586 -0.0782  0.0655
    3MOL   C861 3105   1.821   4.489   5.390 -0.7188  0.4223 -0.2603
    3MOL   C862 3106   1.866   4.344   5.429  0.4514 -0.1934 -0.0187
    3MOL   N863 3107   1.751   4.258   5.442  0.0027  0.0140 -0.1469
    3MOL   H864 3108   1.188   5.754   5.059 -0.3258  1.6666  0.0798
    3MOL   H865 3109   1.237   5.876   4.947  0.4714 -0.0948 -2.2321
    3MOL   H866 3110   1.214   5.723   4.755  2.8381  0.8749 -0.0501
    3MOL   H867 3111   1.156   5.595   4.858 -1.2719  1.8135 -0.4287
    3MOL   H868 3112   1.433   5.714   4.899 -0.9792  0.3836  1.9899
    3MOL   H869 3113   1.362   5.597   4.994 -0.2032  1.9442  1.1134
    3MOL   H870 3114   1.507   5.489   4.835  0.5258 -0.6559 -1.9306
    3MOL   H871 3115   1.436   5.570   4.699  0.1648 -0.4477  0.3239
    3MOL   H872 3116   1.281   5.369   4.876 -0.7308  0.6683  0.1560
    3MOL   H873 3117   1.217   5.426   4.725  0.4397  0.2921  0.0800
    3MOL   H874 3118   1.410   5.317   4.614 -1.4155  2.6610  0.1386
    3MOL   H875 3119   1.466   5.263   4.777 -0.2610 -3.4126 -0.3218
    3MOL   H876 3120   1.269   5.131   4.823 -1.0895 -0.5333 -1.0637
    3MOL   H877 3121   1.222   5.135   4.649 -2.5094 -1.3078  1.8988
    3MOL   H878 3122   1.457   5.023   4.792 -1.0797 -1.0590  0.0158
    3MOL   H879 3123   1.454   5.056   4.616  0.4263 -3.1397 -1.5876
    3MOL   H880 3124   1.274   4.918   4.584 -1.3986  0.3640  0.5625
    3MOL   H881 3125   1.232   4.897   4.747 -0.3138  1.8876 -0.4447
    3MOL   H882 3126   1.351   4.690   4.659  0.2925 -0.4110  0.9562
    3MOL   H883 3127   1.495   4.782   4.637 -0.3497  1.2360 -0.1836
    3MOL   H884 3128   1.619   4.832   4.813 -0.6315 -0.7595 -1.3921
    3MOL   H885 3129   1.557   4.870   5.076  0.4365  0.4853  0.4329
    3MOL   H886 3130   1.711   4.847   5.013  0.9516 -0.4209  0.6104
    3MOL   H887 3131   1.672   4.586   5.018  0.5650 -0.7916  1.4330
    3MOL   H888 3132   1.527   4.610   5.100 -0.3088 -2.4739 -1.7615
    3MOL   H889 3133   1.635   4.697   5.297  2.1375 -0.2045  1.8998
    3MOL   H890 3134   1.796   4.709   5.227  0.5278  0.9011  0.6302
    3MOL   H891 3135   1.768   4.448   5.184 -2.8658  0.5824 -1.7682
    3MOL   H892 3136   1.640   4.451   5.303 -0.7527 -0.3681 -2.3961
    3MOL   H893 3137   1.912   4.547   5.384 -0.3784 -0.0122  0.6072
    3MOL   H894 3138   1.770   4.531   5.478  0.0348  1.3391 -0.2575
    3MOL   H895 3139   1.914   4.312   5.336 -2.7461 -0.1483 -1.7595
    3MOL   H896 3140   1.932   4.336   5.515 -0.0466 -2.8973  0.1703
    3MOL   H897 3141   1.674   4.281   5.381 -0.6094  1.3747  1.1062
    3MOL   C898 3142   1.730   4.163   5.533 -0.1932  0.1214 -0.1981
    3MOL   O899 3143   1.815   4.131   5.618 -0.2047 -0.3503 -0.3094
    3MOL   C900 3144   1.596   4.083   5.531 -0.0626  0.2352 -0.1252
    3MOL   C901 3145   1.604   3.944   5.483  0.2006 -0.3051  0.6457
    3MOL   C902 3146   1.459   3.887   5.478  0.2000  0.2562  0.4972
    3MOL   C903 3147   1.395   3.823   5.596  0.1328 -0.8177  0.2765
    3MOL   C904 3148   1.264   3.747   5.556  0.0290 -0.3024  0.2287
    3MOL   C905 3149   1.288   3.637   5.448  0.1999 -0.4344 -0.4452
    3MOL   C906 3150   1.161   3.556   5.418 -0.1957  0.5622  0.3166
    3MOL   C907 3151   1.055   3.632   5.338  0.4373  0.9450 -0.1873
    3MOL   C908 3152   0.968   3.543   5.249 -0.5468  0.8313  0.3422
    3MOL   C909 3153   0.852   3.608   5.167  0.2374 -0.2008  0.0760
    3MOL   C910 3154   0.895   3.698   5.053 -0.3368  0.1212  0.5789
    3MOL   O911 3155   1.012   3.686   5.010 -1.0629  0.0768 -0.3296
    3MOL   N912 3156   0.807   3.775   4.997  0.5947  0.2007 -0.1997
    3MOL   C913 3157   0.834   3.869   4.890  0.3005 -0.7638  0.0308
    3MOL   C914 3158   0.810   4.026   4.917 -1.2314  0.4330  1.0015
    3MOL   C915 3159   0.839   4.101   4.782 -0.5250 -0.1207 -0.4822
    3MOL   C916 3160   0.801   4.250   4.784 -0.4599  0.6124  0.2973
    3MOL   C917 3161   0.659   4.278   4.774 -0.2404 -0.1741  0.0401
    3MOL   C918 3162   0.636   4.429   4.737 -0.5619 -0.3744  0.8449
    3MOL   N919 3163   0.670   4.455   4.595  0.1247  0.1533 -0.4569
    3MOL   H920 3164   1.561   4.074   5.633 -1.0217  0.3676 -0.4342
    3MOL   H921 3165   1.517   4.133   5.475  1.2713  1.2329 -1.1752
    3MOL   H922 3166   1.674   3.875   5.530  0.5265 -0.6775 -0.3971
    3MOL   H923 3167   1.642   3.962   5.383 -0.0456 -0.3980  0.5372
    3MOL   H924 3168   1.473   3.810   5.402  0.5152  1.5587 -0.7818
    3MOL   H925 3169   1.392   3.953   5.423 -0.8666 -0.7345  0.5836
    3MOL   H926 3170   1.460   3.759   5.656  1.8327  0.9939  0.4260
    3MOL   H927 3171   1.368   3.904   5.663 -0.4013  1.2669 -2.3534
    3MOL   H928 3172   1.190   3.821   5.526  2.4621  1.5589 -1.3672
    3MOL   H929 3173   1.219   3.707   5.647  0.1947 -0.0237  0.4375
    3MOL   H930 3174   1.331   3.675   5.355  3.5859 -2.4491  0.1777
    3MOL   H931 3175   1.360   3.568   5.492  0.3991  0.5385  0.7866
    3MOL   H932 3176   1.122   3.533   5.517 -0.9311  1.7833  0.3172
    3MOL   H933 3177   1.173   3.455   5.378  1.1169  0.6585  0.4136
    3MOL   H934 3178   1.092   3.718   5.282 -2.5883  1.2498 -1.8253
    3MOL   H935 3179   0.991   3.679   5.413  1.6551  0.7195  1.0158
    3MOL   H936 3180   1.030   3.485   5.182  1.5240  1.2793  1.8131
    3MOL   H937 3181   0.935   3.459   5.310  0.3650 -1.7211 -2.5771
    3MOL   H938 3182   0.802   3.526   5.117  2.6386 -1.0559 -1.0215
    3MOL   H939 3183   0.776   3.652   5.231 -0.6697  0.6786 -1.5796
    3MOL   H940 3184   0.711   3.758   5.023 -0.0738  0.0450 -2.6687
    3MOL   H941 3185   0.781   3.835   4.801  1.3512 -0.7651 -0.5938
    3MOL   H942 3186   0.940   3.863   4.865  1.2860  0.1526  3.6248
    3MOL   H943 3187   0.706   4.046   4.941 -1.5073 -0.6602  0.7135
    3MOL   H944 3188   0.881   4.061   4.992  1.4606 -0.9548 -0.7866
    3MOL   H945 3189   0.944   4.089   4.754 -0.6251 -0.8798 -0.5463
    3MOL   H946 3190   0.781   4.058   4.700  1.6103 -1.9377 -1.1128
    3MOL   H947 3191   0.853   4.307   4.706 -0.7584  0.9834  0.3709
    3MOL   H948 3192   0.842   4.292   4.875 -0.5351 -0.9563  1.0730
    3MOL   H949 3193   0.603   4.222   4.699  0.4094  0.6979 -1.1085
    3MOL   H950 3194   0.621   4.256   4.874 -0.9852  0.9022  0.0074
    3MOL   H951 3195   0.686   4.489   4.814  2.2238 -0.5749 -0.7255
    3MOL   H952 3196   0.531   4.454   4.749 -1.2663 -2.0145 -1.6465
    3MOL   H953 3197   0.766   4.438   4.569  0.5111  0.3431  0.8076
    3MOL   C954 3198   0.597   4.517   4.499 -0.4781  0.1143 -0.5468
    3MOL   O955 3199   0.477   4.553   4.515  0.1638  0.2552 -0.3647
    3MOL   C956 3200   0.673   4.561   4.371  0.1250 -0.4385 -0.0933
    3MOL   C957 3201   0.605   4.516   4.242 -0.2036 -0.1977  0.0945
    3MOL   C958 3202   0.479   4.601   4.193 -1.0032 -0.1436 -0.0876
    3MOL   C959 3203   0.421   4.555   4.062 -0.4636  0.7631 -0.5189
    3MOL   C960 3204   0.343   4.675   4.005 -0.0217 -0.2319 -0.7446
    3MOL   C961 3205   0.227   4.717   4.099  0.1567 -0.0233 -0.1285
    3MOL   C962 3206   0.139   4.830   4.047  0.9937  1.0761 -0.6971
    3MOL   C963 3207   0.211   4.966   4.037  0.0233  0.0450  0.3025
    3MOL   C964 3208   0.256   5.024   4.166 -0.3437 -0.0409 -0.0862
    3MOL   C965 3209   0.136   5.055   4.255 -0.1454  0.2152 -0.2049
    3MOL   C966 3210   0.053   5.179   4.220 -0.2315 -0.2927  0.3787
    3MOL   O967 3211   0.089   5.292   4.251 -0.1043  0.2356 -0.0276
    3MOL   N968 3212   7.625   5.160   4.166 -0.3934  0.6307 -0.1605
    3MOL   C969 3213   7.534   5.266   4.143 -0.3980  0.3275  0.2665
    3MOL   C970 3214   7.576   5.346   4.017 -0.3046 -0.5822  0.4134
    3MOL   C971 3215   7.607   5.256   3.894 -0.0386  0.3421 -0.2728
    3MOL   C972 3216   7.614   5.321   3.761 -0.1949  0.1037 -0.0275
    3MOL   C973 3217   0.035   5.425   3.756 -0.4859 -0.3113 -0.2144
    3MOL   C974 3218   0.177   5.367   3.741 -0.6384  0.8247 -0.5535
    3MOL   N975 3219   0.281   5.474   3.717 -0.5935 -0.1424 -0.8876
    3MOL   H976 3220   0.675   4.670   4.381  0.9071 -0.5806  1.3729
    3MOL   H977 3221   0.777   4.528   4.371 -0.1447 -1.3046 -0.3783
    3MOL   H978 3222   0.569   4.414   4.259 -1.1627  0.0144 -0.5795
    3MOL   H979 3223   0.670   4.516   4.155 -0.7731  1.9558 -0.3578
    3MOL   H980 3224   0.401   4.603   4.269 -0.2569 -1.7078  0.7429
    3MOL   H981 3225   0.513   4.704   4.188 -0.5213 -0.3384 -0.8138
    3MOL   H982 3226   0.513   4.538   4.006 -0.0223  1.7553 -0.1014
    3MOL   H983 3227   0.364   4.462   4.066  1.8708 -0.7161 -0.3317
    3MOL   H984 3228   0.406   4.762   3.983 -1.3473  1.1412  0.7279
    3MOL   H985 3229   0.303   4.646   3.909 -0.4943 -0.0463 -0.6018
    3MOL   H986 3230   0.166   4.629   4.122  1.8670 -1.5025 -1.1436
    3MOL   H987 3231   0.261   4.753   4.196 -1.6126  4.0966 -0.9434
    3MOL   H988 3232   0.103   4.810   3.947 -1.8591  0.4797  0.3911
    3MOL   H989 3233   0.053   4.836   4.114 -0.1937 -0.6522 -2.0341
    3MOL   H990 3234   0.299   4.964   3.973 -0.6248 -1.8897 -0.5744
    3MOL   H991 3235   0.142   5.033   3.985 -1.0041  0.1703  1.7910
    3MOL   H992 3236   0.298   5.124   4.160  2.1958 -1.1187 -1.2261
    3MOL   H993 3237   0.331   4.962   4.217  0.3149  0.5604 -0.3178
    3MOL   H994 3238   0.068   4.973   4.275  1.0180 -1.0423 -1.3103
    3MOL   H995 3239   0.186   5.053   4.352 -0.5301 -2.5320 -0.0262
    3MOL   H996 3240   7.597   5.068   4.137  0.8532  0.4535 -0.8410
    3MOL   H997 3241   7.510   5.330   4.228 -1.3949  0.0189  0.2227
    3MOL   H998 3242   7.443   5.213   4.117  0.0858  0.4309 -1.6959
    3MOL   H999 3243   7.659   5.413   4.039  1.1492 -1.9423 -0.8361
    3MOL     H1 3244   7.493   5.414   3.996 -0.3949 -0.8768 -0.1915
    3MOL     H2 3245   7.533   5.176   3.896  2.1751 -1.7772  0.1338
    3MOL     H3 3246   0.013   5.212   3.913 -0.6176 -1.1600 -0.7263
    3MOL     H4 3247   7.629   5.238   3.692 -0.5335  1.6024 -1.9100
    3MOL     H5 3248   7.522   5.373   3.734 -0.3311 -1.9823 -3.9448
    3MOL     H6 3249   0.030   5.485   3.847 -0.9867 -0.6265 -0.0308
    3MOL     H7 3250   0.007   5.499   3.681 -0.9002 -0.2854 -0.0379
    3MOL     H8 3251   0.213   5.313   3.829 -0.8625  0.4617 -0.6820
    3MOL     H9 3252   0.180   5.300   3.655 -2.5465 -0.6282  0.4791
    3MOL    H10 3253   0.264   5.545   3.647  0.8508 -0.0964 -1.2118
    3MOL    C11 3254   0.387   5.516   3.790 -0.4823  0.8661  0.7127
    3MOL    O12 3255   0.419   5.464   3.894  0.5429 -0.1196 -0.4550
    3MOL    C13 3256   0.442   5.640   3.749 -0.5538  0.5934 -0.4548
    3MOL    C14 3257   0.415   5.750   3.846  0.1832 -0.5388 -0.5395
    3MOL    C15 3258   0.471   5.886   3.809  0.3240  0.2425  0.1009
    3MOL    C16 3259   0.471   5.990   3.920  0.9701  0.1091 -0.3362
    3MOL    C17 3260   0.592   5.958   4.014  0.1474  0.4367 -0.7232
    3MOL    C18 3261   0.581   6.052   4.141  0.6936 -0.5940  0.0140
    3MOL    C19 3262   0.694   6.015   4.245 -0.4604  0.1227  0.0174
    3MOL    C20 3263   0.706   6.111   4.365 -0.2486 -0.1648 -0.3174
    3MOL    C21 3264   0.819   6.073   4.460  0.4191  0.2993 -0.1781
    3MOL    C22 3265   0.769   6.038   4.608 -0.8409  0.7818 -0.9195
    3MOL    C23 3266   0.700   5.903   4.627  0.6581 -0.2123 -0.4280
    3MOL    O24 3267   0.588   5.892   4.573 -0.3510 -0.4697 -0.7985
    3MOL    N25 3268   0.757   5.806   4.698  0.2279 -0.4152  0.7519
    3MOL    C26 3269   0.683   5.678   4.730 -0.1776 -1.2568 -0.6011
    3MOL    C27 3270   0.563   5.700   4.829 -0.2019  0.5385 -0.2866
    3MOL    C28 3271   0.489   5.571   4.857  0.9796 -0.6934 -0.1017
    3MOL    C29 3272   0.360   5.616   4.935 -0.3731  0.3629  0.1172
    3MOL    C30 3273   0.244   5.512   4.946  0.6408  0.0250  0.4752
    3MOL    C31 3274   0.111   5.569   4.996 -0.5419 -0.6636  0.8464
    3MOL    N32 3275   0.040   5.646   4.893  0.5781 -0.0965 -0.1332
    3MOL    H33 3276   0.398   5.670   3.653 -0.1373 -0.3634 -0.9524
    3MOL    H34 3277   0.550   5.631   3.740 -0.8309 -0.0470 -4.2584
    3MOL    H35 3278   0.457   5.718   3.942  1.7384  0.1220 -0.9644
    3MOL    H36 3279   0.309   5.768   3.863  0.7398  1.0681  1.5347
    3MOL    H37 3280   0.404   5.916   3.729  1.7679 -0.9989 -1.6182
    3MOL    H38 3281   0.575   5.880   3.777  1.2128 -0.3322  2.9327
    3MOL    H39 3282   0.475   6.092   3.881 -2.2842  0.3194 -0.2594
    3MOL    H40 3283   0.375   5.994   3.972  0.8804 -1.6581 -0.3447
    3MOL    H41 3284   0.588   5.853   4.043  0.7525  0.8448  0.8829
    3MOL    H42 3285   0.687   5.964   3.961  0.0031  0.8451 -0.9304
    3MOL    H43 3286   0.588   6.155   4.108  1.6793  1.5782  6.3068
    3MOL    H44 3287   0.485   6.032   4.188  1.5591 -0.9199  1.7085
    3MOL    H45 3288   0.679   5.918   4.292  0.3995 -0.1754 -0.3223
    3MOL    H46 3289   0.793   6.007   4.201 -0.5765  3.0802 -0.8714
    3MOL    H47 3290   0.714   6.212   4.326 -0.9681 -0.2359 -0.6568
    3MOL    H48 3291   0.619   6.113   4.431 -0.2352  0.4664 -0.3169
    3MOL    H49 3292   0.881   6.162   4.450  1.2914 -0.4291 -1.3987
    3MOL    H50 3293   0.888   5.998   4.421  0.5806 -1.6097  3.5723
    3MOL    H51 3294   0.854   6.048   4.677 -0.6943  0.0504 -0.9850
    3MOL    H52 3295   0.699   6.118   4.632 -1.4149 -0.1718  0.7170
    3MOL    H53 3296   0.848   5.817   4.739  0.9201 -0.9965 -0.5919
    3MOL    H54 3297   0.760   5.615   4.775  1.4207  0.4591 -0.8282
    3MOL    H55 3298   0.662   5.638   4.631  1.3789 -3.2185 -0.1591
    3MOL    H56 3299   0.500   5.773   4.778  0.8393  1.6121 -0.0883
    3MOL    H57 3300   0.606   5.752   4.915  1.3146 -0.1984 -0.5788
    3MOL    H58 3301   0.538   5.496   4.919  0.4227 -0.8719  0.1283
    3MOL    H59 3302   0.468   5.526   4.760 -0.4586  2.5911 -1.4189
    3MOL    H60 3303   0.324   5.706   4.885 -1.5388  0.2924  0.7978
    3MOL    H61 3304   0.385   5.652   5.034  0.9111 -3.3055  1.2082
    3MOL    H62 3305   0.287   5.440   5.016  0.9372 -0.1476  0.1187
    3MOL    H63 3306   0.231   5.461   4.850  0.4328 -0.5272  0.7938
    3MOL    H64 3307   0.117   5.619   5.093 -1.3577  2.2531 -0.5471
    3MOL    H65 3308   0.056   5.476   5.012 -0.4908 -1.0658 -1.1818
    3MOL    H66 3309   7.680   5.592   4.825 -0.6943  0.6983  0.1710
    3MOL    C67 3310   0.055   5.773   4.854 -0.2136 -0.5263  0.7620
    3MOL    O68 3311   0.114   5.858   4.921  0.0235 -0.2390  0.4778
    3MOL    C69 3312   7.683   5.814   4.719 -0.1181  0.4102  0.6406
    3MOL    C70 3313   7.672   5.958   4.687 -1.2072  0.2098  1.3064
    3MOL    C71 3314   7.550   6.024   4.749  0.2078  0.1953 -0.3534
    3MOL    C72 3315   7.521   6.169   4.694  0.4394 -0.0628 -0.4833
    3MOL    C73 3316   7.645   6.261   4.702 -0.1666 -0.4314  0.0596
    3MOL    C74 3317   7.616   6.400   4.641 -1.0155  0.4207 -0.1506
    3MOL    C75 3318   0.048   6.493   4.656 -0.6473  0.0993 -0.2221
    3MOL    C76 3319   0.019   6.643   4.639 -0.3067 -0.0989 -0.3390
    3MOL    C77 3320   0.154   6.710   4.631  0.4355  0.5856  0.1442
    3MOL    C78 3321   0.143   6.857   4.607  0.3705  0.1533 -0.6326
    3MOL    C79 3322   0.073   6.937   4.715  0.1490  0.0491 -0.2364
    3MOL    O80 3323   0.123   6.925   4.830  0.0704 -0.6930  0.6182
    3MOL    N81 3324   7.667   7.018   4.681 -0.0267  0.6168 -0.0430
    3MOL    C82 3325   7.588   7.092   4.772  0.3120 -0.3729  0.3391
    3MOL    C83 3326   7.542   7.222   4.707 -0.4898 -0.1785 -0.5636
    3MOL    C84 3327   7.438   7.296   4.787 -0.4252  0.0047  0.2421
    3MOL    C85 3328   7.508   7.390   4.891  0.0745  0.6135 -0.1685
    3MOL    C86 3329   7.400   7.455   4.979  0.7667 -0.2517 -0.1345
    3MOL    C87 3330   7.449   7.549   5.099 -0.5884 -0.3158  0.1995
    3MOL    N88 3331   7.536   7.650   5.044 -0.1370  0.8455 -0.4753
    3MOL    H89 3332   7.587   5.763   4.707  0.5846 -1.1379  1.3127
    3MOL    H90 3333   0.050   5.758   4.646 -0.3421 -0.8759  1.4079
    3MOL    H91 3334   0.072   6.012   4.710 -1.2423 -0.2359  2.4679
    3MOL    H92 3335   7.658   5.964   4.578 -1.5293 -0.6604  1.3008
    3MOL    H93 3336   7.465   5.957   4.740 -0.6721  1.5215 -2.2492
    3MOL    H94 3337   7.561   6.026   4.857  1.2492 -0.4363 -0.4361
    3MOL    H95 3338   7.481   6.179   4.593 -2.3878 -0.6866  0.5360
    3MOL    H96 3339   7.430   6.205   4.744  1.3562  0.9789  0.4668
    3MOL    H97 3340   7.665   6.276   4.808  1.6312  2.0654 -0.6075
    3MOL    H98 3341   0.043   6.220   4.654  0.2607 -0.2097  0.6653
    3MOL    H99 3342   7.584   6.403   4.537 -1.1568  2.0363 -0.0665
    3MOL   H100 3343   7.538   6.449   4.699 -1.7146 -1.9362  0.9444
    3MOL   H101 3344   0.099   6.467   4.563 -0.9144  0.3604 -0.4432
    3MOL   H102 3345   0.111   6.465   4.740 -1.7874 -4.5629 -0.7416
    3MOL   H103 3346   7.647   6.675   4.556 -2.0196  0.9506  1.3298
    3MOL   H104 3347   7.643   6.669   4.721 -0.4942 -1.3213 -0.1052
    3MOL   H105 3348   0.202   6.672   4.541 -0.6809  1.3464 -0.7958
    3MOL   H106 3349   0.216   6.692   4.718 -1.3090  0.1577  1.3336
    3MOL   H107 3350   0.242   6.901   4.597  0.3902 -0.3682 -2.9515
    3MOL   H108 3351   0.100   6.883   4.510 -0.3048 -0.4420 -0.5009
    3MOL   H109 3352   7.656   7.039   4.583  0.9163  0.1833 -0.2435
    3MOL   H110 3353   7.647   7.124   4.857 -0.4174  0.8505  0.4094
    3MOL   H111 3354   7.507   7.025   4.802 -0.9864 -0.0757 -2.3755
    3MOL   H112 3355   7.496   7.198   4.611 -1.7930 -0.1435  0.0419
    3MOL   H113 3356   7.628   7.288   4.696 -1.2857  1.2354  1.4158
    3MOL   H114 3357   7.352   7.240   4.823 -2.3228  2.6590 -0.0498
    3MOL   H115 3358   7.390   7.361   4.713  0.0397 -0.3150 -0.3450
    3MOL   H116 3359   7.557   7.328   4.965 -0.1910  1.7440  0.9628
    3MOL   H117 3360   7.581   7.464   4.858 -1.8658  1.9950 -1.4754
    3MOL   H118 3361   7.342   7.512   4.906 -0.7852  0.7788  1.8569
    3MOL   H119 3362   7.329   7.384   5.022 -0.8390  1.4963  0.1417
    3MOL   H120 3363   7.363   7.600   5.143 -0.5353 -0.9846  1.0987
    3MOL   H121 3364   7.494   7.489   5.178  2.0116  0.7771 -0.4226
    3MOL   H122 3365   7.539   0.035   5.109  2.4803 -0.3501  0.8864
    3MOL   H123 3366   7.512   0.010   4.961  3.2756  1.7569 -0.9404
    4MOL     C1 3367   4.812   1.992   2.727  0.2656  0.5791  0.1692
    4MOL     O2 3368   4.913   1.954   2.665  0.3592 -0.3301  0.5307
    4MOL     C3 3369   4.813   2.127   2.802 -0.5321 -0.0441 -0.6975
    4MOL     C4 3370   4.791   2.097   2.954  0.4687  0.2500 -0.0671
    4MOL     C5 3371   4.903   2.017   3.028 -0.0039  0.5130 -0.2764
    4MOL     C6 3372   4.878   1.990   3.175  0.0157  0.1977 -0.3970
    4MOL     C7 3373   4.830   2.114   3.257  0.0287  0.0298 -0.0370
    4MOL     C8 3374   4.874   2.121   3.407  1.3055 -0.4504 -0.4814
    4MOL     C9 3375   4.781   2.207   3.502  0.3324  1.0736 -0.1065
    4MOL    C10 3376   4.785   2.192   3.654  0.6533 -0.1864 -0.4037
    4MOL    C11 3377   4.716   2.310   3.726 -0.0583 -0.4567  0.3494
    4MOL    C12 3378   4.706   2.280   3.877 -0.9254  0.2235 -0.3382
    4MOL    C13 3379   4.849   2.277   3.942 -0.5314 -0.1341 -0.0084
    4MOL    O14 3380   4.949   2.289   3.878  0.5156 -0.0209 -0.3050
    4MOL    N15 3381   4.849   2.258   4.072  0.2593  0.2730 -0.6943
    4MOL    C16 3382   4.955   2.219   4.168 -0.1298  0.5202 -0.3891
    4MOL    C17 3383   5.018   2.351   4.219  0.1283 -0.1150 -0.3949
    4MOL    C18 3384   5.159   2.342   4.278  1.3077 -0.0729 -0.3133
    4MOL    C19 3385   5.224   2.480   4.303  0.2252 -0.0319  0.2008
    4MOL    C20 3386   5.351   2.443   4.377  0.1781  0.5290 -0.1091
    4MOL    C21 3387   5.435   2.563   4.409 -0.1546 -0.4554 -0.8286
    4MOL    N22 3388   5.553   2.517   4.475  0.1108  0.6632 -0.8334
    4MOL    H23 3389   4.737   2.194   2.763 -0.7887  0.3622  0.4878
    4MOL    H24 3390   4.910   2.174   2.786  0.8838 -1.6131  2.5882
    4MOL    H25 3391   4.701   2.037   2.963  0.4821  0.0631 -1.0811
    4MOL    H26 3392   4.772   2.194   3.001  2.0083  0.3358  0.4142
    4MOL    H27 3393   4.995   2.076   3.024  1.8559 -2.1350  1.8494
    4MOL    H28 3394   4.924   1.924   2.975  1.1402 -0.7191  2.2790
    4MOL    H29 3395   4.793   1.921   3.179 -0.1570  0.4795  2.0167
    4MOL    H30 3396   4.962   1.940   3.223 -0.2233 -0.1304 -0.3234
    4MOL    H31 3397   4.722   2.106   3.267 -0.1291  0.4850 -1.3791
    4MOL    H32 3398   4.863   2.202   3.201  1.0843 -0.3746 -0.0606
    4MOL    H33 3399   4.872   2.020   3.448  0.5094 -1.0542 -1.9392
    4MOL    H34 3400   4.979   2.148   3.409  1.2050  0.0351 -1.3731
    4MOL    H35 3401   4.821   2.306   3.479 -1.2651  1.8593  0.4431
    4MOL    H36 3402   4.676   2.208   3.476  0.1631 -1.8239  0.3008
    4MOL    H37 3403   4.733   2.099   3.677  1.3452 -0.4555  0.0604
    4MOL    H38 3404   4.887   2.172   3.684 -0.0024 -0.8414  1.4196
    4MOL    H39 3405   4.609   2.308   3.704  0.2551  1.0072 -1.4556
    4MOL    H40 3406   4.753   2.410   3.701 -1.0410 -0.4413 -1.1103
    4MOL    H41 3407   4.651   2.366   3.915  0.3465  2.3767 -3.1672
    4MOL    H42 3408   4.640   2.198   3.907 -0.8586  0.0310 -0.7111
    4MOL    H43 3409   4.757   2.274   4.112 -0.0228  0.5135 -1.4300
    4MOL    H44 3410   5.038   2.164   4.125  0.2993 -0.7926  2.0458
    4MOL    H45 3411   4.912   2.151   4.241  1.6037 -0.2299 -0.0324
    4MOL    H46 3412   4.962   2.400   4.298  1.0817  1.4336 -0.6634
    4MOL    H47 3413   5.016   2.417   4.133 -0.1651  0.1783 -0.1633
    4MOL    H48 3414   5.149   2.285   4.371  0.8029 -1.4825 -1.2009
    4MOL    H49 3415   5.213   2.285   4.202  0.2374 -0.3216 -0.9118
    4MOL    H50 3416   5.156   2.536   4.367 -0.1047  1.5141 -1.4639
    4MOL    H51 3417   5.246   2.523   4.205 -3.9250 -0.7896 -1.1836
    4MOL    H52 3418   5.328   2.401   4.475 -0.8866 -0.9727 -0.9850
    4MOL    H53 3419   5.406   2.373   4.314  0.7503  0.3239  0.5996
    4MOL    H54 3420   5.480   2.612   4.323  0.0015 -1.9363 -1.5929
    4MOL    H55 3421   5.392   2.651   4.457  0.0214  0.0042 -1.5039
    4MOL    H56 3422   5.618   2.481   4.407  1.7229  2.5336 -0.3100
    4MOL    H57 3423   4.729   1.925   2.747  1.1155 -0.9316 -1.2078
    4MOL    C58 3424   5.578   2.520   4.607  0.1050 -0.9484 -0.6890
    4MOL    O59 3425   5.500   2.563   4.694 -0.2173  0.2573  0.2410
    4MOL    C60 3426   5.716   2.475   4.649 -0.3756 -0.0174 -0.1173
    4MOL    C61 3427   5.712   2.363   4.758  0.4734  1.1706 -0.1022
    4MOL    C62 3428   5.666   2.227   4.703  0.0596  0.4057  0.1945
    4MOL    C63 3429   5.666   2.105   4.805  0.0779  0.4619 -0.0784
    4MOL    C64 3430   5.624   1.969   4.741 -0.2817  0.0016  0.0410
    4MOL    C65 3431   5.496   1.978   4.661 -0.8652 -0.3946  0.6988
    4MOL    C66 3432   5.431   1.844   4.634 -0.1504 -0.0386 -0.1875
    4MOL    C67 3433   5.300   1.862   4.551 -0.4247  0.2222  0.2012
    4MOL    C68 3434   5.304   1.936   4.415  0.0847  0.3243  0.0283
    4MOL    C69 3435   5.162   1.951   4.355 -0.4093  0.3445  0.2833
    4MOL    C70 3436   5.099   1.823   4.313 -0.3546  0.1504  0.1098
    4MOL    O71 3437   5.165   1.742   4.247 -0.1952  0.5063 -0.2846
    4MOL    N72 3438   4.969   1.808   4.348 -0.1578 -0.5684 -0.1339
    4MOL    C73 3439   4.899   1.675   4.351  0.5107 -0.3183 -0.5787
    4MOL    C74 3440   4.923   1.608   4.487 -0.1298  0.0811 -0.1594
    4MOL    C75 3441   4.824   1.490   4.511  0.2958  0.2134  0.0205
    4MOL    C76 3442   4.853   1.419   4.641 -0.4011  0.7301 -0.4154
    4MOL    C77 3443   4.778   1.286   4.649  0.0097  0.0970  0.1362
    4MOL    C78 3444   4.637   1.289   4.715  0.3916  0.7388 -0.1812
    4MOL    N79 3445   4.646   1.304   4.862 -0.3207 -0.5756 -0.5253
    4MOL    H80 3446   5.779   2.556   4.687 -0.0826  0.0456 -0.7241
    4MOL    H81 3447   5.769   2.443   4.560 -0.3686 -0.2028 -0.0471
    4MOL    H82 3448   5.812   2.358   4.801 -0.6870 -4.5494  2.3440
    4MOL    H83 3449   5.660   2.400   4.846  1.0658  1.3846  0.1564
    4MOL    H84 3450   5.730   2.200   4.619 -1.2554  1.4484 -1.1685
    4MOL    H85 3451   5.569   2.240   4.655  1.0380  2.5992 -1.2307
    4MOL    H86 3452   5.594   2.125   4.885  0.9256  1.8135  0.3813
    4MOL    H87 3453   5.763   2.097   4.854  0.5986  1.4140 -0.9430
    4MOL    H88 3454   5.710   1.936   4.682  1.0359  0.0663  1.8651
    4MOL    H89 3455   5.623   1.902   4.827 -2.7933 -2.0323 -1.5321
    4MOL    H90 3456   5.502   2.036   4.569 -1.0463 -0.0012  0.9320
    4MOL    H91 3457   5.431   2.047   4.715 -0.4783  1.5214 -1.2388
    4MOL    H92 3458   5.413   1.785   4.724  1.2293 -0.6676 -0.3179
    4MOL    H93 3459   5.492   1.773   4.579 -1.0508 -1.1023  0.1597
    4MOL    H94 3460   5.261   1.761   4.548 -1.9268  0.6402  3.5186
    4MOL    H95 3461   5.222   1.909   4.611  0.1858  0.9540  0.4407
    4MOL    H96 3462   5.370   1.870   4.359  0.7344 -0.2422  1.4431
    4MOL    H97 3463   5.339   2.039   4.418 -0.4230  0.4808  0.7244
    4MOL    H98 3464   5.096   2.012   4.417  0.2954  1.1456  0.2435
    4MOL    H99 3465   5.169   2.015   4.267  1.8613 -0.8375 -0.4256
    4MOL   H100 3466   4.928   1.888   4.392  0.3465 -0.0479 -0.6075
    4MOL   H101 3467   4.906   1.602   4.270 -0.9250 -2.0495  0.8231
    4MOL   H102 3468   4.792   1.691   4.344  0.4407  0.7893  2.3036
    4MOL   H103 3469   5.027   1.579   4.492 -0.3540 -1.0128 -1.4761
    4MOL   H104 3470   4.912   1.679   4.569 -2.6361  0.3504 -0.6705
    4MOL   H105 3471   4.836   1.421   4.427  0.0604  0.1848  0.0097
    4MOL   H106 3472   4.718   1.519   4.512  0.1593 -0.3357  1.5238
    4MOL   H107 3473   4.960   1.400   4.641 -0.4349  0.3957 -2.4220
    4MOL   H108 3474   4.834   1.483   4.727  1.1166 -1.3818  1.5399
    4MOL   H109 3475   4.841   1.221   4.710 -0.9455  0.1555  1.2018
    4MOL   H110 3476   4.773   1.233   4.554 -0.0018  0.9246 -0.3287
    4MOL   H111 3477   4.586   1.199   4.683  1.6228 -0.3739  0.9482
    4MOL   H112 3478   4.586   1.375   4.671 -0.7410  0.0937 -0.1542
    4MOL   H113 3479   4.733   1.273   4.903 -0.0010 -0.5508 -1.1839
    4MOL   C114 3480   4.572   1.394   4.932  0.0605  0.1778  0.4273
    4MOL   O115 3481   4.472   1.441   4.886 -0.3793 -0.9710  0.5967
    4MOL   C116 3482   4.619   1.434   5.072  0.0915 -0.5867  0.5349
    4MOL   C117 3483   4.707   1.560   5.069 -0.9633  0.5438 -0.4622
    4MOL   C118 3484   4.625   1.691   5.087  0.4720  0.4180  0.6982
    4MOL   C119 3485   4.709   1.822   5.078  0.1919 -0.5483 -0.0908
    4MOL   C120 3486   4.790   1.863   5.203  0.1248 -0.3007  0.7041
    4MOL   C121 3487   4.823   2.015   5.203 -0.1961  0.2236  0.0604
    4MOL   C122 3488   4.928   2.058   5.303 -0.7152 -0.3031  0.2645
    4MOL   C123 3489   4.972   2.200   5.300 -0.1680 -0.0368 -0.4020
    4MOL   C124 3490   5.082   2.245   5.396  0.0610  0.0764  0.2114
    4MOL   C125 3491   5.147   2.377   5.350  0.0051 -1.0258  0.0184
    4MOL   C126 3492   5.098   2.504   5.419  0.6383  0.0979 -0.0477
    4MOL   O127 3493   5.087   2.514   5.541 -0.4275 -0.4370 -0.4634
    4MOL   N128 3494   5.067   2.610   5.345 -1.1265  0.6291  0.1965
    4MOL   C129 3495   5.025   2.740   5.397 -0.6444 -0.5522  0.0402
    4MOL   C130 3496   5.079   2.864   5.328  0.2871 -0.2457  0.1671
    4MOL   C131 3497   5.234   2.876   5.346 -0.2801  0.1407 -0.1993
    4MOL   C132 3498   5.294   3.014   5.324  0.2754 -0.2351  0.2447
    4MOL   C133 3499   5.442   3.031   5.265  0.0712  0.3112 -0.4710
    4MOL   C134 3500   5.485   3.178   5.245 -0.3283 -0.7845 -0.8983
    4MOL   N135 3501   5.626   3.180   5.191  0.2922  0.7874 -0.0699
    4MOL   H136 3502   4.533   1.447   5.139  0.5035 -0.7107  1.0911
    4MOL   H137 3503   4.679   1.352   5.110 -0.7540 -1.2311  0.4891
    4MOL   H138 3504   4.749   1.568   4.968  2.2195 -2.4212  0.5316
    4MOL   H139 3505   4.780   1.547   5.149  0.4253  0.4702 -1.7206
    4MOL   H140 3506   4.541   1.681   5.018 -0.1006 -1.0029  1.5840
    4MOL   H141 3507   4.579   1.697   5.186 -1.2626  0.3287 -0.0865
    4MOL   H142 3508   4.772   1.822   4.989 -0.3787 -0.1874 -0.4924
    4MOL   H143 3509   4.633   1.900   5.071  2.4723  1.4944 -4.2280
    4MOL   H144 3510   4.738   1.841   5.296  1.8677  1.1746  2.0641
    4MOL   H145 3511   4.884   1.810   5.209  1.4271  1.8347 -0.0614
    4MOL   H146 3512   4.736   2.077   5.224  0.3356  0.4111  1.7721
    4MOL   H147 3513   4.869   2.042   5.108 -0.6107 -3.4141 -1.2453
    4MOL   H148 3514   4.877   2.032   5.396  1.4670 -3.2452  0.7066
    4MOL   H149 3515   5.019   1.998   5.309 -0.6717 -0.0292  3.0195
    4MOL   H150 3516   4.892   2.274   5.298  1.4607  1.7521 -0.3043
    4MOL   H151 3517   5.013   2.213   5.200  1.9837 -1.7977  0.2202
    4MOL   H152 3518   5.167   2.178   5.400  1.2665  1.4793 -1.1228
    4MOL   H153 3519   5.039   2.242   5.496  0.7028  1.5849  0.5484
    4MOL   H154 3520   5.153   2.376   5.241  2.0085  2.3834  0.0559
    4MOL   H155 3521   5.245   2.361   5.395  0.3889  1.0710 -0.0259
    4MOL   H156 3522   5.069   2.598   5.245  0.6684  0.0516  0.2877
    4MOL   H157 3523   5.067   2.748   5.497  0.8537  0.3445 -0.6417
    4MOL   H158 3524   4.917   2.747   5.407 -0.7652 -0.7240 -1.0519
    4MOL   H159 3525   5.034   2.953   5.372 -0.5961  0.2006 -1.6181
    4MOL   H160 3526   5.051   2.851   5.224 -0.9623 -0.5041  0.5276
    4MOL   H161 3527   5.267   2.846   5.445 -1.1673 -0.5414 -0.1055
    4MOL   H162 3528   5.286   2.803   5.285  1.9178 -1.3832  3.3404
    4MOL   H163 3529   5.214   3.067   5.272 -0.2058 -2.7260 -1.6193
    4MOL   H164 3530   5.310   3.058   5.423 -0.7972  0.4196  0.1332
    4MOL   H165 3531   5.452   2.984   5.167 -0.7976  1.2424 -1.0219
    4MOL   H166 3532   5.516   2.983   5.328  0.9285  2.8138  0.4941
    4MOL   H167 3533   5.413   3.222   5.176  0.4951 -0.7073 -1.7232
    4MOL   H168 3534   5.474   3.230   5.340 -0.2866  1.2917 -2.0086
    4MOL   H169 3535   5.634   3.196   5.092 -1.1726 -1.3132 -0.5755
    4MOL   C170 3536   5.739   3.184   5.270 -0.3332 -0.2892 -0.6527
    4MOL   O171 3537   5.730   3.167   5.394 -0.3315 -0.0248  0.2187
    4MOL   C172 3538   5.869   3.218   5.200  0.0511  0.7144 -0.1262
    4MOL   C173 3539   5.978   3.117   5.204 -0.6676  0.7132 -0.6756
    4MOL   C174 3540   5.961   2.997   5.108  0.8012 -0.3264  0.2524
    4MOL   C175 3541   6.068   2.895   5.120  0.6429 -0.6216 -0.1807
    4MOL   C176 3542   6.084   2.827   5.254 -0.7067 -0.6920 -0.1568
    4MOL   C177 3543   6.173   2.703   5.258  0.4274 -0.7520 -0.7034
    4MOL   C178 3544   6.314   2.746   5.236  0.8993 -0.5053 -0.4254
    4MOL   C179 3545   6.416   2.644   5.273 -0.3575  0.2047 -0.6131
    4MOL   C180 3546   6.554   2.683   5.209 -0.5474  0.6970  0.0100
    4MOL   C181 3547   6.660   2.579   5.253  0.0417 -0.5022  0.1666
    4MOL   C182 3548   6.654   2.441   5.192 -0.0789  0.2461  0.5335
    4MOL   O183 3549   6.614   2.438   5.076 -0.4728 -0.2925  0.0002
    4MOL   N184 3550   6.681   2.329   5.265 -0.5302  0.1537  0.2401
    4MOL   C185 3551   6.672   2.199   5.206  0.1040 -0.5108 -0.6528
    4MOL   C186 3552   6.815   2.139   5.176 -0.2255 -0.2493 -0.1448
    4MOL   C187 3553   6.920   2.226   5.093  0.2502 -0.0459 -0.4467
    4MOL   C188 3554   7.049   2.145   5.080  0.6725 -0.1214  0.0986
    4MOL   C189 3555   7.142   2.201   4.966 -0.4265  0.0711 -0.1343
    4MOL   C190 3556   7.212   2.332   4.997  0.1196 -0.1314  0.6014
    4MOL   N191 3557   7.301   2.366   4.886 -0.4784 -0.0039  1.3270
    4MOL   H192 3558   5.848   3.257   5.100 -1.6765  0.3466  0.0734
    4MOL   H193 3559   5.907   3.311   5.242  0.4900 -0.2395  1.6075
    4MOL   H194 3560   5.967   3.073   5.303 -1.2163 -0.6527 -1.3288
    4MOL   H195 3561   6.079   3.159   5.198 -0.6554  1.0024  1.1884
    4MOL   H196 3562   5.966   3.040   5.008  0.9530  0.1127  0.4474
    4MOL   H197 3563   5.867   2.943   5.121 -0.2686  1.7795  1.5051
    4MOL   H198 3564   6.060   2.833   5.030 -3.3207  0.0206 -0.3558
    4MOL   H199 3565   6.164   2.943   5.103  0.8384 -1.0072 -0.1797
    4MOL   H200 3566   6.122   2.903   5.323 -0.6294  0.2021 -1.1746
    4MOL   H201 3567   5.989   2.786   5.288 -0.4994 -2.3395 -1.4840
    4MOL   H202 3568   6.150   2.628   5.182  0.8292 -3.0065  1.3292
    4MOL   H203 3569   6.154   2.664   5.358 -0.0781 -1.1299 -0.9414
    4MOL   H204 3570   6.322   2.779   5.133 -1.9509 -1.2324 -0.9424
    4MOL   H205 3571   6.339   2.833   5.296  2.8980 -0.9162 -0.6440
    4MOL   H206 3572   6.430   2.629   5.380  0.5068  3.3513 -0.2347
    4MOL   H207 3573   6.382   2.547   5.237  3.2684 -1.3047 -0.1622
    4MOL   H208 3574   6.593   2.773   5.256 -2.0708  1.6690 -0.5465
    4MOL   H209 3575   6.545   2.695   5.101 -0.3709 -0.5112 -0.1425
    4MOL   H210 3576   6.758   2.618   5.227 -1.4157  0.9268 -3.6542
    4MOL   H211 3577   6.639   2.565   5.359 -1.4959  0.2363 -0.0319
    4MOL   H212 3578   6.698   2.332   5.365  2.5661  0.7409 -0.2489
    4MOL   H213 3579   6.611   2.190   5.116  2.1401 -3.3547 -1.8242
    4MOL   H214 3580   6.610   2.139   5.272  0.1554 -0.2007 -0.3268
    4MOL   H215 3581   6.856   2.115   5.274 -3.0078  1.6549  1.5391
    4MOL   H216 3582   6.797   2.046   5.122  0.8994  0.2309 -1.3774
    4MOL   H217 3583   6.873   2.260   5.001  0.0129 -0.5206 -0.5068
    4MOL   H218 3584   6.937   2.318   5.148 -1.3867  0.0411 -0.0567
    4MOL   H219 3585   7.012   2.043   5.066 -0.3442  0.2623 -0.0725
    4MOL   H220 3586   7.102   2.152   5.175  1.8384  0.8304 -0.6177
    4MOL   H221 3587   7.089   2.200   4.872 -0.4245  1.9227 -0.1804
    4MOL   H222 3588   7.221   2.127   4.955 -0.9988 -0.5986  0.2207
    4MOL   H223 3589   7.278   2.327   5.083  0.1126 -1.9011  0.5172
    4MOL   H224 3590   7.136   2.409   5.013  1.4328  1.1654  0.7647
    4MOL   H225 3591   7.273   2.339   4.793  0.0985 -0.8810  1.4051
    4MOL   C226 3592   7.427   2.408   4.872  0.5846 -0.6508  0.1963
    4MOL   O227 3593   7.497   2.451   4.964  0.0981 -0.3476 -0.0067
    4MOL   C228 3594   7.496   2.381   4.738  0.0951  0.4394  0.2418
    4MOL   C229 3595   7.645   2.413   4.711  0.3565  0.4676 -0.3694
    4MOL   C230 3596   0.043   2.318   4.790 -0.2539 -0.5298  0.1185
    4MOL   C231 3597   0.200   2.333   4.776 -0.0435 -0.2411 -0.3320
    4MOL   C232 3598   0.252   2.303   4.637 -0.0385 -0.6991  0.0152
    4MOL   C233 3599   0.407   2.302   4.626  0.7906  0.0618 -0.2844
    4MOL   C234 3600   0.464   2.446   4.613  0.4462 -0.4684  0.3526
    4MOL   C235 3601   0.619   2.451   4.608  0.0443 -0.0663  0.8298
    4MOL   C236 3602   0.687   2.426   4.471  0.0976  0.3276 -0.6316
    4MOL   C237 3603   0.838   2.411   4.473  0.4639  0.4613 -0.2384
    4MOL   C238 3604   0.890   2.287   4.548  0.1305 -0.0534 -0.5740
    4MOL   O239 3605   0.808   2.194   4.559  0.3592  0.1694 -0.3347
    4MOL   N240 3606   1.020   2.289   4.585  0.2892 -0.2283  0.0265
    4MOL   C241 3607   1.081   2.178   4.655  0.1390 -0.3191  0.0992
    4MOL   C242 3608   1.220   2.196   4.717  0.3404  0.6408 -0.4881
    4MOL   C243 3609   1.342   2.212   4.628 -0.3773  0.5809  0.9187
    4MOL   C244 3610   1.406   2.078   4.600  0.1391  0.1007  0.1261
    4MOL   C245 3611   1.527   2.082   4.517  0.1550 -0.5894 -0.2246
    4MOL   C246 3612   1.581   1.945   4.506  0.3263  0.0847  0.5182
    4MOL   N247 3613   1.715   1.961   4.449 -0.6375 -0.2719 -0.2943
    4MOL   H248 3614   7.438   2.438   4.665  0.1479  2.2072  1.5667
    4MOL   H249 3615   7.478   2.282   4.696  2.9180  0.0339 -0.1417
    4MOL   H250 3616   7.658   2.397   4.604  1.8279 -1.4983  0.0765
    4MOL   H251 3617   7.666   2.516   4.739  2.0253 -0.8151  3.3719
    4MOL   H252 3618   0.018   2.328   4.896 -0.1059 -0.9972  0.1980
    4MOL   H253 3619   0.020   2.216   4.758 -4.8978  0.4946 -0.2179
    4MOL   H254 3620   0.242   2.269   4.854 -0.4529  0.2381  0.2864
    4MOL   H255 3621   0.235   2.434   4.796  0.3267 -0.2482 -0.9216
    4MOL   H256 3622   0.209   2.378   4.572  1.0620  0.1539  0.2553
    4MOL   H257 3623   0.215   2.204   4.612 -0.0418 -1.0458  1.3309
    4MOL   H258 3624   0.456   2.246   4.707  0.4914 -2.5609 -1.8657
    4MOL   H259 3625   0.450   2.246   4.543 -0.9618 -2.7398  0.6466
    4MOL   H260 3626   0.427   2.498   4.702 -1.0455 -4.4666  2.1788
    4MOL   H261 3627   0.426   2.506   4.531  2.1663 -1.9878 -1.6124
    4MOL   H262 3628   0.656   2.546   4.648  1.3166 -0.0758 -0.2983
    4MOL   H263 3629   0.658   2.394   4.692 -0.0158 -0.1195  0.8223
    4MOL   H264 3630   0.635   2.337   4.433  0.6493 -0.8195  1.2378
    4MOL   H265 3631   0.651   2.498   4.398 -0.1937 -1.0966 -1.9252
    4MOL   H266 3632   0.868   2.407   4.368 -1.9441 -0.2751 -0.9099
    4MOL   H267 3633   0.881   2.503   4.514  1.4507 -0.6813  1.3439
    4MOL   H268 3634   1.073   2.375   4.583 -0.1615  0.0381 -0.5835
    4MOL   H269 3635   1.096   2.095   4.586 -0.4191  0.4418 -0.9655
    4MOL   H270 3636   1.015   2.124   4.722  0.1221  0.3541  0.6257
    4MOL   H271 3637   1.230   2.112   4.786 -0.6529  0.6160 -0.3727
    4MOL   H272 3638   1.212   2.283   4.782 -3.2616 -1.0476  1.4860
    4MOL   H273 3639   1.320   2.269   4.537 -0.8027 -2.6195 -1.0412
    4MOL   H274 3640   1.409   2.269   4.692  2.3705  0.1191 -1.4636
    4MOL   H275 3641   1.330   2.020   4.547 -0.1056  0.0420  0.5391
    4MOL   H276 3642   1.411   2.021   4.693 -1.3736 -2.6856 -1.3986
    4MOL   H277 3643   1.602   2.151   4.557 -0.5212  0.0477 -0.0579
    4MOL   H278 3644   1.499   2.109   4.416  0.7098 -0.8966 -0.4611
    4MOL   H279 3645   1.515   1.876   4.454  0.1583  0.9440 -0.4338
    4MOL   H280 3646   1.583   1.912   4.610 -0.0803 -0.5380  0.3297
    4MOL   H281 3647   1.745   2.053   4.421 -1.1843  1.0318  3.1568
    4MOL   C282 3648   1.803   1.861   4.464 -0.5452  0.0813  0.2709
    4MOL   O283 3649   1.780   1.748   4.494  0.2887 -0.3908  0.4241
    4MOL   C284 3650   1.952   1.894   4.436 -0.1387 -0.4835 -0.4313
    4MOL   C285 3651   2.045   1.892   4.554 -0.9572  0.0582 -1.3708
    4MOL   C286 3652   1.999   1.983   4.670 -0.3175 -0.2113 -0.8606
    4MOL   C287 3653   2.013   2.134   4.638  0.3000 -0.6845  0.3339
    4MOL   C288 3654   1.912   2.214   4.728 -1.0157 -0.1512 -0.1437
    4MOL   C289 3655   1.927   2.363   4.732  0.8756  0.7021 -0.0700
    4MOL   C290 3656   1.852   2.436   4.843 -0.2369 -0.1520 -0.2178
    4MOL   C291 3657   1.878   2.587   4.852  0.6060 -0.4721 -0.0837
    4MOL   C292 3658   1.868   2.642   4.990  0.4799 -0.3852 -0.4259
    4MOL   C293 3659   1.903   2.785   5.002  0.5754 -0.1178 -0.2110
    4MOL   C294 3660   1.818   2.884   4.925 -0.4148 -0.1239 -0.7033
    4MOL   O295 3661   1.858   2.910   4.809 -0.1547 -0.8032  0.4183
    4MOL   N296 3662   1.706   2.936   4.974  0.0761 -0.1813 -0.8541
    4MOL   C297 3663   1.611   3.034   4.910 -0.5660 -0.3305 -0.2430
    4MOL   C298 3664   1.675   3.154   4.837  0.0684 -0.0467  0.2486
    4MOL   C299 3665   1.778   3.220   4.923  0.4841  0.8071  0.1408
    4MOL   C300 3666   1.827   3.360   4.866 -0.8749  0.8427 -0.2792
    4MOL   C301 3667   1.879   3.453   4.978  0.3764 -0.5261 -0.9852
    4MOL   C302 3668   1.995   3.396   5.065 -0.5911 -0.7852 -0.0752
    4MOL   N303 3669   2.102   3.355   4.980 -0.2882 -0.3094  0.3208
    4MOL   H304 3670   1.984   1.818   4.365  0.7667  0.5944 -1.2090
    4MOL   H305 3671   1.958   1.990   4.384  1.5756 -1.6582 -2.5124
    4MOL   H306 3672   2.141   1.928   4.518 -0.6961 -0.4227 -1.1570
    4MOL   H307 3673   2.055   1.790   4.590 -2.4260  0.6492  0.7514
    4MOL   H308 3674   1.901   1.956   4.712 -1.2083  3.1824 -0.6474
    4MOL   H309 3675   2.060   1.970   4.759 -0.4446  0.2249 -0.7092
    4MOL   H310 3676   1.984   2.152   4.535  3.8335  1.0011 -0.4536
    4MOL   H311 3677   2.114   2.173   4.650  1.2229 -2.4920 -1.3901
    4MOL   H312 3678   1.815   2.180   4.692 -1.9257 -0.6326  2.6614
    4MOL   H313 3679   1.932   2.174   4.827 -1.1179 -1.5232 -0.6624
    4MOL   H314 3680   2.033   2.385   4.746  1.2326 -0.7639 -0.3821
    4MOL   H315 3681   1.908   2.415   4.638  1.2151  0.9134 -0.0239
    4MOL   H316 3682   1.870   2.395   4.943 -0.5857  0.5018  0.1202
    4MOL   H317 3683   1.743   2.433   4.843 -0.2049 -1.3140 -0.7249
    4MOL   H318 3684   1.808   2.646   4.793  2.7062  2.2879  0.0691
    4MOL   H319 3685   1.978   2.615   4.820  0.5912  0.5823  0.7626
    4MOL   H320 3686   1.765   2.633   5.025  1.0410 -1.9860  0.8902
    4MOL   H321 3687   1.932   2.589   5.061 -2.1891  0.4525  2.7544
    4MOL   H322 3688   1.906   2.811   5.108  0.9815 -2.3163  0.3438
    4MOL   H323 3689   2.006   2.799   4.967  0.2904  3.6901  0.2146
    4MOL   H324 3690   1.681   2.898   5.065  0.0268  1.9095  0.0162
    4MOL   H325 3691   1.553   3.070   4.994  0.5275 -0.1605  0.4576
    4MOL   H326 3692   1.554   2.979   4.835 -1.8560 -1.4717  1.5370
    4MOL   H327 3693   1.585   3.211   4.812  0.3711  0.3019 -0.0582
    4MOL   H328 3694   1.717   3.118   4.743 -0.6143  0.3709 -0.2235
    4MOL   H329 3695   1.857   3.149   4.948 -0.7348 -0.7973 -0.4549
    4MOL   H330 3696   1.728   3.230   5.019  0.5385  0.5818  0.1931
    4MOL   H331 3697   1.907   3.336   4.795 -1.5937 -1.5331 -0.3315
    4MOL   H332 3698   1.744   3.410   4.816  0.5192  2.5498 -0.9164
    4MOL   H333 3699   1.798   3.477   5.047 -0.0261 -0.4367 -1.4852
    4MOL   H334 3700   1.904   3.549   4.933 -0.8745  2.2859  4.0030
    4MOL   H335 3701   2.041   3.468   5.133  1.0857 -0.9786 -0.9815
    4MOL   H336 3702   1.947   3.319   5.126 -1.7254 -0.3323 -0.3835
    4MOL   H337 3703   2.113   3.419   4.903  1.6645 -0.5844  0.3358
    4MOL   C338 3704   2.172   3.245   4.994  0.4407  0.0766 -0.4564
    4MOL   O339 3705   2.157   3.168   5.082 -0.0469  0.0410  0.1499
    4MOL   C340 3706   2.279   3.220   4.891 -0.5110  0.4189  0.4307
    4MOL   C341 3707   2.256   3.084   4.818  0.3760  0.4703 -0.2068
    4MOL   C342 3708   2.128   3.100   4.732 -0.7639 -0.7237 -1.0136
    4MOL   C343 3709   2.137   3.216   4.627  0.0423 -0.2424 -0.9731
    4MOL   C344 3710   2.254   3.224   4.535 -0.5113  0.4466  0.4866
    4MOL   C345 3711   2.264   3.119   4.419  0.3315 -0.3176 -0.3864
    4MOL   C346 3712   2.144   3.105   4.327 -0.0262  0.1943 -0.1126
    4MOL   C347 3713   2.164   2.978   4.232 -0.7126 -1.1039  0.0781
    4MOL   C348 3714   2.052   2.956   4.130 -0.1770 -0.1809  0.2168
    4MOL   C349 3715   2.080   2.839   4.041 -0.3659  0.1554  0.0771
    4MOL   C350 3716   1.972   2.813   3.937  0.4715  0.6202 -0.5707
    4MOL   O351 3717   1.870   2.883   3.931  0.2575  0.2943 -0.4921
    4MOL   N352 3718   1.989   2.699   3.863  0.0933 -0.6274 -0.8415
    4MOL   C353 3719   1.889   2.623   3.782 -0.5550  0.1225 -0.2613
    4MOL   C354 3720   1.865   2.485   3.834 -0.9387  0.2549 -0.0658
    4MOL   C355 3721   1.789   2.392   3.738 -0.0624 -0.0224 -0.4641
    4MOL   C356 3722   1.772   2.248   3.778 -0.3751 -1.1955 -0.2371
    4MOL   C357 3723   1.728   2.161   3.667  0.2169  0.1720  0.4645
    4MOL   C358 3724   1.680   2.018   3.696 -0.3266  0.2853  0.8797
    4MOL   N359 3725   1.552   2.013   3.753 -0.7493 -0.2309 -0.4049
    4MOL   H360 3726   2.372   3.221   4.949 -0.1600  2.0350 -0.1310
    4MOL   H361 3727   2.297   3.307   4.828 -1.3184  0.9088  0.8764
    4MOL   H362 3728   2.328   3.051   4.743 -0.1815  0.3303 -0.6831
    4MOL   H363 3729   2.244   3.004   4.891  0.9315 -0.3425 -0.9957
    4MOL   H364 3730   2.048   3.128   4.800 -0.0600 -0.5006 -0.2566
    4MOL   H365 3731   2.107   3.006   4.682 -0.1457 -1.8966  0.8772
    4MOL   H366 3732   2.048   3.231   4.566  0.1244  0.8284 -0.8397
    4MOL   H367 3733   2.128   3.307   4.687 -1.6674 -1.3760  0.5485
    4MOL   H368 3734   2.234   3.319   4.484  2.6372  0.5889 -0.6233
    4MOL   H369 3735   2.347   3.248   4.587 -1.2097 -2.5078  3.2773
    4MOL   H370 3736   2.352   3.142   4.358  0.1270 -1.8319 -1.2652
    4MOL   H371 3737   2.288   3.026   4.469  0.1335  0.2675  0.8117
    4MOL   H372 3738   2.052   3.093   4.384  0.9982 -0.2207  1.4759
    4MOL   H373 3739   2.127   3.188   4.259  0.6942 -0.3867 -1.0189
    4MOL   H374 3740   2.259   2.987   4.179 -0.9454 -0.1980 -0.1884
    4MOL   H375 3741   2.185   2.886   4.286 -0.8776  0.0839  2.1815
    4MOL   H376 3742   2.048   3.040   4.061  0.1208  1.5618  2.2400
    4MOL   H377 3743   1.958   2.946   4.184 -0.3549 -0.6995 -0.1941
    4MOL   H378 3744   2.171   2.857   3.984 -1.8321 -0.8000 -2.6338
    4MOL   H379 3745   2.072   2.750   4.102 -2.8710  0.0236 -0.3929
    4MOL   H380 3746   2.077   2.650   3.868  0.2646 -0.3468 -1.0282
    4MOL   H381 3747   1.931   2.616   3.681  0.9706 -0.6458  0.4039
    4MOL   H382 3748   1.795   2.676   3.768 -1.7127 -1.5204  1.1364
    4MOL   H383 3749   1.813   2.493   3.929  0.9864  1.5454  0.9191
    4MOL   H384 3750   1.956   2.429   3.855 -2.9721 -2.3952  1.9531
    4MOL   H385 3751   1.688   2.434   3.735 -0.4227 -0.9759 -2.2791
    4MOL   H386 3752   1.840   2.405   3.643 -1.8924 -1.6580 -1.7027
    4MOL   H387 3753   1.871   2.221   3.817  0.3288  0.2894 -0.9255
    4MOL   H388 3754   1.701   2.239   3.860 -0.8611 -1.0824 -0.6467
    4MOL   H389 3755   1.812   2.162   3.598 -0.2706  3.2267 -0.1544
    4MOL   H390 3756   1.659   2.212   3.600  3.2309  0.9609 -2.1732
    4MOL   H391 3757   1.677   1.967   3.600  3.1316  0.9586  0.3399
    4MOL   H392 3758   1.756   1.959   3.747 -1.8604 -1.5863  1.0235
    4MOL   H393 3759   1.471   2.013   3.693 -0.6504  1.5416 -0.5910
    4MOL   C394 3760   1.509   2.016   3.882  0.0703  0.5168  0.5101
    4MOL   O395 3761   1.390   2.031   3.898  0.1607 -0.9143  0.6814
    4MOL   C396 3762   1.606   1.986   3.997 -0.0468  0.1135 -0.1473
    4MOL   C397 3763   1.540   1.945   4.126 -0.5388 -0.5584  0.3499
    4MOL   C398 3764   1.485   1.808   4.130 -0.1507  0.0057 -0.4154
    4MOL   C399 3765   1.585   1.685   4.153  0.2549  0.0021  0.2883
    4MOL   C400 3766   1.505   1.548   4.165 -0.0906  0.1546  0.0157
    4MOL   C401 3767   1.600   1.421   4.210  0.4484  0.3250  0.7669
    4MOL   C402 3768   1.504   1.300   4.242 -0.2437 -0.4901 -0.4629
    4MOL   C403 3769   1.573   1.173   4.295  0.2502  0.4313  0.6996
    4MOL   C404 3770   1.653   1.116   4.172  0.1333  0.3074  0.1439
    4MOL   C405 3771   1.676   0.966   4.182 -0.0251  0.0748  0.5954
    4MOL   C406 3772   1.801   0.929   4.268 -0.5785 -0.0102  0.2672
    4MOL   O407 3773   1.912   0.966   4.228 -0.3760  0.2165 -0.5286
    4MOL   N408 3774   1.781   0.856   4.376 -0.0059 -0.0043 -0.2648
    4MOL   C409 3775   1.891   0.814   4.467 -0.0706  0.1265 -0.2028
    4MOL   C410 3776   1.837   0.713   4.569  0.3663  0.4742 -0.2525
    4MOL   C411 3777   1.795   0.584   4.498  0.3825  0.2648  0.1936
    4MOL   C412 3778   1.777   0.459   4.590  0.2409  0.0091  0.8191
    4MOL   C413 3779   1.671   0.463   4.702 -0.3774  0.5702 -0.3550
    4MOL   C414 3780   1.529   0.507   4.667 -0.4942  0.2659 -0.1520
    4MOL   N415 3781   1.452   0.492   4.792  0.3325  0.4005  0.4457
    4MOL   H416 3782   1.669   2.073   4.015  1.0222 -1.0486  1.9133
    4MOL   H417 3783   1.675   1.913   3.956  0.6729 -0.2846  1.7164
    4MOL   H418 3784   1.466   2.020   4.153 -1.9222 -0.4880 -3.3552
    4MOL   H419 3785   1.619   1.940   4.200  0.2580 -1.4069 -0.5352
    4MOL   H420 3786   1.443   1.789   4.031 -1.5992  0.6942  0.0480
    4MOL   H421 3787   1.399   1.798   4.197  1.0044 -0.0497  1.0801
    4MOL   H422 3788   1.642   1.694   4.246 -0.8411 -0.8557  1.0654
    4MOL   H423 3789   1.651   1.667   4.069 -1.3444  1.6265 -1.3551
    4MOL   H424 3790   1.426   1.562   4.238 -0.9858 -1.3414 -0.6519
    4MOL   H425 3791   1.437   1.518   4.086 -1.0058 -1.8183  1.5022
    4MOL   H426 3792   1.664   1.395   4.126  2.1335  1.4390  1.6816
    4MOL   H427 3793   1.673   1.441   4.289 -1.0368  2.3910  1.6852
    4MOL   H428 3794   1.420   1.337   4.301  1.0516 -1.4850  2.0755
    4MOL   H429 3795   1.469   1.284   4.140  1.7779 -0.3457 -1.1938
    4MOL   H430 3796   1.629   1.179   4.389  0.0044 -1.2599  0.9645
    4MOL   H431 3797   1.492   1.104   4.318  0.0337  0.1092 -0.9655
    4MOL   H432 3798   1.756   1.148   4.161  0.1779  0.2917  0.5019
    4MOL   H433 3799   1.599   1.139   4.080 -0.3325 -0.8075  0.1269
    4MOL   H434 3800   1.580   0.917   4.201 -1.0884  2.2783  0.9830
    4MOL   H435 3801   1.695   0.932   4.080  1.1067 -1.6396  1.3469
    4MOL   H436 3802   1.689   0.816   4.386 -0.2764  0.9152  1.0960
    4MOL   H437 3803   1.932   0.906   4.509  3.3315 -0.7561 -1.4731
    4MOL   H438 3804   1.970   0.769   4.407 -0.8393  1.3723 -2.2017
    4MOL   H439 3805   1.765   0.773   4.624  0.8221  0.9579 -0.1900
    4MOL   H440 3806   1.920   0.695   4.637  2.2387  0.2488 -2.5485
    4MOL   H441 3807   1.704   0.601   4.441  0.7346 -0.0876 -0.4707
    4MOL   H442 3808   1.857   0.540   4.420 -3.6999 -1.1380 -2.4247
    4MOL   H443 3809   1.764   0.362   4.543 -1.8175 -0.0356  1.4315
    4MOL   H444 3810   1.876   0.450   4.635  0.5104 -0.6194  0.1043
    4MOL   H445 3811   1.670   0.371   4.760 -1.1111 -1.0240 -2.8195
    4MOL   H446 3812   1.697   0.539   4.776  1.4702 -1.6250  1.2857
    4MOL   H447 3813   1.527   0.613   4.640 -0.6822  1.0086  2.6028
    4MOL   H448 3814   1.489   0.449   4.583  3.3815 -2.9314  0.0422
    4MOL   H449 3815   1.440   0.573   4.852 -1.8395  0.1936  0.3176
    4MOL   C450 3816   1.375   0.381   4.817  0.1218 -0.4176  0.4441
    4MOL   O451 3817   1.364   0.289   4.734 -0.0609 -0.2251 -0.3018
    4MOL   C452 3818   1.295   0.381   4.945  0.3885 -0.0514  0.1652
    4MOL   C453 3819   1.383   0.373   5.066 -0.5366  0.1358  0.1837
    4MOL   C454 3820   1.464   0.242   5.097 -0.3831  0.7105  1.1260
    4MOL   C455 3821   1.545   0.266   5.221  0.5087  0.6152  0.0510
    4MOL   C456 3822   1.626   0.139   5.247 -0.4378  0.0908  0.1422
    4MOL   C457 3823   1.733   0.153   5.354 -0.1781  0.1958  0.0862
    4MOL   C458 3824   1.816   0.024   5.362  0.4545 -0.5398 -0.7715
    4MOL   C459 3825   1.911   7.688   5.247 -0.2939 -0.0617  0.3934
    4MOL   C460 3826   2.022   7.590   5.276 -0.5812  0.9711  0.2458
    4MOL   C461 3827   2.097   7.542   5.148 -0.4145 -0.5286  0.6107
    4MOL   C462 3828   2.015   7.459   5.045  0.2957 -0.3341 -0.0580
    4MOL   O463 3829   1.993   7.338   5.063  0.1359  0.4257 -0.0297
    4MOL   N464 3830   1.973   7.521   4.930  0.1841  0.2118  0.0478
    4MOL   C465 3831   1.932   7.443   4.811  0.3955 -0.0531  0.9934
    4MOL   C466 3832   1.873   7.541   4.710  0.4704 -0.2976 -1.0564
    4MOL   C467 3833   1.760   7.634   4.756  0.2559 -0.1388 -1.0643
    4MOL   C468 3834   1.715   0.045   4.649  0.3131 -0.0442 -0.0704
    4MOL   C469 3835   1.669   7.665   4.525 -0.2180 -0.1687  0.4511
    4MOL   C470 3836   1.603   0.073   4.428  0.4831  0.5772 -0.2624
    4MOL   N471 3837   1.551   0.002   4.315 -0.0522 -0.4001  0.7918
    4MOL   H472 3838   1.221   0.460   4.950  0.9479  0.7888 -3.2213
    4MOL   H473 3839   1.228   0.295   4.943 -0.6889  0.7893 -1.2024
    4MOL   H474 3840   1.329   0.384   5.160  0.6897  1.4741  0.7612
    4MOL   H475 3841   1.458   0.452   5.056 -0.6691  0.3693  1.0125
    4MOL   H476 3842   1.521   0.205   5.012  1.2443  0.6138  2.2367
    4MOL   H477 3843   1.409   0.153   5.128 -0.4124  1.1493  2.3690
    4MOL   H478 3844   1.476   0.275   5.305  1.1746 -1.6783  0.8646
    4MOL   H479 3845   1.617   0.348   5.216  0.1324  0.9957  0.8287
    4MOL   H480 3846   1.676   0.119   5.152 -1.1074  2.9838 -0.8653
    4MOL   H481 3847   1.563   0.056   5.278 -1.2521  0.9979  0.9812
    4MOL   H482 3848   1.679   0.172   5.447  2.1518  1.1996  1.2796
    4MOL   H483 3849   1.792   0.243   5.338 -2.8519  1.9322 -0.4200
    4MOL   H484 3850   1.875   0.031   5.453  1.1933 -0.2466 -1.2752
    4MOL   H485 3851   1.750   7.629   5.363 -1.3328  0.7645  1.6287
    4MOL   H486 3852   1.849   7.677   5.158 -0.6151 -0.7904  0.7050
    4MOL   H487 3853   1.966   0.088   5.226 -0.4448 -0.2546 -0.8789
    4MOL   H488 3854   1.975   7.500   5.315  1.1516  0.3865  1.0298
    4MOL   H489 3855   2.085   7.633   5.354  0.7608  0.1218 -0.3475
    4MOL   H490 3856   2.139   7.629   5.097 -0.7242 -1.2319 -0.8797
    4MOL   H491 3857   2.182   7.481   5.177  1.9437  1.7845 -1.2643
    4MOL   H492 3858   1.999   7.616   4.908  1.6626 -0.0938  0.4225
    4MOL   H493 3859   1.860   7.369   4.846  0.7061 -0.8879 -0.0940
    4MOL   H494 3860   2.020   7.388   4.777 -0.2684  0.0034 -0.8677
    4MOL   H495 3861   1.954   7.605   4.677 -0.1861  0.4201 -1.2983
    4MOL   H496 3862   1.850   7.472   4.629 -0.5547 -3.3255  1.7321
    4MOL   H497 3863   1.790   0.004   4.840 -0.3290 -0.3914 -0.6649
    4MOL   H498 3864   1.674   7.580   4.796  0.8101 -1.6088 -1.8120
    4MOL   H499 3865   1.799   0.109   4.625  0.9911 -0.9312 -0.0853
    4MOL   H500 3866   1.631   0.105   4.684  1.4717  1.3221  0.4239
    4MOL   H501 3867   1.747   7.612   4.469 -0.0973 -1.1889  1.5694
    4MOL   H502 3868   1.594   7.593   4.557  0.6780 -0.2663  2.3973
    4MOL   H503 3869   1.520   0.126   4.476  2.0073  3.6899 -1.0209
    4MOL   H504 3870   1.677   0.146   4.397  0.0784  0.7245 -0.8924
    4MOL   H505 3871   1.523   7.600   4.338  0.6232 -0.6183  0.7418
    4MOL   C506 3872   1.511   0.064   4.202  0.3060  0.0937  0.2375
    4MOL   O507 3873   1.542   0.180   4.170 -0.6579 -0.1373  0.0099
    4MOL   C508 3874   1.414   7.677   4.118  0.5325 -0.1438 -0.1197
    4MOL   C509 3875   1.411   0.018   3.966 -0.1825 -1.1128  0.3476
    4MOL   C510 3876   1.344   0.158   3.936 -0.2913 -0.3032  0.1801
    4MOL   C511 3877   1.204   0.180   3.981  0.5803 -0.0053  1.0761
    4MOL   C512 3878   1.155   0.327   3.950 -0.1367 -0.5062  0.0011
    4MOL   C513 3879   1.024   0.360   4.023  0.0705 -0.0979 -0.3462
    4MOL   C514 3880   0.988   0.509   4.030  0.3504 -0.0830 -0.2406
    4MOL   C515 3881   0.849   0.541   4.083  0.4822 -0.1764  0.3102
    4MOL   C516 3882   0.736   0.525   3.979  0.1710  0.5675 -0.7143
    4MOL   C517 3883   0.592   0.544   4.024  0.1724  0.3425  0.5086
    4MOL   C518 3884   0.516   0.425   4.077 -0.7083  0.1434 -0.5091
    4MOL   O519 3885   0.522   0.311   4.029 -0.2613 -0.0001  0.1631
    4MOL   N520 3886   0.457   0.442   4.193  0.1139  0.2019 -0.7209
    4MOL   C521 3887   0.386   0.344   4.280  0.4778 -0.8480 -0.4138
    4MOL   C522 3888   0.368   0.406   4.416 -0.0589  0.1194  0.6699
    4MOL   C523 3889   0.502   0.413   4.497 -0.1528  0.7682  0.8474
    4MOL   C524 3890   0.465   0.466   4.635  0.4212 -0.0739  0.4110
    4MOL   C525 3891   0.595   0.458   4.726  0.4544 -0.1381 -0.5037
    4MOL   C526 3892   0.575   0.542   4.853  0.6395  0.2116 -0.5823
    4MOL   N527 3893   0.651   0.487   4.965 -0.0844  0.8492  0.4589
    4MOL   H528 3894   1.319   7.664   4.171 -0.6559  0.6399 -1.9885
    4MOL   H529 3895   1.453   7.576   4.134  1.3844  0.0717 -0.7710
    4MOL   H530 3896   1.359   7.624   3.923 -0.3787 -2.6398  3.5190
    4MOL   H531 3897   1.515   0.002   3.939  0.1381 -1.9016  2.0033
    4MOL   H532 3898   1.348   0.179   3.829  0.4172 -0.3151  0.2083
    4MOL   H533 3899   1.415   0.228   3.978 -2.8899  2.5684 -0.0523
    4MOL   H534 3900   1.145   0.108   3.924  0.9341  0.9786 -0.5484
    4MOL   H535 3901   1.180   0.150   4.084  0.9664 -1.1019  0.8556
    4MOL   H536 3902   1.232   0.391   3.993 -0.9770 -0.0732  0.8877
    4MOL   H537 3903   1.146   0.351   3.845 -1.6024 -2.1883 -0.2888
    4MOL   H538 3904   0.945   0.313   3.966  1.9337 -1.0215 -2.2574
    4MOL   H539 3905   1.015   0.317   4.123 -2.0550 -0.9368 -0.8803
    4MOL   H540 3906   1.054   0.551   4.106  1.1724 -0.5818 -0.6631
    4MOL   H541 3907   1.008   0.552   3.932 -0.7710  1.0754  0.0329
    4MOL   H542 3908   0.827   0.483   4.172  0.7975  0.4098  0.7778
    4MOL   H543 3909   0.855   0.648   4.106  2.7383  0.1166 -1.3907
    4MOL   H544 3910   0.732   0.427   3.933 -0.1773  0.7996 -1.1877
    4MOL   H545 3911   0.756   0.609   3.912 -0.0804  1.9634  0.9085
    4MOL   H546 3912   0.577   0.632   4.087 -2.8522 -0.2568  0.7158
    4MOL   H547 3913   0.520   0.565   3.944 -1.9337 -1.8760  1.7797
    4MOL   H548 3914   0.459   0.541   4.215 -0.7115  0.2410 -0.7835
    4MOL   H549 3915   0.449   0.255   4.282  0.0056 -1.1650  1.5913
    4MOL   H550 3916   0.290   0.327   4.232 -0.3312 -0.2451  0.9668
    4MOL   H551 3917   0.302   0.335   4.465  0.3595 -0.6736  0.0955
    4MOL   H552 3918   0.311   0.499   4.414 -1.3465 -0.6704  0.3350
    4MOL   H553 3919   0.574   0.478   4.447 -0.3816  0.7002  0.4240
    4MOL   H554 3920   0.542   0.312   4.506 -3.4933 -0.4925  2.2702
    4MOL   H555 3921   0.390   0.404   4.683  0.1203 -0.1171 -0.1116
    4MOL   H556 3922   0.445   0.573   4.630  1.2528  0.0899  0.4762
    4MOL   H557 3923   0.611   0.353   4.750 -0.7558 -0.5115 -1.2685
    4MOL   H558 3924   0.686   0.502   4.686 -0.0782  0.7331 -0.7466
    4MOL   H559 3925   0.615   0.642   4.837 -0.4339  0.6174 -0.7682
    4MOL   H560 3926   0.470   0.545   4.883  0.5742  0.6298 -0.8517
    4MOL   H561 3927   0.694   0.397   4.953 -2.9985 -0.7671  1.6730
    4MOL   C562 3928   0.653   0.550   5.083 -0.6716  0.6815  0.7726
    4MOL   O563 3929   0.610   0.660   5.099 -0.3757 -0.0429  0.2738
    4MOL   C564 3930   0.715   0.476   5.206 -0.4769 -0.6569  0.1525
    4MOL   C565 3931   0.814   0.560   5.290 -0.5204  0.3386  0.1286
    4MOL   C566 3932   0.958   0.587   5.235  0.8043 -0.0487 -0.4265
    4MOL   C567 3933   1.071   0.591   5.342  0.0631  0.4616  0.1738
    4MOL   C568 3934   1.101   0.723   5.404 -0.4941 -0.6884 -0.3943
    4MOL   C569 3935   1.217   0.711   5.493 -0.5870  0.2194 -0.5432
    4MOL   C570 3936   1.283   0.844   5.550  0.3008  0.0670 -0.3260
    4MOL   C571 3937   1.199   0.910   5.667  0.0723 -0.1992 -0.4846
    4MOL   C572 3938   1.270   1.023   5.743  0.1355  0.3564  0.1716
    4MOL   C573 3939   1.179   1.099   5.849  0.4962  0.1738 -0.1847
    4MOL   C574 3940   1.065   1.182   5.787  0.1866  0.9692 -0.3899
    4MOL   O575 3941   1.093   1.269   5.703  0.1331 -0.5060 -0.4856
    4MOL   N576 3942   0.939   1.162   5.832 -0.1467  0.1052 -0.3586
    4MOL   C577 3943   0.837   1.255   5.789 -0.2529 -0.9155 -0.2697
    4MOL   C578 3944   0.696   1.221   5.826  0.4467  0.2868  0.4365
    4MOL   C579 3945   0.581   1.307   5.765  0.2453 -0.0008  0.7951
    4MOL   C580 3946   0.553   1.259   5.613  0.1287  0.6489  0.0831
    4MOL   C581 3947   0.465   1.353   5.530  0.5695  0.1597  0.0404
    4MOL   C582 3948   0.341   1.408   5.616  0.4754  0.6581  0.2523
    4MOL   N583 3949   0.268   1.494   5.522 -0.5356  0.5608 -0.2558
    4MOL   H584 3950   0.627   0.452   5.265 -0.7690  0.7285  0.3031
    4MOL   H585 3951   0.772   0.393   5.165 -1.0591 -1.0790  0.1921
    4MOL   H586 3952   0.762   0.648   5.329  0.3189  0.3820  1.1883
    4MOL   H587 3953   0.818   0.496   5.378 -2.1722 -1.0046 -0.7355
    4MOL   H588 3954   0.966   0.677   5.173  1.4920  1.1407  1.3444
    4MOL   H589 3955   0.979   0.504   5.168 -0.1726 -0.9171  0.3378
    4MOL   H590 3956   1.035   0.514   5.411 -0.9965 -1.2998 -2.2617
    4MOL   H591 3957   1.162   0.563   5.290 -0.8777 -0.2535 -1.1456
    4MOL   H592 3958   1.131   0.804   5.337  0.8275 -0.6296  0.2451
    4MOL   H593 3959   1.014   0.760   5.457 -1.4861  0.0531 -2.5272
    4MOL   H594 3960   1.189   0.651   5.580  1.9274 -2.3096 -1.4014
    4MOL   H595 3961   1.302   0.669   5.440  0.6791  3.3706 -1.1303
    4MOL   H596 3962   1.386   0.828   5.582  0.5055  2.1542  0.0844
    4MOL   H597 3963   1.301   0.921   5.475 -0.8150  1.0636  0.4091
    4MOL   H598 3964   1.170   0.836   5.741 -1.3676 -0.0349 -0.8762
    4MOL   H599 3965   1.109   0.952   5.622 -1.3779 -0.3296  2.1736
    4MOL   H600 3966   1.294   1.104   5.675  1.6985  1.1784  1.6431
    4MOL   H601 3967   1.360   0.992   5.797 -0.4719 -1.8570 -0.0359
    4MOL   H602 3968   1.134   1.024   5.914  1.4499  2.4790  3.2458
    4MOL   H603 3969   1.227   1.167   5.919  0.1589 -2.9479  3.2257
    4MOL   H604 3970   0.913   1.086   5.893 -1.0995  0.8543  0.1800
    4MOL   H605 3971   0.842   1.245   5.681  1.6984  1.5473 -0.4605
    4MOL   H606 3972   0.866   1.359   5.808 -0.8458 -0.7069 -0.4717
    4MOL   H607 3973   0.676   1.232   5.933  0.8510  3.7292  0.2354
    4MOL   H608 3974   0.684   1.118   5.792 -0.5438  0.8002 -0.8582
    4MOL   H609 3975   0.597   1.414   5.772 -2.2692  0.3629  1.4816
    4MOL   H610 3976   0.486   1.290   5.815 -0.0048 -0.0955  0.2897
    4MOL   H611 3977   0.652   1.246   5.569  0.6371 -3.0916  2.1028
    4MOL   H612 3978   0.511   1.159   5.602  1.4390  0.1497 -0.5429
    4MOL   H613 3979   0.428   1.293   5.446 -1.3188 -0.2833  1.1624
    4MOL   H614 3980   0.528   1.437   5.499  1.0166  0.8783  2.7834
    4MOL   H615 3981   0.283   1.330   5.665 -0.4992  1.6814  0.7537
    4MOL   H616 3982   0.372   1.479   5.693  0.4860  2.1205 -1.0831
    4MOL   H617 3983   0.321   1.543   5.451 -1.5335  1.3490 -0.4531
    4MOL   C618 3984   0.138   1.498   5.501  0.3639  0.1996 -0.0955
    4MOL   O619 3985   0.052   1.444   5.576 -0.0839 -0.1543 -0.0205
    4MOL   C620 3986   0.090   1.576   5.372  0.3000 -0.1861  0.1548
    4MOL   C621 3987   7.678   1.498   5.278 -0.1773 -0.4153  0.0988
    4MOL   C622 3988   7.636   1.565   5.142 -0.2570  0.4408  0.4514
    4MOL   C623 3989   7.489   1.614   5.145 -0.0887 -0.1485 -0.0571
    4MOL   C624 3990   7.425   1.694   5.027 -0.3181 -0.4962 -0.2086
    4MOL   C625 3991   7.420   1.619   4.897 -0.4902  0.4669 -0.0339
    4MOL   C626 3992   7.330   1.491   4.899 -0.2358 -0.1411 -0.0622
    4MOL   C627 3993   7.298   1.448   4.753  0.7082 -0.0258  0.4126
    4MOL   C628 3994   7.191   1.338   4.751 -0.0801  0.4005 -0.1827
    4MOL   C629 3995   7.142   1.284   4.617 -0.2670 -0.0537  0.2152
    4MOL   C630 3996   7.042   1.380   4.549  0.2564 -0.4320 -0.4812
    4MOL   O631 3997   6.974   1.457   4.615  0.6730 -0.7256  0.2966
    4MOL   N632 3998   7.014   1.355   4.420  0.2592 -0.1090  0.4476
    4MOL   C633 3999   6.930   1.430   4.331  0.1371 -0.4876 -0.2713
    4MOL   C634 4000   7.007   1.486   4.212  0.5055 -0.3603 -0.3952
    4MOL   C635 4001   6.909   1.533   4.103 -0.4896 -0.3066  0.1905
    4MOL   C636 4002   6.827   1.420   4.033 -0.0661 -0.3262 -0.1864
    4MOL   C637 4003   6.752   1.463   3.907  0.0441 -0.1861  0.0578
    4MOL   C638 4004   6.696   1.343   3.833 -0.0105 -0.1107  0.3182
    4MOL   N639 4005   6.803   1.259   3.784 -0.7349 -0.1047  0.3089
    4MOL   H640 4006   0.182   1.588   5.314  0.8513 -1.4403  0.7500
    4MOL   H641 4007   0.044   1.671   5.398 -0.9262 -1.4653  2.8005
    4MOL   H642 4008   7.591   1.476   5.340  0.7792 -0.8182  1.3358
    4MOL   H643 4009   0.037   1.402   5.270  0.8052 -0.1998  2.9728
    4MOL   H644 4010   7.646   1.474   5.083  0.8868 -0.8357  2.5580
    4MOL   H645 4011   0.012   1.646   5.112 -0.2652 -0.3262 -1.6812
    4MOL   H646 4012   7.416   1.536   5.165 -0.3487  0.8742  3.2866
    4MOL   H647 4013   7.474   1.678   5.232 -0.3021 -0.5190  0.1828
    4MOL   H648 4014   7.325   1.729   5.053 -0.0799 -0.0694  0.1532
    4MOL   H649 4015   7.472   1.792   5.013 -1.6478 -0.0397 -1.6546
    4MOL   H650 4016   7.519   1.598   4.858 -0.3962  0.6033  0.1300
    4MOL   H651 4017   7.372   1.687   4.827  0.1979 -1.1313 -2.1132
    4MOL   H652 4018   7.371   1.407   4.955  1.0229 -2.0477 -3.6328
    4MOL   H653 4019   7.239   1.502   4.957  0.9486  0.6484  1.6696
    4MOL   H654 4020   7.262   1.537   4.703 -1.7130 -1.7809 -1.0590
    4MOL   H655 4021   7.388   1.423   4.696 -0.6474 -1.2389 -1.2214
    4MOL   H656 4022   7.108   1.391   4.797 -0.9533 -1.8468  0.8991
    4MOL   H657 4023   7.215   1.247   4.806 -1.0062  1.0527  1.3482
    4MOL   H658 4024   7.228   1.271   4.552  0.2019  0.1786  0.7790
    4MOL   H659 4025   7.094   1.187   4.631 -0.9483  0.3942  1.0329
    4MOL   H660 4026   7.048   1.268   4.381  2.6139  0.2515  1.6289
    4MOL   H661 4027   6.849   1.367   4.295  1.2103 -1.8374 -0.3899
    4MOL   H662 4028   6.886   1.519   4.374  0.7406 -0.5045  0.3857
    4MOL   H663 4029   7.084   1.421   4.171  2.1131  1.0908  0.2968
    4MOL   H664 4030   7.073   1.567   4.241 -0.7664  0.3358  0.6005
    4MOL   H665 4031   6.837   1.605   4.143  0.1329  0.0562  0.6713
    4MOL   H666 4032   6.967   1.582   4.025 -1.1590 -1.9130 -1.3628
    4MOL   H667 4033   6.743   1.385   4.094 -0.7406 -0.5735 -1.2511
    4MOL   H668 4034   6.889   1.336   4.001  1.7877  1.0496 -0.2605
    4MOL   H669 4035   6.677   1.538   3.930 -2.8222 -2.8677 -0.2797
    4MOL   H670 4036   6.818   1.523   3.845 -1.8705  1.4886 -0.4139
    4MOL   H671 4037   6.620   1.295   3.894 -1.2373  1.6712  0.2057
    4MOL   H672 4038   6.641   1.390   3.751 -1.4860 -1.4723  0.5021
    4MOL   H673 4039   6.897   1.291   3.802 -1.0781  0.4230  1.2649
    4MOL   C674 4040   6.779   1.165   3.692  0.0144 -0.1927 -0.0949
    4MOL   O675 4041   6.669   1.126   3.664  0.4970 -0.5861 -0.1259
    4MOL   C676 4042   6.903   1.105   3.633 -0.4120  0.4284  0.2896
    4MOL   C677 4043   6.872   1.004   3.530  0.2152  0.1329  0.2431
    4MOL   C678 4044   6.993   0.936   3.472  0.2099  0.7413 -0.2957
    4MOL   C679 4045   7.100   1.020   3.413  0.1812  0.5494  0.4215
    4MOL   C680 4046   7.200   0.935   3.340 -0.1425  0.7302 -0.4396
    4MOL   C681 4047   7.286   0.832   3.418 -0.1587 -0.2055  0.7844
    4MOL   C682 4048   7.407   0.787   3.349  0.1802  0.2809 -0.1174
    4MOL   C683 4049   7.486   0.684   3.432  0.0786 -0.0675  0.0628
    4MOL   C684 4050   7.621   0.636   3.361 -0.0011  0.4078 -0.8589
    4MOL   C685 4051   0.009   0.546   3.462  0.9344  0.5622 -0.4622
    4MOL   C686 4052   7.645   0.407   3.479  0.0670  0.0195 -0.4052
    4MOL   O687 4053   7.542   0.380   3.541 -0.2516  0.2173 -0.0177
    4MOL   N688 4054   0.012   0.315   3.404 -0.2859 -0.7672  0.4479
    4MOL   C689 4055   7.690   0.170   3.400 -0.3497  0.5026 -0.5186
    4MOL   C690 4056   0.048   0.103   3.533 -0.3318 -0.9849 -0.3777
    4MOL   C691 4057   0.060   7.644   3.533  0.1021 -0.5767  0.1950
    4MOL   C692 4058   0.077   7.578   3.676 -0.4228  0.3936 -0.7997
    4MOL   C693 4059   0.103   7.428   3.656  0.0139 -0.4267  0.1303
    4MOL   C694 4060   0.125   7.334   3.776  0.1812 -0.3063  0.1987
    4MOL   N695 4061   0.153   7.193   3.739  0.3217 -0.3391  0.4530
    4MOL   H696 4062   6.964   1.060   3.711 -1.1216  1.0707  1.2280
    4MOL   H697 4063   6.959   1.181   3.580 -1.6375  0.5463 -0.8731
    4MOL   H698 4064   6.812   1.056   3.454 -1.2006 -0.0702  1.1994
    4MOL   H699 4065   6.805   0.929   3.571 -0.1734  0.0418 -0.5537
    4MOL   H700 4066   7.028   0.866   3.547  0.6144  0.7975 -0.4298
    4MOL   H701 4067   6.957   0.867   3.396 -2.6953  0.6240  1.1187
    4MOL   H702 4068   7.158   1.068   3.492  2.3263  0.4617 -1.0615
    4MOL   H703 4069   7.059   1.093   3.344  1.9158 -0.8452 -2.1627
    4MOL   H704 4070   7.270   1.006   3.296  1.9451 -0.5387  0.7483
    4MOL   H705 4071   7.155   0.888   3.253  0.9540  1.0476 -1.2002
    4MOL   H706 4072   7.312   0.875   3.515 -0.2117 -2.6389  1.9122
    4MOL   H707 4073   7.213   0.752   3.427  0.2147 -0.6921 -0.5032
    4MOL   H708 4074   7.385   0.742   3.252 -1.3139 -1.3312  0.9411
    4MOL   H709 4075   7.474   0.870   3.327  1.1080 -0.4106  0.1098
    4MOL   H710 4076   7.506   0.729   3.530 -0.5552  2.0525 -0.7413
    4MOL   H711 4077   7.415   0.602   3.443  1.7734 -1.7201 -1.1358
    4MOL   H712 4078   7.680   0.719   3.323  1.8204  0.0095  1.0202
    4MOL   H713 4079   7.593   0.590   3.266  0.7258  0.4928 -1.1143
    4MOL   H714 4080   0.112   0.547   3.428  0.5272 -1.7178 -1.8644
    4MOL   H715 4081   7.689   0.585   3.563  0.4346 -1.2304  0.1938
    4MOL   H716 4082   0.084   0.342   3.338  2.3793 -2.6446  2.4540
    4MOL   H717 4083   7.597   0.129   3.360 -0.2020  1.0674 -1.4747
    4MOL   H718 4084   0.061   0.148   3.314 -1.2361  0.6196 -1.2079
    4MOL   H719 4085   7.666   0.125   3.610  0.7658  0.2840  0.3324
    4MOL   H720 4086   0.146   0.149   3.549 -0.5720 -0.3916 -0.5912
    4MOL   H721 4087   7.664   7.592   3.495 -1.5928  2.3427 -0.0174
    4MOL   H722 4088   0.144   7.612   3.471  1.6422 -0.7447  2.2922
    4MOL   H723 4089   7.678   7.604   3.731  0.6693  2.0262  0.2724
    4MOL   H724 4090   0.157   7.626   3.732 -1.1470  2.2175 -1.2809
    4MOL   H725 4091   0.190   7.417   3.592  0.0241  0.2644  0.0172
    4MOL   H726 4092   0.010   7.400   3.606  0.1784  0.9290 -0.9732
    4MOL   H727 4093   0.204   7.369   3.843  0.4321 -2.1274  0.8863
    4MOL   H728 4094   0.040   7.344   3.844 -0.0525  0.9673 -0.2669
    4MOL   H729 4095   0.179   7.180   3.642  1.2387  0.5685  0.5610
    4MOL   C730 4096   0.140   7.084   3.819  0.6211 -0.6720  0.5846
    4MOL   O731 4097   0.101   7.089   3.936 -0.0285  0.6194  0.4533
    4MOL   C732 4098   0.153   6.948   3.742  0.2992 -0.6241 -0.3410
    4MOL   C733 4099   0.046   6.842   3.765 -0.0105 -0.4049  0.5537
    4MOL   C734 4100   7.608   6.863   3.687 -0.0372  0.9715  0.6756
    4MOL   C735 4101   7.526   6.727   3.688 -0.3429  0.3925  0.1612
    4MOL   C736 4102   7.488   6.685   3.836 -0.6043 -0.1278  0.8920
    4MOL   C737 4103   7.385   6.565   3.839 -0.2029  0.6030 -0.5188
    4MOL   C738 4104   7.435   6.424   3.791 -1.0076 -0.1972  0.0347
    4MOL   C739 4105   7.328   6.305   3.797  0.1772  0.2086 -1.2180
    4MOL   C740 4106   7.382   6.161   3.771 -0.7362 -0.4923 -0.5696
    4MOL   C741 4107   7.265   6.072   3.797  0.2559  0.2035 -0.1880
    4MOL   C742 4108   7.285   5.936   3.731 -0.8604  0.7210  0.1843
    4MOL   O743 4109   7.261   5.923   3.611 -0.2313  0.1841  0.4446
    4MOL   N744 4110   7.334   5.835   3.805  0.2497  0.4376  0.0557
    4MOL   C745 4111   7.386   5.710   3.739  0.1896  0.1354  0.5088
    4MOL   C746 4112   7.282   5.598   3.749 -0.3221 -0.9233  0.2864
    4MOL   C747 4113   7.244   5.565   3.894 -0.8327 -0.0759  0.5341
    4MOL   C748 4114   7.136   5.456   3.918 -0.4314  0.3218 -0.4884
    4MOL   C749 4115   7.197   5.322   3.917  0.0011  0.4091 -1.2963
    4MOL   C750 4116   7.089   5.213   3.902  0.4274 -0.2859 -0.4521
    4MOL   N751 4117   7.025   5.211   3.776 -0.1369 -0.3143 -0.0045
    4MOL   H752 4118   0.240   6.896   3.784  0.9504  0.8931  0.2071
    4MOL   H753 4119   0.158   6.966   3.634  1.7129 -0.6132 -0.2840
    4MOL   H754 4120   0.029   6.815   3.869  0.9268 -0.5932  0.6663
    4MOL   H755 4121   0.090   6.748   3.730 -0.0304 -0.3108  0.2790
    4MOL   H756 4122   7.625   6.903   3.587  1.8691  0.4087  0.7715
    4MOL   H757 4123   7.557   6.943   3.741  0.0997  2.6125 -1.5434
    4MOL   H758 4124   7.585   6.649   3.639 -4.3537 -2.1556 -0.8332
    4MOL   H759 4125   7.437   6.747   3.629 -0.5335  1.4566  0.7932
    4MOL   H760 4126   7.455   6.776   3.887 -0.3163 -0.2082  1.2259
    4MOL   H761 4127   7.577   6.665   3.895  0.6308  1.0861 -0.5141
    4MOL   H762 4128   7.347   6.552   3.941 -0.4343 -0.9782 -0.7937
    4MOL   H763 4129   7.298   6.586   3.778  0.0175 -0.7199 -1.3104
    4MOL   H764 4130   7.472   6.441   3.691 -0.9721  1.1663  0.2777
    4MOL   H765 4131   7.520   6.398   3.855 -2.0153 -0.9652  1.0988
    4MOL   H766 4132   7.285   6.316   3.897  2.1409  0.0804 -0.3379
    4MOL   H767 4133   7.241   6.325   3.733 -1.0456  0.5997  0.5284
    4MOL   H768 4134   7.465   6.141   3.838 -1.4598 -0.9910  0.1960
    4MOL   H769 4135   7.416   6.140   3.670 -2.1464  0.9487 -1.3789
    4MOL   H770 4136   7.259   6.058   3.905  0.6115  0.3269 -0.1498
    4MOL   H771 4137   7.168   6.105   3.762 -1.1072 -2.4016  1.0236
    4MOL   H772 4138   7.369   5.853   3.898  0.9601  1.2257 -0.3568
    4MOL   H773 4139   7.480   5.689   3.790  1.5558  2.3503 -0.9987
    4MOL   H774 4140   7.422   5.731   3.638  0.5052  3.8201  1.3224
    4MOL   H775 4141   7.312   5.506   3.699 -2.2181 -0.7281 -1.2491
    4MOL   H776 4142   7.192   5.626   3.694  0.4304 -2.3319 -1.7025
    4MOL   H777 4143   7.211   5.657   3.943 -1.7047 -0.5661  0.8739
    4MOL   H778 4144   7.328   5.537   3.957 -0.4765 -0.0409  0.0761
    4MOL   H779 4145   7.075   5.471   4.007 -0.3761  2.9202 -0.8491
    4MOL   H780 4146   7.074   5.461   3.828  1.4955 -0.3154 -1.8763
    4MOL   H781 4147   7.254   5.305   4.008  0.7987 -1.8558 -2.1809
    4MOL   H782 4148   7.268   5.308   3.836  0.9714  3.7377 -1.1195
    4MOL   H783 4149   7.135   5.118   3.927  1.3704  0.0345 -0.9569
    4MOL   H784 4150   7.012   5.223   3.979  0.4500 -0.8182 -0.3533
    4MOL   H785 4151   7.046   5.286   3.712  1.2980  0.8947  1.8275
    4MOL   C786 4152   6.931   5.121   3.752  0.1461 -0.1190  0.0790
    4MOL   O787 4153   6.899   5.035   3.830 -0.0678  0.2061 -0.4100
    4MOL   C788 4154   6.857   5.133   3.622 -0.0725  0.1083 -0.4849
    4MOL   C789 4155   6.726   5.220   3.633 -0.2590  0.1618 -0.1930
    4MOL   C790 4156   6.704   5.290   3.495  0.0205  0.1746 -0.2076
    4MOL   C791 4157   6.580   5.377   3.492  0.5027 -0.2589  0.1842
    4MOL   C792 4158   6.451   5.294   3.503 -0.1253 -0.0216 -0.1686
    4MOL   C793 4159   6.328   5.378   3.518  0.0886  0.7605  0.5582
    4MOL   C794 4160   6.292   5.422   3.663 -1.0427  0.4698 -0.0071
    4MOL   C795 4161   6.182   5.525   3.667  0.1565  0.0935 -0.6086
    4MOL   C796 4162   6.149   5.572   3.812 -0.7367 -0.2213  1.2178
    4MOL   C797 4163   6.035   5.670   3.833  0.2077 -0.1548 -0.1649
    4MOL   C798 4164   6.029   5.795   3.752 -0.1866 -0.4543 -0.4364
    4MOL   O799 4165   6.126   5.867   3.759  0.2507 -0.0014 -0.3397
    4MOL   N800 4166   5.917   5.816   3.677 -0.0259 -0.8152 -0.3990
    4MOL   C801 4167   5.887   5.933   3.585  0.1007  0.0555 -0.4707
    4MOL   C802 4168   5.866   5.894   3.437 -0.5180  0.5349 -0.8071
    4MOL   C803 4169   5.786   5.764   3.426  0.4331  0.0039  0.6362
    4MOL   C804 4170   5.634   5.787   3.471 -0.0649  0.1242  0.0638
    4MOL   C805 4171   5.563   5.653   3.462 -0.7069  0.5748  0.2773
    4MOL   C806 4172   5.409   5.680   3.454 -0.1293  0.0212  0.4954
    4MOL   N807 4173   5.338   5.554   3.437 -0.3136  0.0573 -0.2469
    4MOL   H808 4174   6.816   5.038   3.590 -2.7941  1.1296 -0.1205
    4MOL   H809 4175   6.923   5.165   3.541  0.6437 -1.1126 -0.3904
    4MOL   H810 4176   6.652   5.149   3.672  1.6300 -0.5194  2.2600
    4MOL   H811 4177   6.744   5.300   3.705  0.7331 -0.4015  0.1950
    4MOL   H812 4178   6.704   5.220   3.411  2.1426 -0.6876  0.4798
    4MOL   H813 4179   6.788   5.357   3.477  0.4538 -0.0733  0.8861
    4MOL   H814 4180   6.577   5.448   3.574 -0.6620  0.6662 -0.6452
    4MOL   H815 4181   6.582   5.442   3.404  0.1390 -0.5508 -0.0395
    4MOL   H816 4182   6.450   5.240   3.409  0.3124  1.4823 -1.0440
    4MOL   H817 4183   6.456   5.217   3.581  0.1058 -0.3939 -0.5515
    4MOL   H818 4184   6.333   5.472   3.465 -3.1728  1.8531  2.0747
    4MOL   H819 4185   6.250   5.312   3.480 -1.2379  3.2986 -1.2590
    4MOL   H820 4186   6.268   5.332   3.719  0.7065  0.2341  0.3839
    4MOL   H821 4187   6.386   5.470   3.690 -0.7587  1.0482 -1.9085
    4MOL   H822 4188   6.205   5.607   3.600  0.2663 -0.0090 -0.6957
    4MOL   H823 4189   6.092   5.488   3.617  0.0186 -0.0099 -0.2920
    4MOL   H824 4190   6.242   5.622   3.840 -0.5296  0.6324 -0.8902
    4MOL   H825 4191   6.138   5.488   3.881  0.7587 -0.6542  0.9356
    4MOL   H826 4192   5.944   5.611   3.827  1.1257 -1.5066 -1.1144
    4MOL   H827 4193   6.029   5.698   3.938  0.0328 -1.1432  0.0935
    4MOL   H828 4194   5.846   5.744   3.679  0.3300 -1.1998 -1.5386
    4MOL   H829 4195   5.975   5.997   3.584 -1.3196  2.0698 -1.6704
    4MOL   H830 4196   5.805   5.990   3.630  0.7519 -0.0443  0.8711
    4MOL   H831 4197   5.965   5.886   3.394 -1.0394 -0.8079 -1.7890
    4MOL   H832 4198   5.822   5.973   3.375 -0.3900  0.6756 -0.7191
    4MOL   H833 4199   5.792   5.718   3.328  0.6816 -2.0762  1.5946
    4MOL   H834 4200   5.839   5.683   3.477 -0.5395 -0.8737  0.2768
    4MOL   H835 4201   5.595   5.855   3.395  2.4337  0.5583 -0.9055
    4MOL   H836 4202   5.621   5.832   3.569 -0.2257 -2.4323  1.2384
    4MOL   H837 4203   5.587   5.584   3.543 -0.1534 -0.3866 -0.6848
    4MOL   H838 4204   5.585   5.602   3.368  0.3965  0.4944  0.5688
    4MOL   H839 4205   5.364   5.732   3.369 -0.2746  1.5033  1.4595
    4MOL   H840 4206   5.364   5.720   3.545 -1.2987 -2.1933  0.9351
    4MOL   H841 4207   5.392   5.469   3.424 -0.8073 -0.6162  1.9337
    4MOL   C842 4208   5.209   5.536   3.432  0.1124  0.1048  0.3178
    4MOL   O843 4209   5.131   5.635   3.442  0.3897 -0.1328 -0.8885
    4MOL   C844 4210   5.149   5.396   3.418  0.4491 -0.8903 -0.1869
    4MOL   C845 4211   5.031   5.391   3.322 -0.7481 -0.2504  0.4976
    4MOL   C846 4212   5.025   5.262   3.240  0.2727 -0.0410  0.1762
    4MOL   C847 4213   4.895   5.250   3.158 -0.2809 -0.0721 -0.4740
    4MOL   C848 4214   4.878   5.132   3.068  0.3709 -0.5809  0.0418
    4MOL   C849 4215   4.745   5.118   3.001 -0.1131  0.6330  0.4230
    4MOL   C850 4216   4.727   4.996   2.913 -0.7893  0.5124 -0.2490
    4MOL   C851 4217   4.811   4.996   2.783  0.0027 -0.9640  0.1293
    4MOL   C852 4218   4.790   4.862   2.718  0.0761  0.0967 -0.1753
    4MOL   C853 4219   4.884   4.857   2.600 -0.1241 -0.5671 -0.3282
    4MOL   C854 4220   5.024   4.808   2.632 -0.4729  0.4978  0.5847
    4MOL   O855 4221   5.049   4.716   2.708 -0.5789  0.1500  0.2551
    4MOL   N856 4222   5.122   4.882   2.576  0.0028 -0.3902  0.4651
    4MOL   C857 4223   5.266   4.883   2.600  0.1763  0.4433  0.3207
    4MOL   C858 4224   5.329   5.024   2.638 -0.4480 -0.0764  0.1980
    4MOL   C859 4225   5.278   5.069   2.780  0.4925  0.8248  0.1384
    4MOL   C860 4226   5.368   5.168   2.855 -0.4096 -0.3974  0.3272
    4MOL   C861 4227   5.307   5.209   2.987 -0.2496  1.1503 -0.6864
    4MOL   C862 4228   5.377   5.320   3.058  0.3019  0.1689  0.2358
    4MOL   N863 4229   5.509   5.288   3.094 -0.1384  0.7430  0.2512
    4MOL   H864 4230   5.122   5.354   3.515  0.3740  1.0071  0.6289
    4MOL   H865 4231   5.225   5.331   3.374  1.8428 -0.1181  1.0560
    4MOL   H866 4232   5.019   5.481   3.261 -0.1549 -0.2154  0.4283
    4MOL   H867 4233   4.946   5.398   3.390  0.3826 -1.5453  2.1156
    4MOL   H868 4234   5.107   5.269   3.168  1.7161  0.2712  1.8349
    4MOL   H869 4235   5.036   5.174   3.303  0.5567  0.5127  0.9003
    4MOL   H870 4236   4.896   5.340   3.095  1.0756  0.1733 -0.1063
    4MOL   H871 4237   4.808   5.261   3.223 -0.5357 -0.4569 -0.7462
    4MOL   H872 4238   4.955   5.140   2.991 -1.6837  0.3841 -1.9499
    4MOL   H873 4239   4.894   5.039   3.123  0.8210  0.6670  2.0903
    4MOL   H874 4240   4.665   5.120   3.076 -0.2274  0.7449  0.2978
    4MOL   H875 4241   4.731   5.209   2.943  2.0913  2.0379  2.0045
    4MOL   H876 4242   4.743   4.911   2.979 -1.2209  1.5957  1.2914
    4MOL   H877 4243   4.623   4.999   2.880 -0.3075 -0.2682 -1.8765
    4MOL   H878 4244   4.913   5.028   2.807  0.0657 -1.3826  0.4181
    4MOL   H879 4245   4.765   5.070   2.717 -0.5738 -2.3747 -1.0756
    4MOL   H880 4246   4.687   4.848   2.686 -0.7925 -0.4438  2.7072
    4MOL   H881 4247   4.812   4.778   2.784  2.1142 -0.8275 -1.9563
    4MOL   H882 4248   4.855   4.790   2.519  0.7688 -0.4099 -0.7780
    4MOL   H883 4249   4.881   4.959   2.563  0.6184  0.2916  1.9064
    4MOL   H884 4250   5.091   4.957   2.517  0.6441  0.9292  1.7772
    4MOL   H885 4251   5.298   4.855   2.499 -2.8600 -0.6302 -0.3834
    4MOL   H886 4252   5.308   4.811   2.671 -0.7450  1.5164  1.9817
    4MOL   H887 4253   5.313   5.109   2.572  1.2608 -0.2658 -0.4830
    4MOL   H888 4254   5.438   5.017   2.631 -0.3118  0.3585  1.7698
    4MOL   H889 4255   5.276   4.982   2.846 -0.8592 -0.1850 -1.1800
    4MOL   H890 4256   5.174   5.101   2.781  1.5408  4.3584  0.1665
    4MOL   H891 4257   5.379   5.257   2.792 -0.8681  1.2498  2.5194
    4MOL   H892 4258   5.470   5.135   2.870 -0.5400  0.6610  4.0374
    4MOL   H893 4259   5.204   5.241   2.972  0.5530  2.9378 -2.5224
    4MOL   H894 4260   5.302   5.122   3.053 -0.6893  1.2043 -0.6498
    4MOL   H895 4261   5.379   5.408   2.992  0.5072 -0.9535 -1.2863
    4MOL   H896 4262   5.317   5.353   3.142 -0.5626  0.6958 -0.5781
    4MOL   H897 4263   5.574   5.259   3.022 -0.5871 -0.7148  0.4245
    4MOL   C898 4264   5.563   5.305   3.216 -0.0177 -0.2189  0.3697
    4MOL   O899 4265   5.493   5.335   3.312 -0.1588 -0.0173 -0.7612
    4MOL   C900 4266   5.716   5.290   3.235  0.3604 -0.6017 -0.3333
    4MOL   C901 4267   5.746   5.143   3.258  0.0444  0.5031 -0.3207
    4MOL   C902 4268   5.898   5.117   3.283  0.7985 -0.2992 -0.5604
    4MOL   C903 4269   5.934   4.968   3.297  0.5754 -0.3775 -0.3365
    4MOL   C904 4270   6.084   4.944   3.308  0.5270  0.6017 -0.5181
    4MOL   C905 4271   6.139   4.954   3.457 -0.0311  0.2818 -0.1572
    4MOL   C906 4272   6.290   4.943   3.462  0.2547  0.3336 -0.2154
    4MOL   C907 4273   6.347   4.941   3.608 -0.8014  0.1095  0.0354
    4MOL   C908 4274   6.500   4.896   3.616  0.8126 -0.5165 -0.5441
    4MOL   C909 4275   6.556   4.902   3.757  0.6968  0.1640 -0.2461
    4MOL   C910 4276   6.501   4.790   3.846  0.2592 -0.6891 -0.1188
    4MOL   O911 4277   6.424   4.822   3.936  0.5620  0.0894  0.1243
    4MOL   N912 4278   6.560   4.674   3.840  0.3245  0.0557 -0.3429
    4MOL   C913 4279   6.556   4.567   3.942 -0.3144 -0.9608 -0.2856
    4MOL   C914 4280   6.565   4.429   3.884  0.1800 -0.2638  1.2185
    4MOL   C915 4281   6.530   4.322   3.985 -0.1551 -0.3231 -0.3482
    4MOL   C916 4282   6.506   4.181   3.926  0.4485  0.0231 -0.2300
    4MOL   C917 4283   6.521   4.076   4.031  0.7942  0.0527  0.2701
    4MOL   C918 4284   6.392   3.989   4.036  0.4995 -0.1844  0.4195
    4MOL   N919 4285   6.397   3.887   4.132 -0.4768  0.7001 -0.0747
    4MOL   H920 4286   5.778   5.339   3.160 -2.7408  0.5224 -2.2525
    4MOL   H921 4287   5.743   5.349   3.322  0.8856 -0.9056 -0.2908
    4MOL   H922 4288   5.706   5.079   3.180 -0.8870  1.2347 -0.4602
    4MOL   H923 4289   5.685   5.108   3.340 -0.1592 -0.0572 -0.7091
    4MOL   H924 4290   5.941   5.171   3.367 -0.4727 -0.1284 -0.0186
    4MOL   H925 4291   5.946   5.160   3.195 -1.2192  1.7802 -0.6704
    4MOL   H926 4292   5.888   4.923   3.384  0.5306 -1.7049 -1.0409
    4MOL   H927 4293   5.890   4.913   3.214 -0.8045  0.2877 -0.0469
    4MOL   H928 4294   6.153   5.003   3.248 -0.9599  0.9252 -1.9192
    4MOL   H929 4295   6.110   4.843   3.275 -0.2392 -0.1387  1.0641
    4MOL   H930 4296   6.110   5.045   3.510  0.1062  1.4042 -1.9675
    4MOL   H931 4297   6.091   4.873   3.513  0.0184  0.2874 -0.1077
    4MOL   H932 4298   6.338   5.021   3.403  0.5535  1.5140  1.5334
    4MOL   H933 4299   6.321   4.847   3.422 -0.0793  0.0271  0.2594
    4MOL   H934 4300   6.284   4.880   3.671  1.5921 -1.9572  0.5196
    4MOL   H935 4301   6.340   5.043   3.647 -2.9813  0.1948 -0.5091
    4MOL   H936 4302   6.504   4.794   3.579  2.1298 -0.6223 -0.1195
    4MOL   H937 4303   6.563   4.957   3.551  1.9506 -1.0500  0.0574
    4MOL   H938 4304   6.665   4.899   3.754  0.6927  1.1996 -2.3544
    4MOL   H939 4305   6.541   5.001   3.801 -2.9215  0.3597 -1.8255
    4MOL   H940 4306   6.635   4.669   3.772  1.2398  1.9232  0.5027
    4MOL   H941 4307   6.456   4.555   3.983  0.8679 -0.6769  2.7828
    4MOL   H942 4308   6.630   4.584   4.020 -0.6665  2.5384 -0.6365
    4MOL   H943 4309   6.487   4.436   3.808  0.1351  2.2147  1.4314
    4MOL   H944 4310   6.669   4.413   3.855 -0.2228 -3.4227  1.3513
    4MOL   H945 4311   6.618   4.325   4.050 -1.1980  0.6873  1.0402
    4MOL   H946 4312   6.439   4.343   4.040  0.4554 -0.7882  0.8592
    4MOL   H947 4313   6.586   4.161   3.855  0.2070 -1.2631 -0.1531
    4MOL   H948 4314   6.410   4.174   3.875  0.1922 -2.0112  0.5150
    4MOL   H949 4315   6.605   4.012   4.004  1.3791  1.2066 -0.6966
    4MOL   H950 4316   6.561   4.111   4.126 -1.3276  2.8077  0.1962
    4MOL   H951 4317   6.381   3.928   3.946  0.2878 -0.0386  0.3468
    4MOL   H952 4318   6.306   4.055   4.034  0.1826 -0.6305 -1.1808
    4MOL   H953 4319   6.446   3.802   4.108 -2.2739  0.2488 -2.2613
    4MOL   C954 4320   6.311   3.859   4.229  0.6868  1.5046  0.6862
    4MOL   O955 4321   6.229   3.936   4.275  0.5682 -0.6276  0.9126
    4MOL   C956 4322   6.341   3.720   4.289 -0.1151 -0.3305  0.3241
    4MOL   C957 4323   6.250   3.605   4.239  0.2810  0.6559  0.2377
    4MOL   C958 4324   6.107   3.616   4.295 -0.1383  0.0473 -0.2810
    4MOL   C959 4325   6.030   3.490   4.260  0.0390 -0.2186  0.1959
    4MOL   C960 4326   5.889   3.466   4.330  0.2917 -0.3442  0.0431
    4MOL   C961 4327   5.786   3.565   4.295  0.2364  0.7175 -0.2573
    4MOL   C962 4328   5.652   3.537   4.368 -0.5274 -0.7123  0.5595
    4MOL   C963 4329   5.537   3.632   4.331  0.3168  0.0530 -0.1131
    4MOL   C964 4330   5.397   3.601   4.387  0.5471 -0.3626 -0.6955
    4MOL   C965 4331   5.318   3.475   4.329  0.4055  0.9290 -0.5793
    4MOL   C966 4332   5.371   3.336   4.362  0.2582 -0.7395  0.3721
    4MOL   O967 4333   5.395   3.311   4.479 -0.0295  0.1854  0.1123
    4MOL   N968 4334   5.394   3.248   4.265  1.0701  0.3324  0.0534
    4MOL   C969 4335   5.460   3.123   4.273 -0.5538 -0.7822  0.1504
    4MOL   C970 4336   5.613   3.141   4.246 -0.1058 -0.5342 -0.2260
    4MOL   C971 4337   5.677   3.001   4.243  0.4463 -0.5496  0.1338
    4MOL   C972 4338   5.825   3.000   4.213 -0.0659 -0.0732 -0.4233
    4MOL   C973 4339   5.875   2.868   4.166 -0.3262  0.0852 -0.6203
    4MOL   C974 4340   5.927   2.772   4.279  0.1706 -0.6216 -0.3500
    4MOL   N975 4341   5.947   2.634   4.239 -0.4039 -0.3718  0.5772
    4MOL   H976 4342   6.442   3.685   4.270  0.5151  1.2325  0.7228
    4MOL   H977 4343   6.343   3.719   4.398  1.4015 -0.3078  0.2997
    4MOL   H978 4344   6.298   3.512   4.268  1.0817  1.1053  0.3800
    4MOL   H979 4345   6.238   3.602   4.131  0.3435 -2.8969  0.2888
    4MOL   H980 4346   6.101   3.631   4.402  1.2252  0.4913 -0.2579
    4MOL   H981 4347   6.059   3.700   4.246  1.0285  0.2172 -1.1699
    4MOL   H982 4348   6.017   3.492   4.151  1.6350  1.7586  0.0130
    4MOL   H983 4349   6.095   3.410   4.294 -0.8114 -0.7073  0.6729
    4MOL   H984 4350   5.850   3.368   4.304  0.6461  0.1753 -2.6265
    4MOL   H985 4351   5.900   3.464   4.438 -1.1204  0.3822  0.2170
    4MOL   H986 4352   5.819   3.663   4.329  2.5626 -0.9550  2.4716
    4MOL   H987 4353   5.771   3.574   4.187 -1.7018  1.6356  0.0498
    4MOL   H988 4354   5.619   3.434   4.349 -1.7034  0.1564 -2.3931
    4MOL   H989 4355   5.675   3.533   4.474 -0.8294 -1.5548  0.6023
    4MOL   H990 4356   5.562   3.736   4.353  3.5867 -0.2244 -2.2169
    4MOL   H991 4357   5.536   3.651   4.224 -2.3859  1.2137  0.0673
    4MOL   H992 4358   5.340   3.693   4.372  0.5871 -0.1683  0.2959
    4MOL   H993 4359   5.388   3.591   4.495 -1.4468  0.7350 -0.7274
    4MOL   H994 4360   5.214   3.485   4.359  0.3300  0.2258 -0.6167
    4MOL   H995 4361   5.319   3.479   4.220  2.8681 -0.1170 -0.6160
    4MOL   H996 4362   5.345   3.274   4.181  0.3378 -2.2408 -0.3528
    4MOL   H997 4363   5.420   3.065   4.190  0.2545  0.6793 -1.2771
    4MOL   H998 4364   5.425   3.089   4.371  0.3426 -1.8140  0.1159
    4MOL   H999 4365   5.657   3.206   4.323 -2.9608 -0.7116  1.6105
    4MOL     H1 4366   5.630   3.180   4.146 -0.0119  1.4064  0.5162
    4MOL     H2 4367   5.619   2.937   4.177 -1.5622  2.8076 -1.4706
    4MOL     H3 4368   5.668   2.957   4.343 -0.5633 -0.7329 -0.0303
    4MOL     H4 4369   5.833   3.059   4.121  0.6904  2.3010  1.1084
    4MOL     H5 4370   5.882   3.045   4.294  1.3569  0.3352 -1.6325
    4MOL     H6 4371   5.960   2.883   4.099 -0.2208 -1.8361 -0.9400
    4MOL     H7 4372   5.801   2.821   4.102  0.3393 -1.3313 -0.3725
    4MOL     H8 4373   6.013   2.810   4.334 -0.9081 -0.4573  1.2497
    4MOL     H9 4374   5.855   2.775   4.361  1.2156  0.7528  0.5481
    4MOL    H10 4375   5.863   2.578   4.237 -0.8555  0.3077  0.3504
    4MOL    C11 4376   6.062   2.587   4.180  0.7411  0.5376  0.6537
    4MOL    O12 4377   6.157   2.666   4.163  1.2550 -0.0495  0.4717
    4MOL    C13 4378   6.067   2.444   4.134 -0.0269  0.2738  0.2993
    4MOL    C14 4379   6.158   2.349   4.221  0.5517 -0.3683 -0.1146
    4MOL    C15 4380   6.103   2.319   4.362  0.2998  0.6872 -0.3120
    4MOL    C16 4381   6.201   2.225   4.446 -0.6665 -0.4270  0.1054
    4MOL    C17 4382   6.255   2.097   4.375  0.0310 -0.0021  0.0426
    4MOL    C18 4383   6.369   2.036   4.462 -0.4850  0.0228 -0.4741
    4MOL    C19 4384   6.439   1.909   4.411  0.4880  0.5657  0.6958
    4MOL    C20 4385   6.533   1.847   4.517 -0.1062 -0.2680 -0.7366
    4MOL    C21 4386   6.576   1.710   4.470  0.8483  0.6449 -0.1001
    4MOL    C22 4387   6.681   1.650   4.564 -0.7409  0.0974 -0.6356
    4MOL    C23 4388   6.630   1.585   4.693 -1.1328 -0.0530  0.0113
    4MOL    O24 4389   6.529   1.626   4.747 -0.1234 -0.6870  0.6299
    4MOL    N25 4390   6.703   1.483   4.745  0.7581  0.7842  0.3567
    4MOL    C26 4391   6.681   1.414   4.872 -0.9409  0.4169 -0.5939
    4MOL    C27 4392   6.810   1.418   4.954 -0.7939 -0.3186 -0.0463
    4MOL    C28 4393   6.804   1.339   5.088 -0.2094 -0.9429  0.6231
    4MOL    C29 4394   6.930   1.337   5.167  0.7651  0.0637  0.3127
    4MOL    C30 4395   7.056   1.298   5.083  0.8850  0.1868  0.1568
    4MOL    C31 4396   7.181   1.252   5.156  0.8369  0.3848  0.1530
    4MOL    N32 4397   7.153   1.138   5.248  0.0897  0.4877  0.0509
    4MOL    H33 4398   6.101   2.443   4.031  0.7206 -0.1162  0.5455
    4MOL    H34 4399   5.969   2.396   4.127  0.6031 -0.8179 -1.0035
    4MOL    H35 4400   6.255   2.399   4.220  0.0389  0.7529  2.3326
    4MOL    H36 4401   6.158   2.253   4.170 -0.9683 -0.5116  0.1303
    4MOL    H37 4402   6.014   2.257   4.354  1.3209 -0.6819 -1.3178
    4MOL    H38 4403   6.084   2.411   4.416 -1.8141  0.9278 -1.4346
    4MOL    H39 4404   6.276   2.289   4.492 -0.9247  0.0385 -0.1228
    4MOL    H40 4405   6.153   2.190   4.537 -1.3764 -1.0147 -0.4842
    4MOL    H41 4406   6.179   2.024   4.346 -0.6325  0.8542 -0.3856
    4MOL    H42 4407   6.301   2.125   4.280  0.6878  1.5054  0.7835
    4MOL    H43 4408   6.439   2.119   4.473  1.6102 -1.7151 -0.3325
    4MOL    H44 4409   6.335   2.000   4.559 -1.3977 -0.2982 -0.9089
    4MOL    H45 4410   6.361   1.837   4.387  0.5560  1.5955 -2.9396
    4MOL    H46 4411   6.493   1.920   4.317  0.3841 -1.5677  0.3672
    4MOL    H47 4412   6.623   1.902   4.544 -0.9859  0.0823  1.6176
    4MOL    H48 4413   6.478   1.835   4.610  1.3889 -2.9010 -0.1219
    4MOL    H49 4414   6.620   1.711   4.371  0.8639 -0.6009 -0.1117
    4MOL    H50 4415   6.490   1.644   4.465  0.7292  0.8466 -0.7347
    4MOL    H51 4416   6.740   1.572   4.517  3.0917  2.4694  0.0516
    4MOL    H52 4417   6.758   1.725   4.582  0.7814 -1.6304  0.3745
    4MOL    H53 4418   6.786   1.465   4.690 -0.7834 -1.2582 -1.3694
    4MOL    H54 4419   6.656   1.309   4.854 -0.0623 -0.6872  3.9463
    4MOL    H55 4420   6.600   1.453   4.933 -1.7777 -0.7421 -0.9549
    4MOL    H56 4421   6.831   1.524   4.969 -2.1012 -0.1404  0.5654
    4MOL    H57 4422   6.890   1.379   4.890  0.2276  0.0250  1.0145
    4MOL    H58 4423   6.780   1.236   5.060 -1.5822 -0.6375  0.6520
    4MOL    H59 4424   6.722   1.364   5.155 -2.9237 -1.7890 -2.2192
    4MOL    H60 4425   6.920   1.257   5.241 -0.1971  1.1551  1.3742
    4MOL    H61 4426   6.946   1.433   5.215 -1.6795 -0.0252  1.3709
    4MOL    H62 4427   7.072   1.391   5.028 -2.8700 -0.8230 -2.8636
    4MOL    H63 4428   7.020   1.233   5.003 -0.4155 -0.0104  0.8875
    4MOL    H64 4429   7.231   1.329   5.214  0.4974  1.4876 -0.9895
    4MOL    H65 4430   7.258   1.219   5.086  0.7620  0.1576  0.1788
    4MOL    H66 4431   7.107   1.161   5.335 -0.9359 -1.2800  0.0086
    4MOL    C67 4432   7.121   1.015   5.203 -0.6575  0.1317 -0.2309
    4MOL    O68 4433   7.146   0.983   5.083  0.5619  0.2412  0.1930
    4MOL    C69 4434   7.045   0.915   5.294  0.0704 -0.0251  0.2768
    4MOL    C70 4435   6.908   0.870   5.242 -0.2634  0.6267 -0.7727
    4MOL    C71 4436   6.818   0.978   5.178 -0.0403 -0.5145  0.6926
    4MOL    C72 4437   6.702   0.918   5.108  0.5604  0.4710  0.1463
    4MOL    C73 4438   6.594   1.011   5.047  0.2852 -0.2080  0.3537
    4MOL    C74 4439   6.496   1.087   5.139 -0.1019 -0.0854  0.6496
    4MOL    C75 4440   6.367   1.134   5.065  0.4633 -0.3248 -0.2083
    4MOL    C76 4441   6.382   1.277   5.008  0.3995  0.1174 -0.6120
    4MOL    C77 4442   6.245   1.344   4.982  0.6818  0.1654 -0.1249
    4MOL    C78 4443   6.264   1.484   4.924  0.6759 -0.0579  0.6221
    4MOL    C79 4444   6.298   1.597   5.020  0.3822 -0.0466  0.0673
    4MOL    O80 4445   6.249   1.604   5.133  0.1586  0.3019  0.1285
    4MOL    N81 4446   6.399   1.677   4.982  0.1987  0.2299 -0.7767
    4MOL    C82 4447   6.466   1.772   5.071  0.8010  0.6071 -0.0533
    4MOL    C83 4448   6.566   1.693   5.161 -0.1026 -0.2255 -0.0097
    4MOL    C84 4449   6.663   1.778   5.243 -0.0946 -0.0620 -0.1093
    4MOL    C85 4450   6.803   1.706   5.280  0.5380  0.1791  0.7502
    4MOL    C86 4451   6.913   1.801   5.302  0.0106 -0.2127  0.9043
    4MOL    C87 4452   7.051   1.729   5.324 -0.3342 -0.0158  0.6868
    4MOL    N88 4453   7.098   1.672   5.200  0.0112 -0.6459  0.2313
    4MOL    H89 4454   7.034   0.963   5.391 -2.6819  1.0665 -0.5103
    4MOL    H90 4455   7.108   0.826   5.297  0.3994  0.2304  1.2210
    4MOL    H91 4456   6.934   0.790   5.173 -1.4661 -0.5231  0.0909
    4MOL    H92 4457   6.851   0.826   5.324 -0.5828  1.8499 -0.3175
    4MOL    H93 4458   6.790   1.059   5.245  3.2233 -0.4585  2.1031
    4MOL    H94 4459   6.878   1.027   5.100  0.3610 -1.1909  0.5724
    4MOL    H95 4460   6.739   0.847   5.035 -1.7785 -0.2862 -0.3399
    4MOL    H96 4461   6.653   0.842   5.170  2.5716 -0.0263  1.1749
    4MOL    H97 4462   6.634   1.076   4.969  1.9935 -1.0220  0.5252
    4MOL    H98 4463   6.532   0.942   4.990  0.5034  1.5650 -2.0862
    4MOL    H99 4464   6.463   1.024   5.222 -0.6593 -0.5324  0.0960
    4MOL   H100 4465   6.557   1.167   5.181 -1.7446  1.9347 -0.7133
    4MOL   H101 4466   6.302   1.151   5.152  0.0831 -3.7724  0.2281
    4MOL   H102 4467   6.322   1.063   4.996 -0.8265  0.0321  0.2421
    4MOL   H103 4468   6.440   1.337   5.078 -0.7538  2.0305 -1.2772
    4MOL   H104 4469   6.447   1.273   4.921 -1.7872 -2.4186 -2.1985
    4MOL   H105 4470   6.193   1.355   5.077 -0.0877  0.1832 -0.5488
    4MOL   H106 4471   6.182   1.281   4.919  1.1775 -0.2409 -0.2241
    4MOL   H107 4472   6.348   1.483   4.855 -0.3664  3.1650 -0.8277
    4MOL   H108 4473   6.176   1.510   4.865  0.5519 -0.5181  0.6042
    4MOL   H109 4474   6.443   1.664   4.892 -0.0986  0.7442 -0.9985
    4MOL   H110 4475   6.383   1.814   5.128 -0.8841 -1.1910 -1.1415
    4MOL   H111 4476   6.518   1.845   5.009  0.2269  2.1471  1.2133
    4MOL   H112 4477   6.632   1.634   5.098  1.5545 -1.1126  2.4847
    4MOL   H113 4478   6.506   1.622   5.219  0.3751 -2.5704 -2.3288
    4MOL   H114 4479   6.618   1.825   5.331 -2.6276 -0.1359 -1.3248
    4MOL   H115 4480   6.692   1.855   5.171 -0.9070  0.6266  0.2926
    4MOL   H116 4481   6.802   1.654   5.376  3.1043 -1.6034 -0.1075
    4MOL   H117 4482   6.834   1.641   5.198  0.5791  4.0028 -2.4063
    4MOL   H118 4483   6.915   1.865   5.213 -1.5528  0.2580  1.1875
    4MOL   H119 4484   6.882   1.865   5.385 -0.9029  3.1716 -1.9001
    4MOL   H120 4485   7.130   1.788   5.372 -0.5975  1.2253 -0.3648
    4MOL   H121 4486   7.049   1.650   5.399  1.5564 -1.4979 -0.7679
    4MOL   H122 4487   7.128   1.750   5.144 -1.2595 -0.3801 -0.0926
    4MOL   H123 4488   7.188   1.631   5.219 -0.4554 -2.0222 -0.4478
    5MOL     C1 4489   2.231   2.708   4.551 -0.3031 -0.3488  0.6913
    5MOL     O2 4490   2.315   2.721   4.459 -0.3013  0.3870 -0.5966
    5MOL     C3 4491   2.245   2.596   4.656 -0.4329  0.0517 -0.3513
    5MOL     C4 4492   2.269   2.663   4.789 -0.5359  0.6005 -0.9453
    5MOL     C5 4493   2.417   2.715   4.794  0.3282  0.3514 -0.0870
    5MOL     C6 4494   2.449   2.755   4.938  0.7723 -0.0936 -0.0995
    5MOL     C7 4495   2.597   2.785   4.965  0.3223  0.7846  0.0310
    5MOL     C8 4496   2.631   2.798   5.113  0.4323  0.1939  0.1470
    5MOL     C9 4497   2.544   2.897   5.191 -0.5612 -0.0297 -0.5774
    5MOL    C10 4498   2.593   2.907   5.336  0.5934 -0.2400  0.4094
    5MOL    C11 4499   2.533   3.024   5.408  0.1128  0.3606  0.2644
    5MOL    C12 4500   2.550   3.016   5.560  0.3667 -0.3619 -0.5974
    5MOL    C13 4501   2.696   3.022   5.604  0.2128  0.5618  0.7461
    5MOL    O14 4502   2.778   3.080   5.536  0.1869  0.5239  0.3346
    5MOL    N15 4503   2.731   2.950   5.711  0.3683 -0.0161  0.3214
    5MOL    C16 4504   2.867   2.924   5.766  0.2605 -0.6058 -0.1958
    5MOL    C17 4505   2.898   2.967   5.911 -0.1114 -0.5775 -0.5171
    5MOL    C18 4506   3.042   2.949   5.959 -0.1558 -0.4210 -0.1921
    5MOL    C19 4507   3.060   2.985   6.112  0.6143  0.0323  0.1069
    5MOL    C20 4508   3.031   3.131   6.140  0.0552 -0.3306 -1.5124
    5MOL    C21 4509   3.052   3.163   6.291  0.2748  0.1031  0.3147
    5MOL    N22 4510   3.015   3.304   6.334 -0.3578  0.6628  0.4159
    5MOL    H23 4511   2.316   2.519   4.627 -0.0077  0.2302  0.1973
    5MOL    H24 4512   2.150   2.543   4.668 -0.4302  0.2880  0.7526
    5MOL    H25 4513   2.249   2.590   4.866  2.9061 -1.4058 -1.8400
    5MOL    H26 4514   2.196   2.740   4.815 -0.3735  0.9133 -1.4051
    5MOL    H27 4515   2.427   2.796   4.722  0.1713 -0.1757 -0.7135
    5MOL    H28 4516   2.480   2.632   4.761  2.9659  1.3888  2.1542
    5MOL    H29 4517   2.389   2.838   4.977  1.0014  0.5573 -1.1167
    5MOL    H30 4518   2.419   2.680   5.011  0.6501 -0.5476 -0.6218
    5MOL    H31 4519   2.609   2.874   4.903 -0.9666  1.8178  1.2383
    5MOL    H32 4520   2.665   2.717   4.913  0.2965 -0.0908  1.1243
    5MOL    H33 4521   2.615   2.700   5.157 -1.2157  0.0753 -0.6673
    5MOL    H34 4522   2.738   2.812   5.122  1.0722 -1.8283 -3.4420
    5MOL    H35 4523   2.557   2.997   5.148  1.0351  0.1578  0.3033
    5MOL    H36 4524   2.437   2.877   5.185 -0.5279 -0.4955  0.2981
    5MOL    H37 4525   2.554   2.816   5.382  0.9511 -0.5185  0.1632
    5MOL    H38 4526   2.701   2.892   5.332  0.4552 -0.6961 -2.1798
    5MOL    H39 4527   2.428   3.044   5.386  0.3826  2.6223  0.9560
    5MOL    H40 4528   2.590   3.112   5.380  2.8592 -1.5350 -0.3326
    5MOL    H41 4529   2.489   3.094   5.606 -0.3206 -1.0945 -0.2610
    5MOL    H42 4530   2.491   2.932   5.596 -0.7321 -0.6098 -2.8767
    5MOL    H43 4531   2.658   2.926   5.776  0.5681  0.9678  0.9227
    5MOL    H44 4532   2.939   2.986   5.712  1.2221  1.1767  3.0371
    5MOL    H45 4533   2.892   2.820   5.742 -1.1111 -0.9753 -0.0645
    5MOL    H46 4534   2.838   2.903   5.976 -3.1216  1.7927 -0.8033
    5MOL    H47 4535   2.850   3.063   5.932 -1.6303 -1.7468  1.6155
    5MOL    H48 4536   3.069   2.843   5.953  1.2522 -0.2175  1.8425
    5MOL    H49 4537   3.115   3.010   5.905 -0.8000  2.6206  2.2578
    5MOL    H50 4538   3.159   2.952   6.143 -0.3631 -2.8155  0.2973
    5MOL    H51 4539   2.988   2.932   6.174  0.1536  2.4280  1.6688
    5MOL    H52 4540   3.114   3.182   6.091  1.1518 -1.4146 -0.8284
    5MOL    H53 4541   2.928   3.161   6.122 -0.3875 -0.8352  0.1513
    5MOL    H54 4542   2.984   3.100   6.348 -1.0584  0.3817 -0.9543
    5MOL    H55 4543   3.147   3.128   6.331  0.5450 -1.7680 -1.8909
    5MOL    H56 4544   3.043   3.372   6.265 -1.0389  0.4842 -0.0454
    5MOL    H57 4545   2.147   2.773   4.576 -0.5615  0.2603 -1.6912
    5MOL    C58 4546   2.977   3.348   6.447 -0.0752 -0.0376 -0.5465
    5MOL    O59 4547   2.949   3.274   6.542  0.3350 -0.2793  0.0242
    5MOL    C60 4548   2.958   3.505   6.461  0.5895 -0.2374  0.8414
    5MOL    C61 4549   2.947   3.555   6.601 -0.5144 -0.1558 -0.1296
    5MOL    C62 4550   2.810   3.541   6.661  0.1768 -0.6916 -0.2649
    5MOL    C63 4551   2.771   3.648   6.762 -0.1232  0.2015  0.4636
    5MOL    C64 4552   2.648   3.603   6.843  0.1374  0.0352 -0.4033
    5MOL    C65 4553   2.597   3.690   6.945 -0.4126  0.4676 -0.2941
    5MOL    C66 4554   2.478   3.630   7.016  0.6009  0.3654 -0.7500
    5MOL    C67 4555   2.434   3.708   7.133 -0.2203 -0.2328  0.2320
    5MOL    C68 4556   2.292   3.673   7.184 -0.7599  0.8017  0.0072
    5MOL    C69 4557   2.271   3.738   7.323 -0.4124 -0.4686  0.2827
    5MOL    C70 4558   2.315   3.646   7.434 -0.8559 -0.9839  0.0131
    5MOL    O71 4559   2.393   3.555   7.410  0.3360  0.5438  0.5853
    5MOL    N72 4560   2.286   3.682   7.560  0.4702  0.0138 -0.2990
    5MOL    C73 4561   2.332   3.617   7.678 -0.5470  0.4404  0.0169
    5MOL    C74 4562   2.419   3.711   0.069  0.0113 -0.1372  0.9030
    5MOL    C75 4563   2.479   3.652   0.202  0.1959  0.0073  0.0600
    5MOL    C76 4564   2.587   3.743   0.271  0.0312  0.1621 -0.1560
    5MOL    C77 4565   2.660   3.696   0.403  0.0809  0.5128  0.2405
    5MOL    C78 4566   2.794   3.633   0.372  0.3482  0.3730  0.3162
    5MOL    N79 4567   2.768   3.503   0.307  0.4663 -0.1932  0.1283
    5MOL    H80 4568   2.878   3.522   6.388  0.2551 -3.4240  0.3955
    5MOL    H81 4569   3.053   3.540   6.421 -0.1837  0.8127 -0.1031
    5MOL    H82 4570   3.023   3.503   6.658 -0.4634 -1.5365 -1.4265
    5MOL    H83 4571   2.980   3.659   6.604  1.3713 -0.6894 -1.3886
    5MOL    H84 4572   2.802   3.440   6.700  3.6886 -1.0513 -0.3192
    5MOL    H85 4573   2.732   3.556   6.587 -1.2468 -2.4415  0.8607
    5MOL    H86 4574   2.744   3.729   6.694  1.8106 -0.0221 -0.5979
    5MOL    H87 4575   2.845   3.685   6.832  0.6486  1.1602 -0.8346
    5MOL    H88 4576   2.570   3.585   6.769  1.1450 -2.6640 -0.8545
    5MOL    H89 4577   2.664   3.502   6.882 -0.8315 -1.3141 -3.3303
    5MOL    H90 4578   2.570   3.787   6.903 -2.0628  0.7080  1.2566
    5MOL    H91 4579   2.674   3.717   7.017 -1.1067 -0.9349  1.0131
    5MOL    H92 4580   2.498   3.525   7.038  0.9789  0.5106 -0.4005
    5MOL    H93 4581   2.390   3.629   6.952  1.0683 -2.3977 -1.4141
    5MOL    H94 4582   2.510   3.700   7.210 -1.0430  1.0956  1.1926
    5MOL    H95 4583   2.444   3.809   7.093 -0.9536 -1.6330 -3.7037
    5MOL    H96 4584   2.275   3.566   7.186 -0.3988  0.7203 -1.0718
    5MOL    H97 4585   2.211   3.714   7.124 -2.4233  0.0299  1.6861
    5MOL    H98 4586   2.311   3.839   7.314  1.5751 -1.3511 -1.0695
    5MOL    H99 4587   2.168   3.765   7.347 -0.7790 -1.5707 -0.0099
    5MOL   H100 4588   2.220   3.755   7.581  2.5638  1.8084  0.1654
    5MOL   H101 4589   2.382   3.521   7.663  1.8955  1.4052  1.5961
    5MOL   H102 4590   2.243   3.599   0.046  0.2139 -0.8594  0.7913
    5MOL   H103 4591   2.500   3.753   0.010 -2.8523  1.2900 -2.2168
    5MOL   H104 4592   2.378   3.807   0.101 -1.7544 -0.5215 -0.1424
    5MOL   H105 4593   2.525   3.560   0.167 -1.1959 -1.1692  1.2821
    5MOL   H106 4594   2.402   3.629   0.276  1.2123 -0.5493  0.9600
    5MOL   H107 4595   2.667   3.771   0.203  1.2423  0.2332  1.2978
    5MOL   H108 4596   2.532   3.836   0.290  0.0825  0.2858 -0.6064
    5MOL   H109 4597   2.599   3.630   0.466 -0.5870 -0.6057 -1.5445
    5MOL   H110 4598   2.672   3.785   0.465 -2.1576  2.1295 -1.5784
    5MOL   H111 4599   2.855   3.616   0.460  0.4236 -0.5895  0.0738
    5MOL   H112 4600   2.856   3.689   0.302  0.0572  0.2529 -0.0389
    5MOL   H113 4601   2.683   3.450   0.323 -1.0097  1.0819 -3.0660
    5MOL   C114 4602   2.851   3.449   0.217 -0.1039  0.0185  0.8297
    5MOL   O115 4603   2.961   3.497   0.185  0.3865  0.0773 -0.2301
    5MOL   C116 4604   2.799   3.321   0.157 -0.2086  0.3993  0.4498
    5MOL   C117 4605   2.813   3.318   7.691 -0.0720 -0.2866 -0.1444
    5MOL   C118 4606   2.695   3.400   7.626  0.9838  0.4684  0.9318
    5MOL   C119 4607   2.723   3.426   7.473 -0.0373  0.0061 -0.3215
    5MOL   C120 4608   2.691   3.308   7.380 -0.4669  0.1812  0.5802
    5MOL   C121 4609   2.652   3.341   7.232 -0.3182 -0.3150  0.0490
    5MOL   C122 4610   2.564   3.238   7.156 -0.1505 -0.7382 -0.1719
    5MOL   C123 4611   2.603   3.091   7.170  0.3713 -0.2960  0.4607
    5MOL   C124 4612   2.516   2.992   7.093 -0.0762  0.8020 -0.6574
    5MOL   C125 4613   2.574   2.851   7.072 -0.3622 -0.2743 -0.2094
    5MOL   C126 4614   2.482   2.753   7.010  0.9432 -0.1297  0.0801
    5MOL   O127 4615   2.399   2.788   6.929 -0.0622 -0.2205 -0.1926
    5MOL   N128 4616   2.502   2.628   7.057 -0.3636 -0.6339  0.4518
    5MOL   C129 4617   2.437   2.511   6.998 -0.6357 -0.1490  0.6705
    5MOL   C130 4618   2.482   2.467   6.855  1.2440 -0.0029  0.3718
    5MOL   C131 4619   2.441   2.558   6.734 -0.4994 -0.1504 -0.0858
    5MOL   C132 4620   2.479   2.489   6.602  0.1661 -0.2430  0.3760
    5MOL   C133 4621   2.423   2.550   6.479 -0.5621 -0.1331 -0.7112
    5MOL   C134 4622   2.422   2.450   6.363  0.3011 -0.4916 -0.4819
    5MOL   N135 4623   2.339   2.511   6.253 -0.5045  0.3096  0.2931
    5MOL   H136 4624   2.864   3.244   0.197 -1.7982  0.2210  2.8235
    5MOL   H137 4625   2.701   3.284   0.190  0.1234  1.2602  2.4768
    5MOL   H138 4626   2.829   3.215   7.659 -0.7655 -0.0755 -1.1615
    5MOL   H139 4627   2.908   3.366   7.667  0.2910 -0.8271  0.1974
    5MOL   H140 4628   2.610   3.335   7.646  1.7503 -0.0281  2.7702
    5MOL   H141 4629   2.685   3.499   7.669 -0.3983  0.4655  0.6317
    5MOL   H142 4630   2.677   3.522   7.450  3.4899  2.1476  1.1525
    5MOL   H143 4631   2.830   3.444   7.470 -0.1664  0.6950 -0.7492
    5MOL   H144 4632   2.781   3.247   7.373 -1.9134 -1.8800 -0.6807
    5MOL   H145 4633   2.616   3.247   7.431 -1.7387  0.3634 -1.0155
    5MOL   H146 4634   2.743   3.356   7.174 -0.5181  2.9939  0.5288
    5MOL   H147 4635   2.599   3.435   7.223  2.2972  1.2778  0.9147
    5MOL   H148 4636   2.459   3.241   7.184 -0.0549  1.7235  0.0408
    5MOL   H149 4637   2.575   3.268   7.051  0.5112  0.5908  0.2645
    5MOL   H150 4638   2.603   3.071   7.277 -2.6200 -0.2355  0.5295
    5MOL   H151 4639   2.703   3.081   7.129 -0.7116 -0.7486 -2.1486
    5MOL   H152 4640   2.495   3.022   6.991 -0.6531 -0.6935 -0.9932
    5MOL   H153 4641   2.421   2.973   7.142  0.5395 -0.6025  0.0265
    5MOL   H154 4642   2.606   2.815   7.170  1.1634 -1.8448 -1.2586
    5MOL   H155 4643   2.665   2.845   7.013 -1.5063  1.9117 -2.3277
    5MOL   H156 4644   2.578   2.616   7.121  0.4825  0.1369 -0.3837
    5MOL   H157 4645   2.331   2.530   6.989 -0.8642 -1.1270  1.2366
    5MOL   H158 4646   2.459   2.422   7.057 -0.2245 -0.3658  0.2020
    5MOL   H159 4647   2.441   2.368   6.833  1.1236  0.2792 -0.7244
    5MOL   H160 4648   2.590   2.453   6.857  1.2653 -0.2396 -1.4140
    5MOL   H161 4649   2.341   2.600   6.750  0.4943  2.7169 -1.1448
    5MOL   H162 4650   2.502   2.648   6.744  0.9357 -1.1105 -0.2093
    5MOL   H163 4651   2.587   2.481   6.593  0.4850  0.1520  3.4772
    5MOL   H164 4652   2.443   2.386   6.598  0.3624 -0.3244  0.6944
    5MOL   H165 4653   2.473   2.647   6.467 -0.7879  0.4792  2.9075
    5MOL   H166 4654   2.319   2.569   6.502 -1.0061 -1.8887 -1.2706
    5MOL   H167 4655   2.524   2.427   6.335  0.5628  1.6700 -1.4452
    5MOL   H168 4656   2.377   2.352   6.379  0.3423 -0.2062  1.5396
    5MOL   H169 4657   2.297   2.601   6.268 -1.2535  0.0437 -0.1488
    5MOL   C170 4658   2.283   2.448   6.150 -0.0826 -0.3210  0.2714
    5MOL   O171 4659   2.291   2.329   6.140  0.0055 -0.3112 -0.3115
    5MOL   C172 4660   2.208   2.532   6.043  0.4753 -1.2340 -0.6199
    5MOL   C173 4661   2.276   2.521   5.905  0.4736 -0.0308 -0.1083
    5MOL   C174 4662   2.420   2.582   5.915 -0.0189 -0.6530 -0.2646
    5MOL   C175 4663   2.496   2.606   5.789 -0.5000 -0.2253  1.0525
    5MOL   C176 4664   2.650   2.597   5.798  0.0301  0.3470  0.5744
    5MOL   C177 4665   2.730   2.615   5.668  0.1989  0.2657 -0.7381
    5MOL   C178 4666   2.692   2.526   5.555  0.6236  0.0300  0.2826
    5MOL   C179 4667   2.777   2.531   5.424 -0.1028 -0.0026 -0.0697
    5MOL   C180 4668   2.746   2.420   5.320  0.1183  0.1927 -0.9053
    5MOL   C181 4669   2.801   2.279   5.323 -0.3533  0.2193  0.2551
    5MOL   C182 4670   2.727   2.188   5.420  0.5673 -0.0526  0.6185
    5MOL   O183 4671   2.611   2.157   5.396  0.5160  0.0647 -1.1664
    5MOL   N184 4672   2.799   2.149   5.523 -0.2054 -0.6929 -0.2658
    5MOL   C185 4673   2.763   2.046   5.617  0.6470 -0.1686 -0.4374
    5MOL   C186 4674   2.765   1.905   5.554 -0.0949  0.7074  0.6403
    5MOL   C187 4675   2.703   1.792   5.641  0.0270  0.1751  0.1348
    5MOL   C188 4676   2.719   1.646   5.576 -0.0452 -0.1366 -0.0627
    5MOL   C189 4677   2.867   1.588   5.568  0.1778  0.1796 -0.2881
    5MOL   C190 4678   2.920   1.559   5.434  0.4067  0.8416  0.3700
    5MOL   N191 4679   2.927   1.676   5.347 -0.5788 -0.5414 -1.1735
    5MOL   H192 4680   2.104   2.504   6.029 -0.0824  0.5318 -0.1144
    5MOL   H193 4681   2.218   2.636   6.073 -3.1163 -0.7117 -1.0211
    5MOL   H194 4682   2.220   2.559   5.819  0.9842 -1.0393 -0.9037
    5MOL   H195 4683   2.277   2.417   5.873 -2.4380 -0.4976  1.1918
    5MOL   H196 4684   2.483   2.529   5.987  0.4246  1.0626  0.6343
    5MOL   H197 4685   2.402   2.681   5.957  0.7906 -0.3867 -0.5431
    5MOL   H198 4686   2.467   2.535   5.712  1.9254  1.8632 -1.8869
    5MOL   H199 4687   2.483   2.704   5.745 -0.3511 -0.3608  0.7069
    5MOL   H200 4688   2.682   2.671   5.871 -0.4713  0.5225  0.6113
    5MOL   H201 4689   2.671   2.497   5.836 -1.7980 -0.6311 -0.8957
    5MOL   H202 4690   2.833   2.591   5.693 -0.8727 -1.2325  2.4299
    5MOL   H203 4691   2.713   2.714   5.625 -0.5272 -0.1826 -1.5151
    5MOL   H204 4692   2.685   2.422   5.588  1.3454 -0.4691 -1.0935
    5MOL   H205 4693   2.592   2.561   5.531  0.4306 -1.3823 -1.0743
    5MOL   H206 4694   2.765   2.628   5.376  0.3464  0.9242  1.6580
    5MOL   H207 4695   2.884   2.516   5.443  0.0454  1.3673  0.2855
    5MOL   H208 4696   2.766   2.463   5.222  0.8782 -1.3821 -1.4575
    5MOL   H209 4697   2.637   2.415   5.315  0.0570  0.9409 -0.4119
    5MOL   H210 4698   2.809   2.238   5.222 -0.5920  1.1458 -0.1395
    5MOL   H211 4699   2.905   2.291   5.354 -0.1392  0.6098 -0.5965
    5MOL   H212 4700   2.893   2.185   5.521 -0.5370  0.2032 -0.3415
    5MOL   H213 4701   2.658   2.063   5.641  0.7147  2.5829 -1.8320
    5MOL   H214 4702   2.816   2.058   5.711 -0.6308 -2.9048  0.6792
    5MOL   H215 4703   2.718   1.914   5.456 -2.0635 -0.1118  1.4792
    5MOL   H216 4704   2.869   1.876   5.543  1.3029  5.4156  0.5735
    5MOL   H217 4705   2.727   1.806   5.747  1.4735  1.5722 -0.3400
    5MOL   H218 4706   2.595   1.805   5.647  0.2933  1.5477  3.0529
    5MOL   H219 4707   2.677   1.666   5.478  1.2985 -0.2318 -0.6718
    5MOL   H220 4708   2.657   1.575   5.631  0.1264 -0.2761 -0.0455
    5MOL   H221 4709   2.871   1.497   5.628  0.9889  1.3011  1.4042
    5MOL   H222 4710   2.941   1.652   5.618  0.0728 -1.6593  2.3521
    5MOL   H223 4711   2.857   1.495   5.372 -0.6731  2.3549 -0.1232
    5MOL   H224 4712   3.019   1.514   5.444 -0.6682 -1.2756  1.7636
    5MOL   H225 4713   2.872   1.755   5.377 -1.7771 -2.2013  1.1508
    5MOL   C226 4714   3.000   1.675   5.237 -0.4915 -0.0895  0.6528
    5MOL   O227 4715   3.062   1.573   5.211  0.5033  0.1802 -0.0110
    5MOL   C228 4716   2.998   1.794   5.145  0.4133 -0.3415  0.7639
    5MOL   C229 4717   2.883   1.892   5.162  0.3779  0.1937  0.0997
    5MOL   C230 4718   2.744   1.837   5.107 -0.1841  1.1185 -0.5638
    5MOL   C231 4719   2.635   1.949   5.104 -0.2748  0.5842  0.4505
    5MOL   C232 4720   2.494   1.892   5.072 -0.2150 -0.3736  0.0299
    5MOL   C233 4721   2.481   1.851   4.920  0.3615 -0.6863  0.2325
    5MOL   C234 4722   2.361   1.767   4.892 -0.3558 -0.4000 -0.4078
    5MOL   C235 4723   2.318   1.751   4.746 -0.0843 -0.7198 -0.5511
    5MOL   C236 4724   2.423   1.677   4.649  0.0053 -0.6707  0.2065
    5MOL   C237 4725   2.373   1.669   4.509 -0.2254 -0.5273 -0.1213
    5MOL   C238 4726   2.404   1.535   4.441 -0.7239  0.2956 -0.4528
    5MOL   O239 4727   2.479   1.534   4.343 -0.4427  0.0115 -0.3709
    5MOL   N240 4728   2.336   1.427   4.488 -0.8719  0.3014 -0.1991
    5MOL   C241 4729   2.334   1.303   4.415  0.7569 -0.6007  0.1414
    5MOL   C242 4730   2.291   1.180   4.497  0.4609  0.2370 -0.5067
    5MOL   C243 4731   2.270   1.062   4.406  0.2368 -0.6811 -0.2056
    5MOL   C244 4732   2.222   0.937   4.483 -0.5150 -0.3511 -0.1351
    5MOL   C245 4733   2.334   0.866   4.559 -0.1927  0.0779  0.8256
    5MOL   C246 4734   2.280   0.747   4.629  0.1173 -0.1584 -0.0505
    5MOL   N247 4735   2.387   0.678   4.704 -0.4810  0.0530  0.5687
    5MOL   H248 4736   3.005   1.762   5.041 -1.1609 -0.1906  0.6028
    5MOL   H249 4737   3.092   1.846   5.164 -0.7148  1.4971  1.3898
    5MOL   H250 4738   2.870   1.927   5.264 -0.7573  0.1528 -0.0255
    5MOL   H251 4739   2.908   1.983   5.107  2.4059  0.1592  0.9148
    5MOL   H252 4740   2.750   1.799   5.005  2.0604 -0.4723  0.1122
    5MOL   H253 4741   2.722   1.748   5.165  2.2212 -1.7215 -3.7456
    5MOL   H254 4742   2.668   2.015   5.023 -0.6139 -0.3424 -0.4607
    5MOL   H255 4743   2.642   2.002   5.199  1.1338 -1.2328  1.3841
    5MOL   H256 4744   2.411   1.958   5.098 -0.0895 -0.4226  0.5743
    5MOL   H257 4745   2.473   1.806   5.135  1.3835  0.8039  2.2476
    5MOL   H258 4746   2.484   1.939   4.856 -1.3050 -0.2385  0.7440
    5MOL   H259 4747   2.566   1.789   4.891  0.6784 -0.0995 -0.0908
    5MOL   H260 4748   2.283   1.817   4.947 -0.8270  0.5312 -1.9006
    5MOL   H261 4749   2.366   1.671   4.944 -0.9880  0.3455  1.0431
    5MOL   H262 4750   2.221   1.702   4.745 -0.6955  0.4455  0.8993
    5MOL   H263 4751   2.295   1.850   4.706  0.0642 -0.3874  0.1834
    5MOL   H264 4752   2.518   1.731   4.641 -0.4749  0.5350  2.3400
    5MOL   H265 4753   2.439   1.577   4.689  0.0685 -0.8547 -0.2782
    5MOL   H266 4754   2.264   1.671   4.508 -0.2515  0.2416  1.4251
    5MOL   H267 4755   2.408   1.750   4.445 -2.5003  1.5129  1.1064
    5MOL   H268 4756   2.277   1.443   4.569  0.1828  1.3129  0.3875
    5MOL   H269 4757   2.426   1.274   4.363  1.9373 -0.5202  2.1393
    5MOL   H270 4758   2.266   1.316   4.331  4.4754  1.5424 -2.7480
    5MOL   H271 4759   2.200   1.192   4.556 -0.1139  2.5956 -1.8247
    5MOL   H272 4760   2.374   1.163   4.566  0.1094  0.4730 -0.0148
    5MOL   H273 4761   2.201   1.082   4.324  0.7341 -1.1821 -0.7447
    5MOL   H274 4762   2.365   1.039   4.357  0.8339  0.0073  0.6046
    5MOL   H275 4763   2.186   0.872   4.403 -1.8095 -2.3797  2.0313
    5MOL   H276 4764   2.136   0.958   4.547 -2.0380 -1.4349 -1.7775
    5MOL   H277 4765   2.375   0.936   4.631  1.1702  1.5469 -1.2937
    5MOL   H278 4766   2.410   0.830   4.489  0.5547  0.6605  1.3432
    5MOL   H279 4767   2.232   0.673   4.565  1.0397 -0.8566  0.0543
    5MOL   H280 4768   2.206   0.777   4.704  1.2968 -1.0728  1.4986
    5MOL   H281 4769   2.477   0.721   4.693 -0.2930 -0.4776  0.0786
    5MOL   C282 4770   2.378   0.569   4.781  0.8031  0.9067 -1.0305
    5MOL   O283 4771   2.273   0.508   4.803  0.1032 -0.2708  0.5461
    5MOL   C284 4772   2.506   0.528   4.857 -0.4037  0.3797 -0.1336
    5MOL   C285 4773   2.527   0.371   4.860 -0.2550  0.1469  0.4553
    5MOL   C286 4774   2.661   0.315   4.900 -0.1751 -0.1627 -0.1517
    5MOL   C287 4775   2.647   0.158   4.897  0.4006 -0.1205 -0.0628
    5MOL   C288 4776   2.603   0.097   5.029 -0.3751  0.0283  0.3274
    5MOL   C289 4777   2.591   7.638   5.037  0.2028  0.6217  0.2912
    5MOL   C290 4778   2.489   7.577   4.934  0.6276  0.2711 -0.0887
    5MOL   C291 4779   2.438   7.435   4.973  0.7211  0.1339  1.0851
    5MOL   C292 4780   2.351   7.362   4.858 -0.1726 -0.0088  0.4319
    5MOL   C293 4781   2.293   7.232   4.911 -0.4674  0.2168  0.1206
    5MOL   C294 4782   2.217   7.143   4.807  0.7701 -0.0661  0.0454
    5MOL   O295 4783   2.166   7.189   4.700 -0.1868 -0.0640 -0.8589
    5MOL   N296 4784   2.201   7.014   4.836 -0.8275  0.6908 -0.7497
    5MOL   C297 4785   2.109   6.925   4.771  0.1581 -0.1660  0.3797
    5MOL   C298 4786   2.160   6.780   4.763 -0.4182  0.1550 -0.4904
    5MOL   C299 4787   2.082   6.678   4.684  0.0489  0.5809 -0.2623
    5MOL   C300 4788   2.166   6.548   4.669 -0.0423  0.6370 -0.6604
    5MOL   C301 4789   2.092   6.451   4.579  0.0975  0.8538 -0.3646
    5MOL   C302 4790   2.162   6.312   4.586  0.1510  0.6384  0.4546
    5MOL   N303 4791   2.098   6.208   4.505 -0.6932 -0.0679 -0.4032
    5MOL   H304 4792   2.594   0.579   4.819 -0.3776  0.0879 -0.4640
    5MOL   H305 4793   2.487   0.552   4.962 -0.2694  0.8026 -0.2057
    5MOL   H306 4794   2.511   0.331   4.760  3.1430 -1.1184  0.3579
    5MOL   H307 4795   2.442   0.329   4.914 -1.3120  1.7377  0.0626
    5MOL   H308 4796   2.728   0.368   4.832 -2.5653  1.9669 -0.9435
    5MOL   H309 4797   2.676   0.347   5.003  2.4623 -1.2578 -0.1657
    5MOL   H310 4798   2.744   0.109   4.882  2.0098  3.0286 -0.3948
    5MOL   H311 4799   2.589   0.119   4.813 -0.0382  1.7392 -0.6438
    5MOL   H312 4800   2.675   0.137   5.101  0.6445 -1.8447  0.3759
    5MOL   H313 4801   2.506   0.144   5.042 -0.3535  1.3147 -3.4777
    5MOL   H314 4802   2.689   7.591   5.025  0.9269  2.4672 -1.0821
    5MOL   H315 4803   2.560   7.624   5.141 -1.7508 -0.8255 -0.4619
    5MOL   H316 4804   2.535   7.574   4.835  0.7744  2.0640 -0.0982
    5MOL   H317 4805   2.405   7.646   4.927  0.3770 -0.2268 -2.4480
    5MOL   H318 4806   2.384   7.456   5.065 -1.1798  2.8832 -0.5359
    5MOL   H319 4807   2.531   7.383   4.992  1.2718  0.1509 -1.3754
    5MOL   H320 4808   2.273   7.426   4.816  0.8695  1.3530  0.5293
    5MOL   H321 4809   2.416   7.340   4.774  2.6733 -0.7522  2.7479
    5MOL   H322 4810   2.368   7.166   4.955 -0.9009 -0.8132 -0.6634
    5MOL   H323 4811   2.222   7.263   4.988  1.0098 -0.5912  1.8487
    5MOL   H324 4812   2.252   6.978   4.916 -0.4891  1.2504 -0.7124
    5MOL   H325 4813   2.095   6.958   4.668  2.9184  0.0186  0.0233
    5MOL   H326 4814   2.018   6.932   4.830 -1.1391 -3.5205 -1.1005
    5MOL   H327 4815   2.163   6.743   4.865  0.6416  2.2275  0.2654
    5MOL   H328 4816   2.262   6.778   4.723 -0.7366  1.5783 -1.4203
    5MOL   H329 4817   2.049   6.716   4.587 -2.0264  0.9821  0.5732
    5MOL   H330 4818   1.992   6.653   4.739 -0.6789  0.7596 -1.3578
    5MOL   H331 4819   2.262   6.582   4.629  0.3715  1.0409  0.6343
    5MOL   H332 4820   2.172   6.501   4.767 -0.0490  0.1944 -0.8756
    5MOL   H333 4821   2.079   6.491   4.479  0.3055 -0.7681 -1.0620
    5MOL   H334 4822   1.991   6.429   4.616 -0.5168  1.7836 -1.4708
    5MOL   H335 4823   2.264   6.326   4.552  0.0588  2.8691  1.0567
    5MOL   H336 4824   2.162   6.282   4.691 -0.7056 -0.1420  0.2447
    5MOL   H337 4825   2.130   6.202   4.409  1.4478 -1.1372  0.3405
    5MOL   C338 4826   2.012   6.110   4.544  1.2571 -0.7547 -0.1591
    5MOL   O339 4827   1.986   6.091   4.665 -0.5153  0.3808 -0.6616
    5MOL   C340 4828   1.951   6.010   4.440 -0.6740 -0.5742 -0.8316
    5MOL   C341 4829   1.796   5.994   4.448 -0.4249  0.1128 -0.1526
    5MOL   C342 4830   1.734   5.870   4.396 -0.2564 -0.3392  0.1912
    5MOL   C343 4831   1.763   5.750   4.485  0.2675 -1.1133  0.5316
    5MOL   C344 4832   1.711   5.615   4.433  0.0758  0.2960  0.0508
    5MOL   C345 4833   1.562   5.612   4.390  0.4375 -0.2934  0.2268
    5MOL   C346 4834   1.506   5.472   4.351 -0.4963  0.1094  0.1816
    5MOL   C347 4835   1.572   5.417   4.222 -0.5177 -0.4191 -0.1926
    5MOL   C348 4836   1.541   5.276   4.186 -0.7020  0.1596  0.2674
    5MOL   C349 4837   1.566   5.172   4.294  0.1060  1.1581 -0.1500
    5MOL   C350 4838   1.569   5.019   4.255  0.7848  0.1533  0.8465
    5MOL   O351 4839   1.660   4.967   4.191 -0.0138 -0.6109  0.1961
    5MOL   N352 4840   1.454   4.953   4.276  0.3662 -0.1898 -0.1763
    5MOL   C353 4841   1.419   4.819   4.227 -0.2833  0.1352 -0.3195
    5MOL   C354 4842   1.429   4.711   4.333 -0.5111 -0.1514 -0.6464
    5MOL   C355 4843   1.351   4.586   4.312 -0.7165 -0.0729 -0.5299
    5MOL   C356 4844   1.395   4.509   4.191  0.0702  0.0645  0.1137
    5MOL   C357 4845   1.310   4.386   4.153  0.5007  0.4224  0.8862
    5MOL   C358 4846   1.338   4.335   4.006  0.4554  0.8816 -0.4143
    5MOL   N359 4847   1.484   4.307   3.990  0.1850 -0.2835  0.4330
    5MOL   H360 4848   2.002   5.917   4.464  0.6799  0.1543 -0.8342
    5MOL   H361 4849   1.990   6.026   4.339  0.5892  3.2450  0.1814
    5MOL   H362 4850   1.761   6.028   4.545  1.7175  1.2640  0.2581
    5MOL   H363 4851   1.760   6.077   4.387 -0.4974 -1.9478 -3.0179
    5MOL   H364 4852   1.776   5.861   4.296 -0.1327  2.4933 -0.0527
    5MOL   H365 4853   1.628   5.895   4.386 -0.1441 -0.7578 -2.4977
    5MOL   H366 4854   1.867   5.744   4.519  0.4968  0.9139  0.2746
    5MOL   H367 4855   1.714   5.772   4.579  2.4067 -1.5399  1.7928
    5MOL   H368 4856   1.774   5.572   4.355  0.8335  0.0512  0.7916
    5MOL   H369 4857   1.730   5.551   4.519 -1.2414 -0.0216  0.1123
    5MOL   H370 4858   1.508   5.654   4.475 -1.0238 -0.9666 -0.3372
    5MOL   H371 4859   1.541   5.686   4.312 -0.2865 -0.6145  0.1111
    5MOL   H372 4860   1.526   5.416   4.443 -1.0476 -0.2654  0.0729
    5MOL   H373 4861   1.398   5.465   4.345 -0.7377  2.9095  0.8275
    5MOL   H374 4862   1.559   5.478   4.133 -1.0163 -0.3529 -0.0807
    5MOL   H375 4863   1.680   5.411   4.229 -0.4420  0.8633 -0.1842
    5MOL   H376 4864   1.576   5.234   4.092 -1.2340 -1.0648  0.5990
    5MOL   H377 4865   1.437   5.285   4.153 -1.6671 -2.5946  2.4331
    5MOL   H378 4866   1.668   5.188   4.328 -0.2704  2.7613  0.2539
    5MOL   H379 4867   1.504   5.185   4.382 -1.5123 -0.7290 -0.9710
    5MOL   H380 4868   1.374   5.002   4.314  1.2131  0.3153  1.0160
    5MOL   H381 4869   1.484   4.791   4.145  1.2548  0.6723  0.6859
    5MOL   H382 4870   1.320   4.815   4.183 -0.9526 -0.1657  1.1676
    5MOL   H383 4871   1.411   4.762   4.428  4.0862  1.5759 -0.5548
    5MOL   H384 4872   1.531   4.677   4.352 -0.3486  0.7932  0.2421
    5MOL   H385 4873   1.369   4.519   4.396  0.5335 -0.5553 -1.1816
    5MOL   H386 4874   1.248   4.620   4.324 -0.8642 -0.1034 -1.6936
    5MOL   H387 4875   1.384   4.577   4.106 -0.3719 -1.5456 -1.1485
    5MOL   H388 4876   1.500   4.480   4.195 -0.3336 -1.4830 -0.3756
    5MOL   H389 4877   1.204   4.406   4.170 -0.0984 -1.4893 -0.3908
    5MOL   H390 4878   1.335   4.308   4.224  2.6744 -0.4137 -0.7490
    5MOL   H391 4879   1.282   4.242   4.000  0.2101  0.9463  0.7043
    5MOL   H392 4880   1.291   4.404   3.935  0.8426  0.3383 -1.2020
    5MOL   H393 4881   1.534   4.362   3.922 -0.6154 -0.7262 -0.5250
    5MOL   C394 4882   1.543   4.198   4.047  0.8366 -0.2647 -0.1545
    5MOL   O395 4883   1.489   4.126   4.130  0.4632  0.1823  0.2140
    5MOL   C396 4884   1.681   4.159   3.995 -0.2700 -0.1345 -0.7678
    5MOL   C397 4885   1.760   4.053   4.070 -0.1190 -0.4741  0.4897
    5MOL   C398 4886   1.855   3.972   3.978  0.5597 -0.1016  1.2508
    5MOL   C399 4887   1.965   4.056   3.905 -0.1105  0.8921  0.0990
    5MOL   C400 4888   2.075   3.983   3.837 -0.2167  0.2135  0.1355
    5MOL   C401 4889   2.025   3.860   3.751 -0.5674 -0.0094  0.1931
    5MOL   C402 4890   2.135   3.791   3.671 -0.1318  0.3464  0.1233
    5MOL   C403 4891   2.078   3.675   3.592 -0.7930 -0.0935 -0.3493
    5MOL   C404 4892   2.173   3.626   3.488  1.1948  0.2520  0.3232
    5MOL   C405 4893   2.101   3.508   3.407  0.3424 -0.6163 -0.4013
    5MOL   C406 4894   2.166   3.477   3.280  0.6226 -0.7790 -0.3859
    5MOL   O407 4895   2.277   3.425   3.280  0.4735 -0.0229  0.3564
    5MOL   N408 4896   2.089   3.488   3.170 -0.3051 -0.1678  0.5016
    5MOL   C409 4897   2.136   3.481   3.033 -0.7811  0.2389  0.2954
    5MOL   C410 4898   2.205   3.612   2.986 -0.4532 -0.0736  0.2775
    5MOL   C411 4899   2.130   3.742   3.008  0.3695  0.0574 -0.0955
    5MOL   C412 4900   2.196   3.864   2.938 -0.5144 -0.3594  0.8249
    5MOL   C413 4901   2.319   3.909   3.013  0.0882 -0.0527 -0.7402
    5MOL   C414 4902   2.394   4.026   2.946  0.0250  0.4824 -0.3227
    5MOL   N415 4903   2.522   4.060   3.012  0.2330  0.1842 -0.4097
    5MOL   H416 4904   1.755   4.237   3.978 -0.9329  1.3276  2.6901
    5MOL   H417 4905   1.647   4.128   3.895 -0.8449 -2.1507  0.0205
    5MOL   H418 4906   1.689   3.986   4.118 -1.4863  0.2993 -0.4301
    5MOL   H419 4907   1.805   4.083   4.164  2.1112  0.5523 -0.8603
    5MOL   H420 4908   1.797   3.914   3.906  1.2998 -0.1732  0.7065
    5MOL   H421 4909   1.919   3.908   4.039  1.9840 -2.1087 -2.1548
    5MOL   H422 4910   2.017   4.122   3.975  3.2257 -2.0055  0.4672
    5MOL   H423 4911   1.912   4.126   3.841  0.3066  1.6815  0.5979
    5MOL   H424 4912   2.138   4.049   3.777  0.4303 -1.5174 -1.1446
    5MOL   H425 4913   2.142   3.949   3.916  1.2509  0.9625 -0.7608
    5MOL   H426 4914   1.975   3.786   3.813  0.4907  0.4969  1.6796
    5MOL   H427 4915   1.949   3.892   3.680  1.7079  1.6096 -1.5828
    5MOL   H428 4916   2.175   3.866   3.604 -0.1458  1.4067  1.2828
    5MOL   H429 4917   2.219   3.759   3.734 -0.4569  1.8075  1.3419
    5MOL   H430 4918   2.055   3.595   3.662 -1.2855  1.7944  1.7314
    5MOL   H431 4919   1.986   3.707   3.542 -0.5839 -0.9197 -1.2622
    5MOL   H432 4920   2.272   3.603   3.527  0.0381  0.3835  3.4761
    5MOL   H433 4921   2.187   3.707   3.417  0.9637  0.3091  0.3416
    5MOL   H434 4922   2.101   3.412   3.458  0.1803  0.2689  1.2903
    5MOL   H435 4923   1.996   3.531   3.390  0.6972  0.2476 -1.4998
    5MOL   H436 4924   2.000   3.536   3.180  1.0589  2.6277 -0.2073
    5MOL   H437 4925   2.042   3.458   2.981 -1.3501  3.3858 -0.1815
    5MOL   H438 4926   2.197   3.392   3.020 -0.3174  0.5867  0.0693
    5MOL   H439 4927   2.216   3.606   2.877 -3.1760  1.8204 -0.1384
    5MOL   H440 4928   2.299   3.623   3.039 -1.0965  1.2224  1.1716
    5MOL   H441 4929   2.031   3.727   2.966 -0.4076  1.1566  1.2893
    5MOL   H442 4930   2.125   3.763   3.115 -0.7963  1.3978 -0.4033
    5MOL   H443 4931   2.229   3.836   2.838  2.1008 -1.4110  1.9482
    5MOL   H444 4932   2.129   3.949   2.923 -0.8358 -0.7658 -0.0651
    5MOL   H445 4933   2.300   3.933   3.117 -0.8106 -1.7232 -0.5108
    5MOL   H446 4934   2.382   3.821   3.020  0.1204  0.1118  1.0814
    5MOL   H447 4935   2.409   4.010   2.840 -0.5597 -1.4797 -0.1319
    5MOL   H448 4936   2.334   4.116   2.938  0.0842  0.4945 -0.6299
    5MOL   H449 4937   2.567   3.985   3.062 -1.7088  0.3849  1.6712
    5MOL   C450 4938   2.584   4.183   3.007  0.9394 -0.1673 -0.1307
    5MOL   O451 4939   2.539   4.274   2.935  0.9263  0.2207 -0.6782
    5MOL   C452 4940   2.718   4.203   3.083 -0.1301  0.1849  0.2775
    5MOL   C453 4941   2.765   4.350   3.080 -0.5610 -0.2278 -0.3792
    5MOL   C454 4942   2.901   4.372   3.155  0.1107 -0.5164 -0.3784
    5MOL   C455 4943   2.954   4.514   3.164 -0.3208 -0.0943 -0.4180
    5MOL   C456 4944   3.090   4.515   3.243 -0.1974  0.2569 -0.4681
    5MOL   C457 4945   3.150   4.651   3.252 -0.5610  0.3069  0.0583
    5MOL   C458 4946   3.176   4.726   3.121 -0.3454 -0.0952 -0.0257
    5MOL   C459 4947   3.268   4.639   3.021 -0.1999  0.0766  0.7994
    5MOL   C460 4948   3.275   4.692   2.881  0.4807 -0.1124  0.4045
    5MOL   C461 4949   3.386   4.633   2.797  0.4000  0.0807 -0.1015
    5MOL   C462 4950   3.390   4.655   2.644 -0.1076 -0.1384  0.0765
    5MOL   O463 4951   3.316   4.727   2.579 -0.0781 -0.2293 -0.2229
    5MOL   N464 4952   3.489   4.589   2.581 -0.3520 -0.3914  1.0113
    5MOL   C465 4953   3.505   4.566   2.436 -0.3267 -0.1427 -0.2688
    5MOL   C466 4954   3.409   4.451   2.392  0.2456 -0.1945  0.9109
    5MOL   C467 4955   3.422   4.316   2.469 -0.0650 -0.4182  0.0829
    5MOL   C468 4956   3.562   4.260   2.491  0.0734 -0.2426  0.0560
    5MOL   C469 4957   3.669   4.264   2.376 -0.7839  0.3536 -0.0195
    5MOL   C470 4958   3.810   4.279   2.422  0.2798 -0.2040  0.4771
    5MOL   N471 4959   3.850   4.183   2.520  0.4735  0.7680  0.2462
    5MOL   H472 4960   2.725   4.172   3.187 -2.3445 -0.7155  0.1956
    5MOL   H473 4961   2.788   4.145   3.022 -1.4716 -0.6423 -0.5137
    5MOL   H474 4962   2.696   4.414   3.135  0.3221 -0.1709  0.6785
    5MOL   H475 4963   2.760   4.381   2.975  0.8270  0.2218 -0.3271
    5MOL   H476 4964   2.973   4.302   3.114 -0.0390 -0.8573 -0.0627
    5MOL   H477 4965   2.889   4.343   3.259 -0.3130  2.2668  0.3967
    5MOL   H478 4966   2.883   4.581   3.210  1.0513  0.8848  0.3143
    5MOL   H479 4967   2.972   4.544   3.061  2.4736  0.6190  0.2284
    5MOL   H480 4968   3.170   4.448   3.211 -0.1571 -0.6481  1.4480
    5MOL   H481 4969   3.074   4.480   3.345 -0.7917  1.6263 -0.0802
    5MOL   H482 4970   3.246   4.639   3.301 -0.0254  0.6666 -0.8872
    5MOL   H483 4971   3.091   4.712   3.321  0.4153 -0.5298  1.6518
    5MOL   H484 4972   3.081   4.754   3.076 -0.5746  1.9079  1.6147
    5MOL   H485 4973   3.223   4.823   3.139 -1.5453  0.1615  1.8860
    5MOL   H486 4974   3.371   4.624   3.051  0.4965 -0.4929 -1.7141
    5MOL   H487 4975   3.222   4.540   3.020 -1.3867  0.6143  0.5275
    5MOL   H488 4976   3.279   4.801   2.884 -1.4784  0.0777 -1.9402
    5MOL   H489 4977   3.179   4.673   2.832  0.2039 -0.1051  0.9474
    5MOL   H490 4978   3.482   4.665   2.838  0.9068  0.1656 -1.3559
    5MOL   H491 4979   3.380   4.525   2.810  0.4160  0.2319  1.2250
    5MOL   H492 4980   3.561   4.557   2.644 -1.0668 -2.7239  0.6942
    5MOL   H493 4981   3.610   4.539   2.424 -0.1418  1.4614 -2.8582
    5MOL   H494 4982   3.496   4.660   2.381  2.5665  0.3642  0.0583
    5MOL   H495 4983   3.304   4.470   2.415  0.1418 -0.8142  0.9631
    5MOL   H496 4984   3.420   4.438   2.284 -1.0619  0.0546  0.7378
    5MOL   H497 4985   3.369   4.242   2.409 -0.0087  0.5166 -1.1269
    5MOL   H498 4986   3.373   4.333   2.565 -0.2186  1.9106 -0.3925
    5MOL   H499 4987   3.544   4.164   2.539 -0.6999 -1.2433 -2.1967
    5MOL   H500 4988   3.603   4.316   2.575  1.7063  0.1524 -0.9726
    5MOL   H501 4989   3.656   4.169   2.325 -0.5085  0.2649  0.0757
    5MOL   H502 4990   3.636   4.337   2.302 -1.3851 -1.9359 -2.0855
    5MOL   H503 4991   3.872   4.273   2.332  1.3012 -2.4979  1.3026
    5MOL   H504 4992   3.832   4.378   2.461  0.4672 -0.1145  0.1520
    5MOL   H505 4993   3.771   4.145   2.571 -0.9199  2.5472 -0.5206
    5MOL   C506 4994   3.971   4.149   2.573 -0.1167 -0.2860 -0.6017
    5MOL   O507 4995   4.073   4.217   2.542  0.0596 -0.0001 -1.0515
    5MOL   C508 4996   3.979   4.027   2.665 -0.2886  0.0579  0.7982
    5MOL   C509 4997   4.086   3.922   2.629  0.4212 -0.4165  0.6590
    5MOL   C510 4998   4.215   3.923   2.714  0.2675  0.1028 -0.4541
    5MOL   C511 4999   4.332   3.828   2.668  0.0767 -0.1485  0.1428
    5MOL   C512 5000   4.290   3.684   2.689  0.2601  0.5123  0.2716
    5MOL   C513 5001   4.408   3.584   2.689  0.3301 -0.3968  0.4136
    5MOL   C514 5002   4.459   3.532   2.552  0.1756  0.5581  0.4689
    5MOL   C515 5003   4.529   3.636   2.467  0.1338 -0.1068  0.4836
    5MOL   C516 5004   4.608   3.575   2.353  0.4057  0.8127  0.4565
    5MOL   C517 5005   4.654   3.671   2.244  0.0653 -0.7308  0.1934
    5MOL   C518 5006   4.782   3.753   2.277  0.1291  0.0176  0.0339
    5MOL   O519 5007   4.895   3.718   2.247  0.5490  0.3806  0.2294
    5MOL   N520 5008   4.754   3.863   2.346  0.4319 -0.5346 -0.2650
    5MOL   C521 5009   4.846   3.939   2.417  0.4007  0.4296 -0.1858
    5MOL   C522 5010   4.924   4.038   2.334  0.2369  0.5235  0.0403
    5MOL   C523 5011   5.002   4.150   2.401  0.5162  0.0401 -0.0525
    5MOL   C524 5012   4.927   4.211   2.519 -0.8691  0.9444  0.5689
    5MOL   C525 5013   5.000   4.328   2.593 -0.5217 -0.6768  0.2720
    5MOL   C526 5014   4.928   4.370   2.723  0.5586 -0.5394 -0.5264
    5MOL   N527 5015   5.013   4.441   2.813  0.4964  0.0440 -0.3710
    5MOL   H528 5016   3.880   3.982   2.657 -0.2601  0.0407  0.5498
    5MOL   H529 5017   3.966   4.061   2.768  0.6804 -0.2244  1.0157
    5MOL   H530 5018   4.114   3.931   2.524 -0.8381  1.5318  0.4676
    5MOL   H531 5019   4.050   3.819   2.633  1.9689 -1.0109 -0.6161
    5MOL   H532 5020   4.192   3.903   2.819  0.8079  0.0369 -0.3436
    5MOL   H533 5021   4.263   4.020   2.723 -1.1294  0.6786  0.8665
    5MOL   H534 5022   4.355   3.871   2.571 -0.1205 -0.6686 -0.1369
    5MOL   H535 5023   4.417   3.849   2.733  1.3961 -1.3329 -1.1657
    5MOL   H536 5024   4.244   3.676   2.787  0.9135  0.0001  0.5376
    5MOL   H537 5025   4.218   3.647   2.616 -2.6339 -0.3785  3.4860
    5MOL   H538 5026   4.490   3.620   2.751 -0.3870  2.1112 -0.0613
    5MOL   H539 5027   4.374   3.498   2.748 -2.2731  2.2560  2.9529
    5MOL   H540 5028   4.536   3.459   2.580  0.1010 -0.6089 -2.2359
    5MOL   H541 5029   4.383   3.475   2.499  1.0180 -0.9134  0.7911
    5MOL   H542 5030   4.455   3.712   2.439  0.9141  0.4495 -0.0775
    5MOL   H543 5031   4.604   3.678   2.534  2.5079 -2.3433 -0.7077
    5MOL   H544 5032   4.543   3.510   2.294 -0.1168  0.3330  1.5522
    5MOL   H545 5033   4.682   3.504   2.390 -1.0389 -0.4832  0.9503
    5MOL   H546 5034   4.676   3.625   2.147 -1.1128 -0.8712 -0.0142
    5MOL   H547 5035   4.576   3.747   2.234 -0.6485 -1.2619  1.6171
    5MOL   H548 5036   4.657   3.886   2.362  1.1978  2.3936  0.4383
    5MOL   H549 5037   4.907   3.871   2.477  1.7198  0.1343 -1.8164
    5MOL   H550 5038   4.775   3.995   2.479  1.4561  0.9693  0.5413
    5MOL   H551 5039   4.848   4.084   2.272  0.3850  0.8730  0.1183
    5MOL   H552 5040   5.000   3.984   2.277 -0.0249  1.4946 -1.2370
    5MOL   H553 5041   5.020   4.230   2.330  0.5468 -2.1147 -2.5351
    5MOL   H554 5042   5.099   4.121   2.441  0.7550 -0.0513 -0.7081
    5MOL   H555 5043   4.914   4.129   2.590  2.3920  0.0972  0.2712
    5MOL   H556 5044   4.829   4.235   2.478 -0.2547 -1.3927 -2.5210
    5MOL   H557 5045   5.101   4.299   2.623 -0.2124  0.4185  0.3208
    5MOL   H558 5046   5.018   4.412   2.527 -2.6353  0.3777  1.0009
    5MOL   H559 5047   4.833   4.420   2.706  0.4044 -1.0957 -1.3490
    5MOL   H560 5048   4.899   4.276   2.771  0.5143 -0.1202  0.2747
    5MOL   H561 5049   5.029   4.536   2.781 -1.6344  0.5220 -0.0463
    5MOL   C562 5050   5.060   4.393   2.932  0.0010  0.1467 -0.6567
    5MOL   O563 5051   5.036   4.280   2.976  0.2779  0.2974  0.3223
    5MOL   C564 5052   5.179   4.481   2.995  0.7535  0.4169  0.0777
    5MOL   C565 5053   5.174   4.497   3.150  0.4449 -0.7866 -0.2678
    5MOL   C566 5054   5.046   4.559   3.210 -0.5223 -0.0556  0.6377
    5MOL   C567 5055   5.080   4.601   3.353 -0.3442  0.2715 -0.1811
    5MOL   C568 5056   4.959   4.659   3.424 -0.1475 -0.3199 -1.2871
    5MOL   C569 5057   5.001   4.696   3.569 -0.2503  0.0646  0.0035
    5MOL   C570 5058   4.897   4.780   3.638 -0.2567  0.6812 -0.4146
    5MOL   C571 5059   4.875   4.915   3.578 -0.2262 -0.6126 -0.2737
    5MOL   C572 5060   4.773   5.000   3.666  0.4353 -0.6869  0.0912
    5MOL   C573 5061   4.740   5.142   3.596  0.4587 -0.3772  0.9519
    5MOL   C574 5062   4.634   5.146   3.486  0.8967 -0.3751  0.1233
    5MOL   O575 5063   4.575   5.045   3.458 -0.5273  0.2191  0.6909
    5MOL   N576 5064   4.612   5.257   3.419 -0.0868 -0.0235  0.6493
    5MOL   C577 5065   4.513   5.259   3.309  0.6806 -0.7596 -0.3447
    5MOL   C578 5066   4.498   5.406   3.246  0.1590 -0.0052 -0.5075
    5MOL   C579 5067   4.616   5.458   3.155  0.3818  0.7963  0.1663
    5MOL   C580 5068   4.592   5.604   3.103 -0.2032  0.5630  0.9235
    5MOL   C581 5069   4.669   5.649   2.983 -0.3568 -0.4231 -0.1972
    5MOL   C582 5070   4.631   5.783   2.935  0.2882  0.0364  0.3021
    5MOL   N583 5071   4.744   5.843   2.866  0.3675 -0.6638 -0.9345
    5MOL   H584 5072   5.277   4.445   2.963  1.5897  1.6276  1.1967
    5MOL   H585 5073   5.178   4.580   2.950 -1.2515  0.4484  0.1508
    5MOL   H586 5074   5.202   4.404   3.198  0.4921 -0.0889  1.0674
    5MOL   H587 5075   5.258   4.556   3.185 -0.3249 -0.5232  1.1642
    5MOL   H588 5076   4.964   4.488   3.207 -1.4609  1.0481 -0.2339
    5MOL   H589 5077   5.020   4.645   3.149 -2.0228  0.0216  1.3718
    5MOL   H590 5078   5.116   4.514   3.409 -0.3989  0.8928  0.8323
    5MOL   H591 5079   5.170   4.661   3.348 -0.6988  0.7992 -0.2482
    5MOL   H592 5080   4.930   4.749   3.370  0.9993 -0.1146 -1.5777
    5MOL   H593 5081   4.872   4.594   3.429 -0.5962  0.3509  0.0892
    5MOL   H594 5082   4.991   4.608   3.633 -0.0715  0.4439  0.5585
    5MOL   H595 5083   5.096   4.750   3.572 -1.3783  1.9532  3.0695
    5MOL   H596 5084   4.808   4.717   3.643  0.2687 -0.2269 -1.9617
    5MOL   H597 5085   4.933   4.786   3.741  1.0055 -0.2680 -0.7908
    5MOL   H598 5086   4.836   4.911   3.476 -3.2725 -2.7624  0.9220
    5MOL   H599 5087   4.970   4.968   3.577  1.9228 -4.3319 -1.5042
    5MOL   H600 5088   4.821   5.028   3.760 -0.8374  1.7168  0.0869
    5MOL   H601 5089   4.680   4.945   3.683  1.4200 -2.1955  0.6262
    5MOL   H602 5090   4.685   5.206   3.665 -0.9875 -0.6445  0.0741
    5MOL   H603 5091   4.828   5.199   3.566  0.2952  0.1587  1.5046
    5MOL   H604 5092   4.658   5.342   3.446 -0.6523  0.2166  0.8627
    5MOL   H605 5093   4.417   5.234   3.355  0.7352 -2.4589 -1.1147
    5MOL   H606 5094   4.527   5.189   3.227  3.7216 -1.2535  0.5380
    5MOL   H607 5095   4.469   5.482   3.319  0.5501 -0.3909  0.0538
    5MOL   H608 5096   4.405   5.401   3.190  0.4686 -0.8274 -0.9651
    5MOL   H609 5097   4.647   5.390   3.076  0.5210 -1.1304  1.8508
    5MOL   H610 5098   4.703   5.465   3.220  0.0964  1.2445  0.5042
    5MOL   H611 5099   4.487   5.625   3.083 -0.4299 -0.0611  1.4429
    5MOL   H612 5100   4.617   5.680   3.177  1.2220  1.0915 -0.0745
    5MOL   H613 5101   4.669   5.582   2.897  1.6876 -0.5591 -0.1224
    5MOL   H614 5102   4.772   5.651   3.018  0.0436  0.4459 -1.4196
    5MOL   H615 5103   4.555   5.790   2.857  0.9340 -1.1304 -0.4574
    5MOL   H616 5104   4.604   5.844   3.021  0.5017 -1.4292  1.4150
    5MOL   H617 5105   4.806   5.907   2.914 -0.2654 -0.5622 -0.2482
    5MOL   C618 5106   4.787   5.820   2.742 -0.3488 -0.1114 -0.5231
    5MOL   O619 5107   4.742   5.731   2.662  0.7771  0.1842  0.2110
    5MOL   C620 5108   4.910   5.898   2.698 -0.6690 -0.6914 -0.3757
    5MOL   C621 5109   4.862   6.006   2.593  0.2921 -0.5426 -0.7570
    5MOL   C622 5110   4.771   6.115   2.649 -0.1263 -0.3641 -0.3242
    5MOL   C623 5111   4.833   6.193   2.768 -0.3978  0.1829  0.4626
    5MOL   C624 5112   4.776   6.330   2.784  0.0568  0.2896  0.3416
    5MOL   C625 5113   4.620   6.334   2.810 -0.0947  0.0003  0.6889
    5MOL   C626 5114   4.573   6.284   2.947 -0.5806 -0.0263  0.4516
    5MOL   C627 5115   4.420   6.329   2.979 -0.0065  0.0616  0.2169
    5MOL   C628 5116   4.322   6.277   2.880  0.2594 -0.3757 -0.1144
    5MOL   C629 5117   4.318   6.128   2.855  0.3169  0.3874  0.9734
    5MOL   C630 5118   4.321   6.076   2.706  0.3738 -0.2938 -0.6006
    5MOL   O631 5119   4.360   6.158   2.617  0.2888 -0.1800 -0.1808
    5MOL   N632 5120   4.300   5.944   2.674 -0.0738  0.2958  0.1466
    5MOL   C633 5121   4.303   5.886   2.544  0.0554  0.6335 -0.2414
    5MOL   C634 5122   4.449   5.848   2.515  0.8907  0.2328  0.3518
    5MOL   C635 5123   4.458   5.805   2.367  0.2468  0.5587 -0.2185
    5MOL   C636 5124   4.602   5.813   2.319 -0.0603 -0.3661 -0.3877
    5MOL   C637 5125   4.656   5.953   2.287  0.1831 -0.2508  0.2451
    5MOL   C638 5126   4.788   5.957   2.207  0.0202  0.4979 -0.3613
    5MOL   N639 5127   4.805   6.090   2.151 -0.0515 -0.2885 -1.0840
    5MOL   H640 5128   4.975   5.825   2.649  0.6577  0.3054 -0.1235
    5MOL   H641 5129   4.963   5.938   2.785 -3.1336  0.3876  0.6855
    5MOL   H642 5130   4.823   5.959   2.503 -0.1468 -2.2509  0.3212
    5MOL   H643 5131   4.954   6.059   2.566  0.3827  0.6319  1.6840
    5MOL   H644 5132   4.681   6.073   2.693 -1.1650  3.3696  1.2374
    5MOL   H645 5133   4.728   6.178   2.572 -0.8011  0.0260  0.3768
    5MOL   H646 5134   4.815   6.136   2.858 -0.9786 -0.9684 -0.3734
    5MOL   H647 5135   4.941   6.205   2.767 -0.5639  1.8710  0.0510
    5MOL   H648 5136   4.831   6.381   2.864  1.7930  1.0717 -1.3052
    5MOL   H649 5137   4.793   6.391   2.695 -0.9959 -1.2610 -0.9555
    5MOL   H650 5138   4.564   6.278   2.735  0.5602  1.0833 -0.6234
    5MOL   H651 5139   4.586   6.438   2.811  1.3411  0.4661  1.2993
    5MOL   H652 5140   4.588   6.177   2.947 -1.8355 -0.2176 -0.3157
    5MOL   H653 5141   4.638   6.322   3.026 -1.2211 -0.5296  1.2279
    5MOL   H654 5142   4.409   6.293   3.081  1.2687  0.5712  0.5458
    5MOL   H655 5143   4.425   6.437   2.989  2.2969 -0.0578  0.8022
    5MOL   H656 5144   4.347   6.328   2.787 -0.6444 -1.3226 -0.8870
    5MOL   H657 5145   4.222   6.309   2.908  1.2793  1.6346  1.3254
    5MOL   H658 5146   4.392   6.072   2.912  0.2004 -1.1713 -0.3911
    5MOL   H659 5147   4.218   6.097   2.887  0.5600 -2.2373 -0.6929
    5MOL   H660 5148   4.263   5.885   2.747  0.6134 -1.7018 -1.0863
    5MOL   H661 5149   4.233   5.802   2.548 -0.1455  0.8397  0.6734
    5MOL   H662 5150   4.270   5.960   2.471  0.9325  3.0937  1.7935
    5MOL   H663 5151   4.493   5.777   2.584 -0.4967  0.1870  1.2242
    5MOL   H664 5152   4.514   5.934   2.531  1.7072 -0.2713 -0.2478
    5MOL   H665 5153   4.429   5.702   2.348  1.5745  0.5834 -2.5943
    5MOL   H666 5154   4.401   5.874   2.305 -0.4140  0.6729  0.5076
    5MOL   H667 5155   4.605   5.755   2.227 -0.1314 -2.7221  1.0282
    5MOL   H668 5156   4.670   5.758   2.384 -2.6566  0.6029  3.3536
    5MOL   H669 5157   4.587   6.004   2.220 -1.4488 -0.9286  1.3838
    5MOL   H670 5158   4.662   6.006   2.382 -0.3975 -0.0243  0.1579
    5MOL   H671 5159   4.872   5.927   2.271 -0.6416  1.5631  1.0414
    5MOL   H672 5160   4.793   5.893   2.119  1.4417  1.8079 -1.2562
    5MOL   H673 5161   4.769   6.170   2.202 -0.4709 -0.8860 -0.4352
    5MOL   C674 5162   4.876   6.119   2.045 -0.1942  0.5779 -0.3582
    5MOL   O675 5163   4.931   6.037   1.969  0.6235 -0.3098  0.1899
    5MOL   C676 5164   4.873   6.262   1.997 -0.3103 -0.1550 -0.9685
    5MOL   C677 5165   5.019   6.319   1.971 -0.0428 -0.5477  0.0864
    5MOL   C678 5166   5.118   6.320   2.089  1.5040  0.0882  0.6252
    5MOL   C679 5167   5.085   6.434   2.194  0.3282 -0.6758  0.0322
    5MOL   C680 5168   5.164   6.431   2.328  0.5028 -0.1021 -0.2683
    5MOL   C681 5169   5.145   6.293   2.394 -0.2247 -0.1384  1.4339
    5MOL   C682 5170   5.187   6.302   2.543 -0.8187 -0.3665  0.4266
    5MOL   C683 5171   5.339   6.287   2.552 -0.0101  1.1495  0.6108
    5MOL   C684 5172   5.393   6.254   2.695  0.6653  0.3983  0.3129
    5MOL   C685 5173   5.418   6.384   2.781 -0.4773 -0.6213  0.5642
    5MOL   C686 5174   5.288   6.434   2.834  1.0509  0.4378 -0.3276
    5MOL   O687 5175   5.216   6.361   2.898  0.4221  0.8611 -0.2200
    5MOL   N688 5176   5.265   6.565   2.820  0.5294  0.7741  0.7523
    5MOL   C689 5177   5.147   6.637   2.864  0.7822  0.2476 -0.0503
    5MOL   C690 5178   5.024   6.612   2.766  0.4703 -0.2564 -0.1244
    5MOL   C691 5179   4.997   6.725   2.662  0.1085 -0.3035  0.7927
    5MOL   C692 5180   4.859   6.706   2.581  0.4301  0.3390  0.2979
    5MOL   C693 5181   4.873   6.602   2.475 -0.0109  0.7393  0.2900
    5MOL   C694 5182   4.747   6.597   2.381 -0.0193 -0.1904  0.4402
    5MOL   N695 5183   4.652   6.500   2.418 -0.2738 -0.5035 -0.2300
    5MOL   H696 5184   4.821   6.320   2.073 -0.5661  0.8537 -1.9017
    5MOL   H697 5185   4.804   6.279   1.915 -0.6122 -1.0217 -0.8895
    5MOL   H698 5186   5.001   6.423   1.944  0.3390 -0.5985 -0.3663
    5MOL   H699 5187   5.051   6.272   1.878 -0.6260  2.2234 -1.5795
    5MOL   H700 5188   5.132   6.224   2.139 -2.2835  1.3086  4.3236
    5MOL   H701 5189   5.222   6.328   2.056  1.5849 -0.1007  0.8385
    5MOL   H702 5190   4.979   6.430   2.219  0.6780  2.2474  2.2726
    5MOL   H703 5191   5.116   6.526   2.145 -0.2997 -0.2495  0.4334
    5MOL   H704 5192   5.140   6.511   2.398  1.6795 -0.0592  0.1152
    5MOL   H705 5193   5.265   6.462   2.299  0.9359  0.3311  1.6193
    5MOL   H706 5194   5.039   6.267   2.394  0.0149 -1.1436  2.5452
    5MOL   H707 5195   5.200   6.217   2.338  0.1185  0.9832  0.2273
    5MOL   H708 5196   5.152   6.394   2.592  0.5611  0.1956  0.3666
    5MOL   H709 5197   5.139   6.216   2.590 -0.8970  0.1216  1.2709
    5MOL   H710 5198   5.378   6.207   2.489 -0.8397  0.5526  0.8459
    5MOL   H711 5199   5.390   6.375   2.514 -2.0704  1.2061 -2.1754
    5MOL   H712 5200   5.489   6.201   2.698  0.7224  0.5444  1.8781
    5MOL   H713 5201   5.321   6.188   2.743 -0.7127  1.1232 -0.7435
    5MOL   H714 5202   5.489   6.364   2.862 -0.7040 -1.0150  0.6682
    5MOL   H715 5203   5.465   6.471   2.735 -0.1509 -0.4565  1.1910
    5MOL   H716 5204   5.340   6.621   2.781 -0.3250  1.6483  0.3411
    5MOL   H717 5205   5.131   6.597   2.964  0.5701 -0.3194 -0.3093
    5MOL   H718 5206   5.160   6.745   2.879  1.7403  0.2106 -0.5748
    5MOL   H719 5207   4.936   6.607   2.831 -0.5156 -0.2927 -1.4549
    5MOL   H720 5208   5.028   6.512   2.723  1.3594 -0.8700  1.3223
    5MOL   H721 5209   4.999   6.814   2.723  0.7321 -0.9850  1.7748
    5MOL   H722 5210   5.077   6.745   2.590  0.3491  2.7526  1.8781
    5MOL   H723 5211   4.831   6.799   2.531  0.6807  0.1437 -0.2098
    5MOL   H724 5212   4.777   6.679   2.647  0.1912  1.8027  0.6280
    5MOL   H725 5213   4.895   6.507   2.523  1.1667  1.2752  0.8325
    5MOL   H726 5214   4.964   6.626   2.418  0.5872  1.5547  1.5662
    5MOL   H727 5215   4.702   6.696   2.383 -2.0632 -1.0388 -1.5301
    5MOL   H728 5216   4.781   6.573   2.280 -0.8139 -0.7877  0.3085
    5MOL   H729 5217   4.572   6.533   2.470 -0.3474 -0.9003 -0.0852
    5MOL   C730 5218   4.640   6.374   2.364  0.3286 -0.3413 -0.1315
    5MOL   O731 5219   4.732   6.311   2.313  0.4564  0.9522 -0.1374
    5MOL   C732 5220   4.513   6.291   2.387 -0.1700  0.3015 -0.3635
    5MOL   C733 5221   4.442   6.253   2.258 -0.5345 -0.1059 -0.6132
    5MOL   C734 5222   4.362   6.372   2.210  0.0500 -0.1158 -0.1594
    5MOL   C735 5223   4.405   6.412   2.063  0.2297  0.7248  0.6233
    5MOL   C736 5224   4.339   6.319   1.958 -0.3904  0.0867  0.2757
    5MOL   C737 5225   4.374   6.372   1.819  0.5013 -0.3416 -0.6819
    5MOL   C738 5226   4.527   6.373   1.779  0.1546  0.8020  0.0452
    5MOL   C739 5227   4.555   6.409   1.643 -0.4299  0.2099  0.3350
    5MOL   C740 5228   4.701   6.440   1.612  0.4795  0.3790 -0.7006
    5MOL   C741 5229   4.735   6.461   1.458 -0.2968  0.2603 -0.7306
    5MOL   C742 5230   4.686   6.592   1.396  0.3029 -0.2081  0.2519
    5MOL   O743 5231   4.661   6.683   1.473  0.2796 -0.5803  0.3942
    5MOL   N744 5232   4.690   6.610   1.265 -0.4760  0.2734 -0.6316
    5MOL   C745 5233   4.669   6.734   1.187 -0.3749 -0.4215  0.1072
    5MOL   C746 5234   4.797   6.765   1.102 -0.0252  0.1251 -0.8311
    5MOL   C747 5235   4.768   6.878   1.000 -0.5402  0.2102 -0.3246
    5MOL   C748 5236   4.886   6.934   0.913  0.5653 -0.2193 -0.4847
    5MOL   C749 5237   4.826   7.028   0.806  0.3647  0.6388  0.2490
    5MOL   C750 5238   4.939   7.080   0.710 -0.1259  0.0019  0.5367
    5MOL   N751 5239   4.988   6.972   0.614  0.5165 -0.1407 -0.1199
    5MOL   H752 5240   4.434   6.342   2.442 -1.9088 -0.9553 -1.6494
    5MOL   H753 5241   4.544   6.204   2.444 -0.8918  0.6116  0.4998
    5MOL   H754 5242   4.370   6.177   2.289 -0.7666  1.0933  1.9072
    5MOL   H755 5243   4.506   6.201   2.187 -2.2955 -3.0107 -0.2047
    5MOL   H756 5244   4.386   6.456   2.275  1.7295  1.1453 -2.3457
    5MOL   H757 5245   4.256   6.348   2.218 -0.0616  0.4851  0.2162
    5MOL   H758 5246   4.514   6.412   2.063  0.2295  0.6452  0.2673
    5MOL   H759 5247   4.384   6.517   2.041 -1.5073 -0.0142 -1.4050
    5MOL   H760 5248   4.231   6.302   1.963 -0.4033 -0.1669 -0.8665
    5MOL   H761 5249   4.385   6.222   1.974 -0.5454 -0.4727 -2.4957
    5MOL   H762 5250   4.319   6.311   1.748  0.8325  0.1343 -1.3534
    5MOL   H763 5251   4.321   6.465   1.801  0.8120 -0.2385 -1.0844
    5MOL   H764 5252   4.594   6.430   1.843  1.9101 -1.5201  0.3655
    5MOL   H765 5253   4.569   6.275   1.802 -2.8316 -0.5753 -0.0893
    5MOL   H766 5254   4.525   6.319   1.590  0.0360  0.2763 -0.0471
    5MOL   H767 5255   4.487   6.488   1.612 -0.0121  0.2512 -0.4978
    5MOL   H768 5256   4.751   6.349   1.646 -1.6766 -0.1129  1.3292
    5MOL   H769 5257   4.742   6.524   1.668 -1.9976 -0.4590  2.5547
    5MOL   H770 5258   4.843   6.459   1.440  0.1672 -0.6133  1.9404
    5MOL   H771 5259   4.698   6.385   1.390 -1.6807  0.8157 -0.5986
    5MOL   H772 5260   4.717   6.526   1.216  0.2826 -0.0823  0.3800
    5MOL   H773 5261   4.644   6.822   1.246  1.6267 -0.4328  1.0121
    5MOL   H774 5262   4.582   6.728   1.122 -2.2610  0.4600  2.4678
    5MOL   H775 5263   4.818   6.678   1.040  0.8983 -0.4548  0.2762
    5MOL   H776 5264   4.882   6.774   1.170  0.9896 -1.7755 -1.8233
    5MOL   H777 5265   4.719   6.960   1.053 -0.5162 -0.7638  1.2502
    5MOL   H778 5266   4.686   6.830   0.947 -1.2110  0.9408  0.0385
    5MOL   H779 5267   4.963   6.983   0.973 -0.9401 -0.1536  1.4180
    5MOL   H780 5268   4.941   6.855   0.861  0.3476 -0.2879 -0.6101
    5MOL   H781 5269   4.778   7.106   0.864 -3.6575 -2.1300  0.8201
    5MOL   H782 5270   4.743   6.980   0.755 -2.5870  1.0069  4.4364
    5MOL   H783 5271   4.899   7.163   0.651  3.8434  2.4791  1.1251
    5MOL   H784 5272   5.022   7.121   0.767 -0.1965  0.5175  0.2750
    5MOL   H785 5273   4.951   6.880   0.632  1.9411 -0.7901 -0.4568
    5MOL   C786 5274   5.062   7.006   0.506 -0.9906  0.1702  0.5714
    5MOL   O787 5275   5.097   7.125   0.478  0.1157  0.2513  0.4652
    5MOL   C788 5276   5.097   6.892   0.413  0.1464  0.5209 -0.7507
    5MOL   C789 5277   5.153   6.921   0.269  0.2149  0.7445 -0.1324
    5MOL   C790 5278   5.143   6.782   0.197 -0.4374  0.1528 -0.4533
    5MOL   C791 5279   5.253   6.685   0.253  0.6611 -0.7610  0.7011
    5MOL   C792 5280   5.270   6.563   0.162  0.3154  0.5628 -0.1531
    5MOL   C793 5281   5.384   6.458   0.208  0.4436  0.2753 -0.0630
    5MOL   C794 5282   5.526   6.525   0.217  1.2248  0.1178 -0.1190
    5MOL   C795 5283   5.586   6.523   0.079  0.8655  0.0657 -0.2685
    5MOL   C796 5284   5.731   6.582   0.087 -0.5218  0.5115  0.0586
    5MOL   C797 5285   5.817   6.586   7.652  0.2171 -0.6753  0.7511
    5MOL   C798 5286   5.870   6.451   7.611  0.8482  0.1562  0.6871
    5MOL   O799 5287   5.969   6.407   7.677 -0.1024 -0.1848  0.2286
    5MOL   N800 5288   5.813   6.389   7.506  0.6487  0.4552 -0.1019
    5MOL   C801 5289   5.840   6.247   7.452  0.7703 -0.0128 -0.0686
    5MOL   C802 5290   5.763   6.142   7.533  0.2370 -0.2092 -0.0976
    5MOL   C803 5291   5.737   6.003   7.481 -0.3146 -0.1846  0.3735
    5MOL   C804 5292   5.636   6.004   7.368 -0.1716  0.1626 -0.0517
    5MOL   C805 5293   5.595   5.863   7.335  0.4251 -0.4840  0.1865
    5MOL   C806 5294   5.469   5.856   7.246  0.0071 -0.5537  0.0455
    5MOL   N807 5295   5.444   5.730   7.200  0.2423  0.2966  0.0575
    5MOL   H808 5296   5.012   6.825   0.410 -0.2562  0.9059  1.5050
    5MOL   H809 5297   5.170   6.838   0.473  0.0077 -0.4057 -1.4152
    5MOL   H810 5298   5.098   6.992   0.207 -2.4993 -1.5134 -0.4540
    5MOL   H811 5299   5.250   6.971   0.273  0.4974  0.1019  1.8665
    5MOL   H812 5300   5.156   6.803   0.091  1.2375  1.5131 -0.0120
    5MOL   H813 5301   5.047   6.730   0.199 -0.1347 -0.5113 -2.1595
    5MOL   H814 5302   5.349   6.738   0.249 -0.4921  1.4602  1.3888
    5MOL   H815 5303   5.232   6.662   0.357 -1.5236  0.2409  0.5101
    5MOL   H816 5304   5.176   6.509   0.157  0.2335  0.7824 -1.3687
    5MOL   H817 5305   5.306   6.580   0.060  0.6051 -2.5132 -0.6139
    5MOL   H818 5306   5.363   6.408   0.302  0.6960  2.3011  1.0896
    5MOL   H819 5307   5.386   6.380   0.132  0.6163  0.1361  0.0847
    5MOL   H820 5308   5.525   6.625   0.261  2.2433 -0.1186  0.4749
    5MOL   H821 5309   5.577   6.464   0.291 -2.0146 -1.3814  0.9358
    5MOL   H822 5310   5.589   6.426   0.030 -0.9365  0.9300 -2.1784
    5MOL   H823 5311   5.535   6.593   0.012 -0.2954  0.4910  1.0276
    5MOL   H824 5312   5.785   6.529   0.165  1.2762  0.3429 -1.2643
    5MOL   H825 5313   5.721   6.683   0.127  0.5450 -0.2918  2.4765
    5MOL   H826 5314   5.747   6.613   7.573 -0.3084 -1.1504  1.0519
    5MOL   H827 5315   5.897   6.659   7.658 -0.7040  0.6244 -2.0067
    5MOL   H828 5316   5.745   6.443   7.455  0.3931  1.1226  0.9291
    5MOL   H829 5317   5.947   6.229   7.453  0.4948 -1.8208  2.2272
    5MOL   H830 5318   5.805   6.247   7.349 -1.6713 -5.6496  0.5757
    5MOL   H831 5319   5.671   6.186   7.570  0.1247  1.0867 -1.8306
    5MOL   H832 5320   5.820   6.122   7.623 -0.5857 -0.3296  0.4022
    5MOL   H833 5321   5.824   5.952   7.440 -0.9447 -1.1049  0.1744
    5MOL   H834 5322   5.699   5.937   7.559  0.8728 -3.9000 -2.0892
    5MOL   H835 5323   5.680   6.049   7.279  0.0741  1.3361  0.6483
    5MOL   H836 5324   5.559   6.070   7.409  0.5438  0.6603  0.5061
    5MOL   H837 5325   5.564   5.799   7.418 -0.6231 -0.8152 -0.4576
    5MOL   H838 5326   5.681   5.812   7.292 -0.1727 -2.0541  0.7908
    5MOL   H839 5327   5.486   5.925   7.163 -1.1963 -0.0200  0.2318
    5MOL   H840 5328   5.391   5.897   7.310 -0.5157 -0.6602 -0.5126
    5MOL   H841 5329   5.495   5.695   7.120  0.5349  0.4709  0.1683
    5MOL   C842 5330   5.372   5.642   7.272  0.3459  0.2550 -0.0414
    5MOL   O843 5331   5.325   5.667   7.385 -0.2105 -0.1062 -0.3471
    5MOL   C844 5332   5.345   5.505   7.215 -0.0483 -0.3636 -0.3972
    5MOL   C845 5333   5.203   5.491   7.168 -0.0747 -0.2037  0.0989
    5MOL   C846 5334   5.187   5.365   7.081  0.0199  0.0396 -0.0982
    5MOL   C847 5335   5.061   5.361   6.996 -0.5711 -0.4879  1.0307
    5MOL   C848 5336   5.080   5.260   6.877 -0.6106  0.0199  0.2577
    5MOL   C849 5337   5.085   5.120   6.917 -0.3644  0.5019  0.0863
    5MOL   C850 5338   5.095   5.039   6.796 -0.6065  0.9938 -0.1861
    5MOL   C851 5339   5.131   4.887   6.823 -0.5593 -0.0223  0.0085
    5MOL   C852 5340   5.098   4.794   6.707 -0.4405 -0.1672  0.2078
    5MOL   C853 5341   5.101   4.644   6.729  0.2601  0.2798 -0.1292
    5MOL   C854 5342   5.242   4.590   6.722 -0.1062  0.6499  0.0527
    5MOL   O855 5343   5.341   4.664   6.734 -0.3134 -0.7064 -0.1625
    5MOL   N856 5344   5.252   4.454   6.717  0.2252  0.5216  0.6080
    5MOL   C857 5345   5.366   4.379   6.743  0.4811  0.2719 -0.0373
    5MOL   C858 5346   5.338   4.252   6.823 -0.2339  0.4324  0.3163
    5MOL   C859 5347   5.463   4.191   6.881  0.4570 -0.3607  0.3040
    5MOL   C860 5348   5.439   4.071   6.975  0.3710  0.6051  0.1470
    5MOL   C861 5349   5.400   3.941   6.912  1.0580  0.3401  0.4652
    5MOL   C862 5350   5.360   3.829   7.015 -0.4749  0.2152 -0.2612
    5MOL   N863 5351   5.246   3.872   7.103 -0.2359 -0.4031  0.1952
    5MOL   H864 5352   5.373   5.427   7.286 -0.0402 -0.0768 -0.0858
    5MOL   H865 5353   5.409   5.487   7.129  2.3742  1.7584  0.8783
    5MOL   H866 5354   5.180   5.576   7.102  1.9581 -0.8640 -1.5030
    5MOL   H867 5355   5.132   5.492   7.251 -0.2871 -0.3725 -0.0794
    5MOL   H868 5356   5.271   5.350   7.014 -0.8161  2.9321 -1.8718
    5MOL   H869 5357   5.181   5.281   7.150  1.3503 -0.7630 -0.9353
    5MOL   H870 5358   5.051   5.458   6.947 -0.1755 -1.0266 -0.1440
    5MOL   H871 5359   4.970   5.344   7.053 -0.1527 -0.8645  1.5949
    5MOL   H872 5360   4.992   5.267   6.813 -1.6493  0.6849  1.7416
    5MOL   H873 5361   5.159   5.289   6.807 -0.2444  0.1822  0.7288
    5MOL   H874 5362   5.161   5.115   6.994  1.2111  1.5803 -1.3708
    5MOL   H875 5363   4.994   5.083   6.965  0.8589 -1.2707  1.0884
    5MOL   H876 5364   5.001   5.035   6.742 -2.0602  0.5134  2.2759
    5MOL   H877 5365   5.168   5.072   6.723 -0.7893  0.1838 -0.7436
    5MOL   H878 5366   5.058   4.854   6.898 -1.7188  1.7149 -0.3345
    5MOL   H879 5367   5.235   4.867   6.849  0.0234  0.6517 -1.7620
    5MOL   H880 5368   5.167   4.817   6.626 -0.5346 -1.2036 -0.1720
    5MOL   H881 5369   5.001   4.827   6.670 -0.7977  0.0674  1.3113
    5MOL   H882 5370   5.074   4.624   6.832  3.2161 -1.9315  0.2629
    5MOL   H883 5371   5.021   4.598   6.670 -0.3764 -0.6880  1.4583
    5MOL   H884 5372   5.166   4.402   6.702  1.2744 -0.9563 -0.4743
    5MOL   H885 5373   5.428   4.442   6.805  3.1074 -1.4253 -0.8421
    5MOL   H886 5374   5.437   4.359   6.662  0.1952 -0.9764  0.0014
    5MOL   H887 5375   5.275   4.188   6.761  1.6783  1.7845 -3.1023
    5MOL   H888 5376   5.269   4.278   6.904  1.4126  0.5625  1.7196
    5MOL   H889 5377   5.511   4.277   6.928  0.5180  0.9438 -2.1057
    5MOL   H890 5378   5.530   4.158   6.802  0.7709  0.5535  0.1815
    5MOL   H891 5379   5.364   4.092   7.052  1.1551  0.4925  0.9596
    5MOL   H892 5380   5.526   4.046   7.037 -1.5107 -0.4724  2.4348
    5MOL   H893 5381   5.312   3.958   6.850  1.0738  0.4972  0.4879
    5MOL   H894 5382   5.471   3.908   6.835  1.7153  0.3132  1.0739
    5MOL   H895 5383   5.325   3.735   6.973 -2.4389  0.5660  0.5041
    5MOL   H896 5384   5.445   3.801   7.077 -1.8811 -0.8687  1.2218
    5MOL   H897 5385   5.205   3.965   7.095 -0.0268 -0.1840  1.5511
    5MOL   C898 5386   5.200   3.788   7.196  0.5817 -0.0161 -0.0331
    5MOL   O899 5387   5.229   3.669   7.203 -0.3196  0.0917  0.1253
    5MOL   C900 5388   5.096   3.846   7.291 -0.7253  0.3787  0.9369
    5MOL   C901 5389   5.089   3.781   7.429  0.9418  0.5843 -0.7555
    5MOL   C902 5390   5.180   3.834   7.546 -0.0235 -0.2128 -0.6520
    5MOL   C903 5391   5.329   3.870   7.524  0.5685 -0.0611  0.2425
    5MOL   C904 5392   5.419   3.757   7.500 -0.7398 -0.2379  0.1146
    5MOL   C905 5393   5.550   3.797   7.443 -0.6222 -0.3670  0.3674
    5MOL   C906 5394   5.634   3.671   7.392  0.0609 -0.1902 -0.4592
    5MOL   C907 5395   5.766   3.695   7.334 -0.1889 -0.0724  0.1531
    5MOL   C908 5396   5.819   3.556   7.286 -0.4667 -0.3231  0.1195
    5MOL   C909 5397   5.965   3.553   7.246 -0.6301 -0.0253 -0.4095
    5MOL   C910 5398   6.063   3.558   7.362 -0.8328  0.1115  0.4875
    5MOL   O911 5399   6.049   3.495   7.470 -0.2207  0.4936 -0.4365
    5MOL   N912 5400   6.169   3.640   7.339  0.9769  0.5363  0.5329
    5MOL   C913 5401   6.276   3.682   7.427  0.4557 -0.5965  0.6835
    5MOL   C914 5402   6.229   3.776   7.543 -0.6879 -0.1083  0.0025
    5MOL   C915 5403   6.149   3.902   7.506  0.5917 -0.5558 -0.1070
    5MOL   C916 5404   6.109   3.989   7.626  0.0355  0.3101 -0.2663
    5MOL   C917 5405   5.976   4.068   7.610 -0.4161  0.5666 -0.3082
    5MOL   C918 5406   5.952   4.165   0.035 -0.3215  0.4428 -0.4315
    5MOL   N919 5407   6.070   4.223   0.091 -0.4854  0.1623  0.5804
    5MOL   H920 5408   5.112   3.954   7.297  0.8839  0.4535 -3.2257
    5MOL   H921 5409   5.003   3.845   7.235  0.0155 -1.0009 -0.2746
    5MOL   H922 5410   5.125   3.678   7.426  1.5541  0.7936 -0.7220
    5MOL   H923 5411   4.987   3.777   7.467  1.1004 -0.2211 -0.3992
    5MOL   H924 5412   5.178   3.762   7.627  0.4923 -0.7126 -1.0733
    5MOL   H925 5413   5.135   3.921   7.593 -1.5476 -1.1439 -0.3573
    5MOL   H926 5414   5.335   3.944   7.445  0.0801 -0.5574 -0.2612
    5MOL   H927 5415   5.368   3.927   7.608 -0.7710 -0.5397  1.2095
    5MOL   H928 5416   5.372   3.700   7.419 -1.3946  1.3760 -0.6473
    5MOL   H929 5417   5.435   3.697   7.590 -2.4984  0.6810  1.0728
    5MOL   H930 5418   5.544   3.853   7.350  0.7819 -2.3562 -0.9723
    5MOL   H931 5419   5.600   3.848   7.526 -1.2600  0.2826  0.3589
    5MOL   H932 5420   5.575   3.618   7.317  1.1860 -2.7818  0.4425
    5MOL   H933 5421   5.636   3.606   7.479 -0.8963  1.3687  0.7720
    5MOL   H934 5422   5.840   3.727   7.407  0.3560 -1.3093  0.1711
    5MOL   H935 5423   5.761   3.766   7.251 -2.4085  2.7784  2.6292
    5MOL   H936 5424   5.799   3.482   7.364  0.3919  0.0677  0.7141
    5MOL   H937 5425   5.760   3.531   7.197 -0.0695  0.0109 -0.2387
    5MOL   H938 5426   5.984   3.465   7.185 -1.6209  0.0086 -0.7762
    5MOL   H939 5427   5.978   3.633   7.174  3.6282 -0.9827 -0.8147
    5MOL   H940 5428   6.162   3.691   7.252 -1.7474 -0.2063  0.2630
    5MOL   H941 5429   6.347   3.734   7.364  0.9779  0.1516  1.8685
    5MOL   H942 5430   6.328   3.593   7.463  0.5695 -0.1884  1.5369
    5MOL   H943 5431   6.164   3.727   7.615  0.4449  0.0556  1.1547
    5MOL   H944 5432   6.317   3.804   7.601 -0.6971 -0.8167  0.3549
    5MOL   H945 5433   6.218   3.964   7.449  3.7482 -0.9272  3.1317
    5MOL   H946 5434   6.059   3.875   7.451  0.8840  0.1182 -0.9371
    5MOL   H947 5435   6.195   4.047   7.660  0.7232  0.7531 -2.6710
    5MOL   H948 5436   6.076   3.917   0.010 -0.2519  0.1079 -0.5843
    5MOL   H949 5437   5.991   4.136   7.526 -0.3639  0.2531 -0.5491
    5MOL   H950 5438   5.890   4.007   7.584 -1.3859  2.3531 -1.4344
    5MOL   H951 5439   5.901   4.114   0.117  0.9641 -1.6765 -0.9104
    5MOL   H952 5440   5.881   4.240   0.003 -3.1684 -0.8556  2.5162
    5MOL   H953 5441   6.120   4.178   0.166  0.3564 -2.0224 -1.1968
    5MOL   C954 5442   6.118   4.345   0.053 -0.6847 -0.0657  0.2904
    5MOL   O955 5443   6.087   4.403   7.643 -0.9148  0.0415 -0.0005
    5MOL   C956 5444   6.229   4.405   0.146 -0.0149 -0.0294 -0.7912
    5MOL   C957 5445   6.353   4.466   0.072 -0.0576 -0.1603  0.2856
    5MOL   C958 5446   6.451   4.359   0.021 -0.7367  0.1387 -0.1252
    5MOL   C959 5447   6.514   4.269   0.132  0.5793 -0.3842  0.1381
    5MOL   C960 5448   6.634   4.195   0.082 -0.9926  0.0183 -0.4464
    5MOL   C961 5449   6.601   4.099   7.657 -0.9150  0.0424 -0.7183
    5MOL   C962 5450   6.721   4.007   7.629  0.2375  0.3055  0.1083
    5MOL   C963 5451   6.667   3.868   7.586  0.3350  0.7901  0.6968
    5MOL   C964 5452   6.778   3.778   7.522 -0.5123  0.1829 -0.0259
    5MOL   C965 5453   6.878   3.726   7.632  0.2366 -0.5032 -0.5413
    5MOL   C966 5454   7.011   3.676   7.573 -0.1371 -0.0810 -0.1439
    5MOL   O967 5455   7.012   3.617   7.465  0.1192  0.2642  0.2628
    5MOL   N968 5456   7.122   3.692   7.647 -0.8633 -0.0500  0.1329
    5MOL   C969 5457   7.240   3.614   7.633 -0.4466 -0.0366  0.0853
    5MOL   C970 5458   7.322   3.604   0.073 -0.2105 -0.6594  0.1591
    5MOL   C971 5459   7.410   3.732   0.102 -0.6395 -0.8416 -0.2110
    5MOL   C972 5460   7.471   3.747   0.244 -0.0846  0.6112  0.6345
    5MOL   C973 5461   7.565   3.860   0.260  0.3006 -0.9848 -0.3046
    5MOL   C974 5462   7.603   3.900   0.406  0.1441 -0.5959  0.2233
    5MOL   N975 5463   7.666   3.784   0.473  0.1766 -0.3783 -0.4225
    5MOL   H976 5464   6.181   4.481   0.208 -1.9894 -0.9955 -1.1112
    5MOL   H977 5465   6.261   4.331   0.220 -1.9016 -0.6621 -0.5797
    5MOL   H978 5466   6.401   4.540   0.135  1.2077 -0.0661 -0.7678
    5MOL   H979 5467   6.332   4.533   7.680 -1.7433  0.7850  1.4446
    5MOL   H980 5468   6.399   4.307   7.632 -1.8562  1.8929 -0.5627
    5MOL   H981 5469   6.531   4.402   7.653 -0.7799 -1.0210 -1.0476
    5MOL   H982 5470   6.548   4.336   0.211 -0.1161  1.1305 -0.8221
    5MOL   H983 5471   6.441   4.196   0.166 -2.6160  2.2937 -0.6926
    5MOL   H984 5472   6.718   4.264   0.075 -0.3750 -0.1729  3.5863
    5MOL   H985 5473   6.662   4.131   0.166 -1.7335  0.2116 -0.0442
    5MOL   H986 5474   6.517   4.033   7.678 -0.6487 -0.3515 -0.8880
    5MOL   H987 5475   6.577   4.145   7.561 -1.1267 -2.9529 -2.1515
    5MOL   H988 5476   6.802   4.057   7.575  0.5142 -0.3023 -0.0372
    5MOL   H989 5477   6.760   3.983   0.037  0.0369 -1.9554 -0.3464
    5MOL   H990 5478   6.623   3.814   7.670 -0.5891 -0.7439 -0.7332
    5MOL   H991 5479   6.597   3.887   7.504  0.3963  2.2842  0.9853
    5MOL   H992 5480   6.830   3.844   7.452  1.2393 -0.7509  0.3775
    5MOL   H993 5481   6.740   3.684   7.482  1.2181  0.2043 -1.7898
    5MOL   H994 5482   6.892   3.805   0.015 -1.2141 -1.0350  0.3255
    5MOL   H995 5483   6.835   3.638   7.680  1.1129 -0.4590  0.3482
    5MOL   H996 5484   7.112   3.756   0.033 -0.1620  2.7623 -2.0162
    5MOL   H997 5485   7.294   3.659   7.549 -0.2184  0.1407  0.3253
    5MOL   H998 5486   7.212   3.510   7.614  1.7723 -0.2545 -2.3300
    5MOL   H999 5487   7.390   3.520   0.065  2.3315  1.3704 -0.2560
    5MOL     H1 5488   7.261   3.575   0.159 -0.6400 -0.9011 -0.2308
    5MOL     H2 5489   7.342   3.818   0.096  3.6695  2.7216 -0.6429
    5MOL     H3 5490   7.485   3.742   0.024 -0.7787 -2.3317 -0.5456
    5MOL     H4 5491   7.388   3.760   0.314 -1.2585 -2.1453 -0.1789
    5MOL     H5 5492   7.505   3.647   0.274 -1.7045 -0.3051 -0.5234
    5MOL     H6 5493   7.534   3.951   0.209 -3.7420 -0.9434  2.0102
    5MOL     H7 5494   7.660   3.849   0.208 -0.1345  0.9149 -1.5511
    5MOL     H8 5495   7.670   3.986   0.407 -0.9038  0.2221  1.2334
    5MOL     H9 5496   7.516   3.925   0.466 -0.4173  0.0538 -0.8485
    5MOL    H10 5497   0.055   3.755   0.420  0.3202 -1.5067  0.3911
    5MOL    C11 5498   7.616   3.709   0.571  0.4182 -1.1236 -0.8129
    5MOL    O12 5499   7.500   3.725   0.621 -0.8516 -0.7389  0.2386
    5MOL    C13 5500   0.009   3.603   0.637 -0.0556 -0.0266 -0.0482
    5MOL    C14 5501   0.132   3.663   0.700  0.0826  0.0617  0.6477
    5MOL    C15 5502   0.214   3.561   0.782  0.3661  0.5572  0.2003
    5MOL    C16 5503   0.320   3.485   0.712  0.4888  0.1676  0.4921
    5MOL    C17 5504   0.450   3.565   0.702  1.0900 -0.1294 -0.3720
    5MOL    C18 5505   0.518   3.537   0.568  0.1174  0.5351 -0.0669
    5MOL    C19 5506   0.657   3.613   0.558  0.5068 -0.1787  0.1850
    5MOL    C20 5507   0.735   3.593   0.425 -0.5474 -0.4438  0.5805
    5MOL    C21 5508   0.744   3.446   0.388 -0.5563  0.6103 -0.3270
    5MOL    C22 5509   0.804   3.423   0.246 -0.3654  0.0170 -0.2618
    5MOL    C23 5510   0.953   3.431   0.242 -0.4927  1.1602  1.0434
    5MOL    O24 5511   1.021   3.348   0.299 -0.1630 -0.6350  0.3554
    5MOL    N25 5512   1.004   3.527   0.161 -0.6051 -0.6336  0.0431
    5MOL    C26 5513   1.141   3.533   0.107  0.1518 -0.5721 -0.0152
    5MOL    C27 5514   1.242   3.586   0.212  0.5436  0.1414 -0.0803
    5MOL    C28 5515   1.232   3.735   0.253  0.1200 -0.1804  0.1843
    5MOL    C29 5516   1.269   3.834   0.146 -0.2282 -0.6073  0.0554
    5MOL    C30 5517   1.244   3.981   0.175 -0.4618 -0.1581  0.3494
    5MOL    C31 5518   1.097   4.017   0.200  0.5142 -0.0421 -0.1692
    5MOL    N32 5519   1.092   4.164   0.186  0.6261 -0.1425  0.0988
    5MOL    H33 5520   0.032   3.531   0.559  2.3417 -0.5858  1.1337
    5MOL    H34 5521   7.642   3.551   0.713 -0.4092  0.3458 -0.0580
    5MOL    H35 5522   0.099   3.731   0.778 -0.6068  0.2271  0.2118
    5MOL    H36 5523   0.200   3.709   0.628 -1.5845  0.6386 -0.5812
    5MOL    H37 5524   0.148   3.482   0.818 -1.1677  0.9469 -1.6681
    5MOL    H38 5525   0.253   3.596   0.877 -0.1460  0.8789  0.2981
    5MOL    H39 5526   0.340   3.394   0.769 -1.9443  0.6207  2.1409
    5MOL    H40 5527   0.295   3.458   0.609  1.5055 -0.0786  0.3061
    5MOL    H41 5528   0.420   3.670   0.692 -3.1673 -1.1708  0.2176
    5MOL    H42 5529   0.507   3.564   0.794 -0.9649 -0.8326  0.9317
    5MOL    H43 5530   0.538   3.430   0.564 -0.1409  0.4362  0.9886
    5MOL    H44 5531   0.447   3.563   0.489 -2.4915 -0.4186  1.8531
    5MOL    H45 5532   0.642   3.717   0.587 -0.5552  0.1859 -1.5880
    5MOL    H46 5533   0.709   3.568   0.642  2.9177  0.7568 -0.7519
    5MOL    H47 5534   0.693   3.654   0.345 -0.5204 -3.6999 -2.0209
    5MOL    H48 5535   0.840   3.616   0.443 -0.7494  0.5589  0.4769
    5MOL    H49 5536   0.649   3.392   0.384 -0.2337 -0.0236  0.3451
    5MOL    H50 5537   0.791   3.390   0.469 -2.6903  1.2557  1.4259
    5MOL    H51 5538   0.783   3.331   0.192 -0.6987  1.1318 -2.0943
    5MOL    H52 5539   0.764   3.502   0.182  2.5125 -0.5407 -2.8852
    5MOL    H53 5540   0.940   3.589   0.113  1.3784  0.8291 -0.8317
    5MOL    H54 5541   1.142   3.594   0.016 -2.5069  2.0939  1.6331
    5MOL    H55 5542   1.173   3.433   0.077  0.0220 -0.8307  0.7085
    5MOL    H56 5543   1.337   3.574   0.159 -0.2763 -1.9147 -1.1303
    5MOL    H57 5544   1.245   3.526   0.302  0.5252  1.3165  0.7134
    5MOL    H58 5545   1.298   3.749   0.339 -1.8049  0.7316  1.5637
    5MOL    H59 5546   1.132   3.758   0.290  0.1504 -0.4638  0.4384
    5MOL    H60 5547   1.215   3.815   0.053 -0.9630 -2.1258  0.7597
    5MOL    H61 5548   1.374   3.826   0.121 -0.2674 -0.6673 -0.0913
    5MOL    H62 5549   1.283   4.041   0.092  1.3267  0.7950  1.8340
    5MOL    H63 5550   1.306   4.007   0.261  0.5322  1.7025 -0.8917
    5MOL    H64 5551   1.043   3.992   0.291 -1.5914 -0.8005 -1.5997
    5MOL    H65 5552   1.033   3.975   0.123  0.6022 -0.0774 -0.2232
    5MOL    H66 5553   1.128   4.226   0.257  1.6495 -1.4274  0.7103
    5MOL    C67 5554   1.044   4.228   0.076 -0.0203 -0.8122  0.1695
    5MOL    O68 5555   1.008   4.172   7.664  0.0968  0.0826  0.4420
    5MOL    C69 5556   1.037   4.387   0.071 -0.5771  0.2676  0.6552
    5MOL    C70 5557   0.899   4.440   0.109  0.1621 -0.6923  0.3375
    5MOL    C71 5558   0.867   4.416   0.250 -0.0323 -0.0917 -0.3938
    5MOL    C72 5559   0.725   4.459   0.286  0.0111 -0.3957  0.1094
    5MOL    C73 5560   0.607   4.373   0.243  0.2322  0.4772 -0.0702
    5MOL    C74 5561   0.475   4.415   0.303  0.6475  0.0448  0.2997
    5MOL    C75 5562   0.360   4.325   0.264  0.3156  1.1109 -0.2033
    5MOL    C76 5563   0.222   4.350   0.327 -0.0937 -0.0630  0.0820
    5MOL    C77 5564   0.153   4.481   0.273  0.1679 -0.2018 -0.6223
    5MOL    C78 5565   0.034   4.522   0.363  0.4059 -0.5346 -0.4137
    5MOL    C79 5566   7.609   4.431   0.345 -0.3383 -0.3475 -0.0057
    5MOL    O80 5567   7.540   4.448   0.244 -0.0376 -0.5174 -0.2233
    5MOL    N81 5568   7.578   4.341   0.440 -0.4336  0.0552 -0.2168
    5MOL    C82 5569   7.451   4.268   0.455 -0.2005 -0.0160  0.3650
    5MOL    C83 5570   7.409   4.243   0.598  0.6095  0.4724  0.2004
    5MOL    C84 5571   7.308   4.129   0.598  0.0008  0.4448 -0.0941
    5MOL    C85 5572   7.285   4.069   0.738  0.4175 -0.2118  0.3130
    5MOL    C86 5573   7.215   3.930   0.754  0.0718 -0.3919  0.1226
    5MOL    C87 5574   7.165   3.916   0.899 -0.1423 -0.4061  0.4591
    5MOL    N88 5575   7.072   3.810   0.923  0.1956 -0.0268 -0.1709
    5MOL    H89 5576   1.048   4.417   7.658  1.2975 -0.6387  0.5854
    5MOL    H90 5577   1.119   4.424   0.132  1.4559 -1.0079 -1.2181
    5MOL    H91 5578   0.874   4.542   0.079 -0.6865 -0.8169  0.6015
    5MOL    H92 5579   0.827   4.383   0.050  2.6092 -1.9398 -1.5297
    5MOL    H93 5580   0.888   4.313   0.277  0.4547 -0.1412 -0.9465
    5MOL    H94 5581   0.935   4.476   0.310 -0.7756  1.0907 -0.7207
    5MOL    H95 5582   0.723   4.464   0.395 -1.3595  2.8783  0.0014
    5MOL    H96 5583   0.703   4.562   0.257  2.0549  0.9464  3.0900
    5MOL    H97 5584   0.609   4.373   0.134 -0.7196 -0.1305 -0.0924
    5MOL    H98 5585   0.631   4.269   0.267  0.7457  0.7343  0.5413
    5MOL    H99 5586   0.468   4.411   0.411  0.1259  0.5009  0.2871
    5MOL   H100 5587   0.449   4.518   0.280  2.0818 -0.0200 -1.7685
    5MOL   H101 5588   0.390   4.228   0.302  2.3839  1.4711 -0.8778
    5MOL   H102 5589   0.355   4.310   0.157  1.9722 -0.2227 -0.1154
    5MOL   H103 5590   0.162   4.259   0.316  0.9560 -0.5351 -2.0279
    5MOL   H104 5591   0.236   4.360   0.435 -0.3919 -0.5240  0.1623
    5MOL   H105 5592   0.113   4.466   0.173 -3.6688 -0.2504  0.8261
    5MOL   H106 5593   0.218   4.568   0.273 -4.1809  3.2177 -0.0787
    5MOL   H107 5594   0.062   4.528   0.468  1.2271  0.7923 -0.6969
    5MOL   H108 5595   0.001   4.621   0.330  1.7335 -0.1779 -0.6998
    5MOL   H109 5596   7.643   4.320   0.514  2.1363 -1.3434 -2.7927
    5MOL   H110 5597   7.469   4.173   0.405  2.0855  0.6388 -0.1238
    5MOL   H111 5598   7.375   4.314   0.391  0.5516  2.1017  0.9267
    5MOL   H112 5599   7.362   4.327   0.648 -0.6019 -0.5176  0.7144
    5MOL   H113 5600   7.496   4.203   0.651 -0.4480 -1.5808  0.4081
    5MOL   H114 5601   7.345   4.042   0.543 -0.5265 -0.6960  1.3480
    5MOL   H115 5602   7.214   4.145   0.546 -0.3132 -1.7480 -0.2358
    5MOL   H116 5603   7.386   4.058   0.777  0.9724  0.7124 -0.8540
    5MOL   H117 5604   7.234   4.141   0.803  2.2167 -0.1281  1.6610
    5MOL   H118 5605   7.123   3.943   0.698  0.2909  1.8234  0.2150
    5MOL   H119 5606   7.277   3.847   0.722  0.7054  0.4112 -0.7757
    5MOL   H120 5607   7.243   3.903   0.973 -1.6438  0.3525  2.2186
    5MOL   H121 5608   7.117   4.012   0.919 -2.1452 -1.1921 -0.4336
    5MOL   H122 5609   7.120   3.730   0.886  0.8944 -0.1206  0.9055
    5MOL   H123 5610   6.989   3.822   0.868 -0.3901 -1.0565  0.4653
    6MOL     C1 5611   4.311   7.531   5.106  0.8400 -0.5801 -0.1747
    6MOL     O2 5612   4.306   7.455   5.009 -0.6009 -0.4512  0.1290
    6MOL     C3 5613   4.436   7.528   5.190  0.6793 -0.0735 -0.5405
    6MOL     C4 5614   4.412   7.476   5.333 -0.1342 -0.1315 -0.5312
    6MOL     C5 5615   4.333   7.561   5.420 -0.2808  0.0009 -0.0302
    6MOL     C6 5616   4.303   7.516   5.562 -0.1036  0.3165 -0.2051
    6MOL     C7 5617   4.185   7.420   5.575 -0.1828  0.1890  0.1464
    6MOL     C8 5618   4.153   7.360   5.715 -0.4272  0.8175 -0.2849
    6MOL     C9 5619   4.271   7.285   5.784  0.0274  0.6589  0.1075
    6MOL    C10 5620   4.305   7.152   5.716  0.4807 -1.2787  0.1100
    6MOL    C11 5621   4.356   7.040   5.803 -0.8949  0.5463 -0.2018
    6MOL    C12 5622   4.506   7.043   5.836  0.7622 -0.4537 -0.7368
    6MOL    C13 5623   4.604   6.984   5.734  0.2630 -0.0002 -0.4169
    6MOL    O14 5624   4.565   6.935   5.628 -0.3628 -0.4512 -0.9059
    6MOL    N15 5625   4.732   6.992   5.779 -0.4544 -0.5212 -0.2883
    6MOL    C16 5626   4.844   6.946   5.698  0.5520 -0.5082  0.0069
    6MOL    C17 5627   4.892   6.813   5.761 -0.7153 -0.0527 -0.3219
    6MOL    C18 5628   5.018   6.761   5.690  0.8042 -0.2006  0.7881
    6MOL    C19 5629   5.051   6.609   5.698  0.0789 -0.4129 -0.1536
    6MOL    C20 5630   5.195   6.593   5.636  0.1927  0.4247  0.1158
    6MOL    C21 5631   5.234   6.441   5.621 -0.0032  0.8247  0.6364
    6MOL    N22 5632   5.137   6.359   5.549 -0.1554  0.0985 -0.1091
    6MOL    H23 5633   4.491   7.622   5.188  1.8387 -0.7377 -0.5459
    6MOL    H24 5634   4.501   7.453   5.144  0.6585 -1.3616  1.4703
    6MOL    H25 5635   4.509   7.458   5.381  0.0343  1.7857 -0.0985
    6MOL    H26 5636   4.367   7.378   5.318 -2.7847  1.0435 -0.5410
    6MOL    H27 5637   4.240   7.601   5.379 -1.0364 -1.6391  0.0315
    6MOL    H28 5638   4.391   7.653   5.426 -0.1597 -0.0497 -0.3628
    6MOL    H29 5639   4.395   7.467   5.593  0.4767  1.0773 -0.7054
    6MOL    H30 5640   4.296   7.605   5.626 -2.2246  0.0865 -0.0601
    6MOL    H31 5641   4.201   7.343   5.500 -0.9186 -0.1046  0.2920
    6MOL    H32 5642   4.095   7.470   5.540  1.1089  1.9259 -0.7592
    6MOL    H33 5643   4.114   7.436   5.782  0.8714  0.6788  0.6426
    6MOL    H34 5644   4.069   7.296   5.690  1.3676 -0.2975 -3.7812
    6MOL    H35 5645   4.351   7.359   5.781 -1.1149  1.8537 -3.6598
    6MOL    H36 5646   4.258   7.272   5.891  0.0192 -1.5572 -0.1451
    6MOL    H37 5647   4.213   7.108   5.678 -0.1677 -0.3600  0.5745
    6MOL    H38 5648   4.344   7.170   5.616 -2.4072 -0.4793 -0.9410
    6MOL    H39 5649   4.335   6.949   5.747 -0.1729  0.4179 -0.2704
    6MOL    H40 5650   4.298   7.054   5.894 -0.5150 -1.6066  0.3966
    6MOL    H41 5651   4.533   7.147   5.858 -0.0261 -0.5769  0.9058
    6MOL    H42 5652   4.519   6.998   5.934 -0.1820 -0.3215 -0.5440
    6MOL    H43 5653   4.754   7.022   5.873  0.2969  1.2041 -0.9861
    6MOL    H44 5654   4.922   7.021   5.710  1.3274 -0.8930 -2.2049
    6MOL    H45 5655   4.816   6.932   5.593  0.5696  3.5795 -0.5941
    6MOL    H46 5656   4.818   6.734   5.758 -1.5098  0.6366  0.9030
    6MOL    H47 5657   4.914   6.831   5.867 -0.7188  1.5121 -0.5678
    6MOL    H48 5658   4.987   6.771   5.586  0.4562  1.0339  1.0018
    6MOL    H49 5659   5.101   6.829   5.709 -0.2472  1.6160 -0.9553
    6MOL    H50 5660   4.978   6.550   5.645 -0.8110  0.2986  0.2680
    6MOL    H51 5661   5.053   6.566   5.799  0.3176  0.4889  0.2355
    6MOL    H52 5662   5.187   6.643   5.539 -0.0815  2.5746  1.2217
    6MOL    H53 5663   5.262   6.656   5.695  1.0256 -0.6461  0.3262
    6MOL    H54 5664   5.333   6.439   5.575 -1.4285 -0.0007 -2.5277
    6MOL    H55 5665   5.238   6.405   5.724 -0.8052  1.1634  0.7871
    6MOL    H56 5666   5.066   6.400   5.490  0.1210 -0.2960 -0.7145
    6MOL    H57 5667   4.229   7.593   5.142  0.8607 -1.1908  0.9360
    6MOL    C58 5668   5.125   6.230   5.569  0.5977 -0.5020 -0.4436
    6MOL    O59 5669   5.202   6.164   5.642  0.0456  0.3314  0.6767
    6MOL    C60 5670   4.989   6.175   5.516 -0.4984 -0.3553 -0.4766
    6MOL    C61 5671   4.992   6.046   5.434 -0.4017  0.4412  0.0236
    6MOL    C62 5672   4.858   5.964   5.445  0.6140 -0.5726 -0.8765
    6MOL    C63 5673   4.877   5.813   5.410  0.1294  0.0823  0.0161
    6MOL    C64 5674   4.736   5.749   5.401  0.1818 -0.4924  0.2097
    6MOL    C65 5675   4.743   5.610   5.329 -0.1888 -0.7309  0.5536
    6MOL    C66 5676   4.611   5.586   5.250  0.7580  0.4358  0.3779
    6MOL    C67 5677   4.497   5.554   5.348  0.8101  0.0441  0.1063
    6MOL    C68 5678   4.394   5.668   5.379 -0.4834 -0.1784 -0.3718
    6MOL    C69 5679   4.278   5.623   5.464  0.6963 -0.5621  0.3866
    6MOL    C70 5680   4.162   5.732   5.461 -0.5715  0.5553 -0.2228
    6MOL    O71 5681   4.185   5.857   5.454  0.0582  0.0905 -0.2165
    6MOL    N72 5682   4.043   5.671   5.470  0.1691  0.6091 -0.0338
    6MOL    C73 5683   3.910   5.732   5.480 -0.1704 -0.0088 -0.2843
    6MOL    C74 5684   3.812   5.663   5.386  0.0229 -0.3790  0.4555
    6MOL    C75 5685   3.675   5.735   5.397  0.2679 -0.2996 -0.1128
    6MOL    C76 5686   3.569   5.689   5.296  0.4700 -0.0399  0.8442
    6MOL    C77 5687   3.422   5.721   5.327 -0.4488 -0.5030 -0.3668
    6MOL    C78 5688   3.330   5.694   5.224 -0.3000  0.4279 -0.5903
    6MOL    N79 5689   3.192   5.734   5.266 -0.3155  0.3844 -0.1930
    6MOL    H80 5690   4.927   6.254   5.474  1.2525  1.1166 -0.3758
    6MOL    H81 5691   4.940   6.151   5.610 -0.6578  2.1193  0.1174
    6MOL    H82 5692   5.024   6.050   5.330  1.9093 -1.2625  0.6230
    6MOL    H83 5693   5.067   5.990   5.491 -1.7239 -0.1580  1.2279
    6MOL    H84 5694   4.792   6.016   5.375 -0.9681  1.2519  1.8624
    6MOL    H85 5695   4.810   5.967   5.543 -1.0440 -0.0054 -1.6918
    6MOL    H86 5696   4.951   5.764   5.473 -0.3233 -2.6667 -1.4827
    6MOL    H87 5697   4.920   5.814   5.309  0.3475  1.6032  0.1168
    6MOL    H88 5698   4.692   5.724   5.497  1.5533  0.2997  1.0574
    6MOL    H89 5699   4.663   5.823   5.370  2.3234  1.4372 -0.3954
    6MOL    H90 5700   4.776   5.524   5.386  1.6657 -0.2625  0.2251
    6MOL    H91 5701   4.815   5.621   5.248 -2.5361 -4.1323 -2.1352
    6MOL    H92 5702   4.618   5.506   5.176  0.9006 -1.4697  2.4068
    6MOL    H93 5703   4.588   5.677   5.194  1.0778  1.5887  2.0738
    6MOL    H94 5704   4.438   5.469   5.315 -1.1644  1.7821 -0.9989
    6MOL    H95 5705   4.542   5.517   5.440 -1.1203 -0.2807  0.9548
    6MOL    H96 5706   4.367   5.714   5.284 -0.1285 -0.4701 -0.6151
    6MOL    H97 5707   4.435   5.750   5.438 -1.7799  0.0811  0.1997
    6MOL    H98 5708   4.240   5.528   5.424 -1.0426 -0.7094  2.2941
    6MOL    H99 5709   4.296   5.599   5.569 -0.7038  2.7272  1.4439
    6MOL   H100 5710   4.048   5.571   5.479  2.5531  0.7450  0.3693
    6MOL   H101 5711   3.920   5.835   5.445 -1.1314  0.3329  0.4481
    6MOL   H102 5712   3.877   5.718   5.583  2.5292 -2.4983  0.3472
    6MOL   H103 5713   3.845   5.653   5.282  1.5277 -2.1737  1.0945
    6MOL   H104 5714   3.799   5.560   5.418  0.5349 -0.8039 -0.6607
    6MOL   H105 5715   3.685   5.843   5.407 -0.5950 -0.4964  3.6696
    6MOL   H106 5716   3.636   5.708   5.495 -1.6651 -1.1963 -1.1107
    6MOL   H107 5717   3.588   5.730   5.197 -2.6634  0.4080  0.3820
    6MOL   H108 5718   3.567   5.580   5.298 -3.0089 -0.0274  1.0440
    6MOL   H109 5719   3.419   5.825   5.359  0.8811 -1.4694  3.0581
    6MOL   H110 5720   3.400   5.683   5.426  1.6875  0.5445  0.5355
    6MOL   H111 5721   3.327   5.586   5.206 -0.0414  0.2309  0.5341
    6MOL   H112 5722   3.353   5.739   5.127  2.9822 -1.4697 -0.7685
    6MOL   H113 5723   3.151   5.704   5.353 -1.3794  1.6925 -0.2299
    6MOL   C114 5724   3.136   5.820   5.185 -0.4962  0.2935  0.3617
    6MOL   O115 5725   3.190   5.881   5.087 -0.3280 -0.2076  0.1290
    6MOL   C116 5726   2.995   5.863   5.221  0.1962  0.3282 -0.1984
    6MOL   C117 5727   2.910   5.917   5.104 -0.4774  0.2504  0.1532
    6MOL   C118 5728   2.770   5.953   5.147  0.8427 -0.1331 -0.3740
    6MOL   C119 5729   2.679   5.956   5.021 -0.3595 -0.4532  0.0223
    6MOL   C120 5730   2.536   5.998   5.055  0.6554  0.0450 -0.0603
    6MOL   C121 5731   2.440   5.995   4.935  0.4849  0.4101 -0.4828
    6MOL   C122 5732   2.404   5.856   4.889  0.2859 -0.7642  0.5539
    6MOL   C123 5733   2.269   5.855   4.819 -0.4669 -1.1047 -0.4782
    6MOL   C124 5734   2.239   5.714   4.765 -0.3749 -0.3522  0.0762
    6MOL   C125 5735   2.097   5.695   4.708 -0.2943 -0.6837  0.7046
    6MOL   C126 5736   1.983   5.722   4.812 -0.3313  0.1342 -1.1926
    6MOL   O127 5737   1.962   5.634   4.892  0.7211 -0.4873  0.1768
    6MOL   N128 5738   1.906   5.831   4.799 -0.0328  0.3490 -0.1949
    6MOL   C129 5739   1.782   5.854   4.871  0.1965  0.2427 -0.6197
    6MOL   C130 5740   1.800   5.916   5.010  0.3105 -0.1808 -0.6281
    6MOL   C131 5741   1.670   5.946   5.096 -1.0758  0.1806 -0.1667
    6MOL   C132 5742   1.611   5.822   5.159  0.6180 -0.2158 -0.3358
    6MOL   C133 5743   1.484   5.851   5.242  0.2206  0.7967  0.0526
    6MOL   C134 5744   1.401   5.723   5.283  0.0143  0.4456  0.4775
    6MOL   N135 5745   1.471   5.651   5.387  0.2006 -0.2952 -0.0223
    6MOL   H136 5746   2.938   5.780   5.264 -0.1543  1.2970  1.2349
    6MOL   H137 5747   3.012   5.949   5.285  2.1846 -0.0384 -0.1960
    6MOL   H138 5748   2.910   5.858   5.013 -1.7966 -0.9501  0.9112
    6MOL   H139 5749   2.949   6.012   5.068 -1.4237  0.4413 -0.4067
    6MOL   H140 5750   2.733   5.887   5.225 -0.0608  0.2102 -0.5065
    6MOL   H141 5751   2.769   6.053   5.191 -0.2705 -0.8661  1.3101
    6MOL   H142 5752   2.724   6.028   4.952  1.5408 -0.4253  1.2446
    6MOL   H143 5753   2.683   5.857   4.975  1.4274  0.2892 -1.4630
    6MOL   H144 5754   2.503   5.941   5.142  2.0000 -3.6185 -1.8432
    6MOL   H145 5755   2.533   6.101   5.092 -1.3108 -0.0682  0.1761
    6MOL   H146 5756   2.466   6.051   4.845  1.1167 -1.6344 -1.5856
    6MOL   H147 5757   2.344   6.041   4.959 -0.8089 -2.1025 -0.7332
    6MOL   H148 5758   2.486   5.812   4.833 -0.0190 -2.1931  1.2050
    6MOL   H149 5759   2.406   5.789   4.975  0.2749 -0.3126  0.9082
    6MOL   H150 5760   2.282   5.923   4.735 -1.3669 -0.2797  0.0358
    6MOL   H151 5761   2.183   5.887   4.877 -0.7328 -0.0908 -1.4362
    6MOL   H152 5762   2.242   5.654   4.856 -0.5155  0.5944  0.7190
    6MOL   H153 5763   2.306   5.670   4.692  0.9599 -0.7261  1.5089
    6MOL   H154 5764   2.086   5.593   4.673 -0.2858 -0.4758  0.0866
    6MOL   H155 5765   2.070   5.752   4.619 -1.2232 -0.2050  1.2964
    6MOL   H156 5766   1.937   5.898   4.730  3.1834  0.6578  1.4709
    6MOL   H157 5767   1.722   5.763   4.871  0.4260  0.0896 -1.0812
    6MOL   H158 5768   1.720   5.921   4.811 -2.1444 -1.3641 -0.0322
    6MOL   H159 5769   1.857   6.008   5.000  1.1357 -0.7656 -1.3548
    6MOL   H160 5770   1.857   5.846   5.070  1.3563  2.3063  1.3723
    6MOL   H161 5771   1.690   6.018   5.175 -1.3241 -0.1935  0.2379
    6MOL   H162 5772   1.596   5.980   5.022 -1.7684 -2.2627 -0.6505
    6MOL   H163 5773   1.577   5.755   5.079 -0.7303 -0.1439  0.1667
    6MOL   H164 5774   1.685   5.766   5.216  0.4456 -3.5187 -3.1596
    6MOL   H165 5775   1.415   5.911   5.182 -0.5670 -1.0823 -1.0006
    6MOL   H166 5776   1.508   5.905   5.333  1.4941  1.9892 -0.9678
    6MOL   H167 5777   1.300   5.746   5.317 -1.2591  0.9317 -3.4188
    6MOL   H168 5778   1.401   5.646   5.206  0.1893  0.0968  0.8257
    6MOL   H169 5779   1.566   5.625   5.366  1.0513  0.5215  2.6478
    6MOL   C170 5780   1.427   5.634   5.512  0.1644  0.6805  0.0422
    6MOL   O171 5781   1.307   5.656   5.548 -0.1245  0.5484 -0.1871
    6MOL   C172 5782   1.525   5.574   5.612  0.2014  0.8039  0.1259
    6MOL   C173 5783   1.481   5.436   5.661 -0.5028 -0.3659 -0.5005
    6MOL   C174 5784   1.492   5.316   5.563 -0.2704  0.2704 -1.1308
    6MOL   C175 5785   1.632   5.260   5.560 -0.0326 -0.3477 -0.2248
    6MOL   C176 5786   1.642   5.146   5.454  0.0369  0.3773 -0.4202
    6MOL   C177 5787   1.788   5.103   5.430 -0.3668  0.1249 -0.0921
    6MOL   C178 5788   1.814   4.966   5.351 -0.0996  0.2602  0.3253
    6MOL   C179 5789   1.962   4.925   5.343  0.2505 -0.4301 -0.6160
    6MOL   C180 5790   2.062   5.039   5.322  0.1983 -0.5491  0.7338
    6MOL   C181 5791   2.200   4.991   5.281 -0.0614  0.1851  0.3926
    6MOL   C182 5792   2.201   4.891   5.164 -0.0209 -0.3696 -0.6434
    6MOL   O183 5793   2.219   4.931   5.051  0.2234  0.4625 -0.9869
    6MOL   N184 5794   2.200   4.764   5.196 -0.4279 -0.1847  0.0821
    6MOL   C185 5795   2.210   4.653   5.110 -0.4514 -0.0756 -0.5229
    6MOL   C186 5796   2.102   4.553   5.146 -0.1578  0.1915  0.1050
    6MOL   C187 5797   2.109   4.419   5.071 -0.4211 -0.7346 -0.1197
    6MOL   C188 5798   2.103   4.422   4.921  0.3228 -0.7901  0.4391
    6MOL   C189 5799   2.129   4.284   4.865  0.3257  0.4525 -0.0575
    6MOL   C190 5800   2.097   4.262   4.718  0.5817  0.5970 -0.3487
    6MOL   N191 5801   2.156   4.359   4.622 -0.0946  0.8471 -0.0772
    6MOL   H192 5802   1.626   5.562   5.573 -0.3038 -0.7762 -0.7658
    6MOL   H193 5803   1.519   5.646   5.693 -2.6377  1.8574 -0.9803
    6MOL   H194 5804   1.381   5.433   5.706  0.2561 -1.7086  1.1704
    6MOL   H195 5805   1.546   5.416   5.747 -0.5675  0.3475 -0.2768
    6MOL   H196 5806   1.456   5.339   5.463  0.9042  2.0663 -1.1655
    6MOL   H197 5807   1.432   5.228   5.585  0.1022  0.1334 -0.6409
    6MOL   H198 5808   1.704   5.336   5.527  0.9107 -1.1649 -0.0896
    6MOL   H199 5809   1.668   5.236   5.660 -2.5054 -0.2689  0.7005
    6MOL   H200 5810   1.581   5.061   5.486  1.4942  0.0446  1.6391
    6MOL   H201 5811   1.601   5.172   5.357 -0.3947  1.0733 -0.0571
    6MOL   H202 5812   1.835   5.105   5.528 -0.0002 -3.4754 -0.1157
    6MOL   H203 5813   1.837   5.182   5.373  1.5283 -1.7166 -1.0944
    6MOL   H204 5814   1.757   4.894   5.409 -0.0756 -0.4352 -0.5034
    6MOL   H205 5815   1.770   4.960   5.252  1.4165 -0.4503 -0.3245
    6MOL   H206 5816   1.974   4.884   5.444 -2.9058  3.7563  1.6025
    6MOL   H207 5817   1.966   4.845   5.269 -0.6091 -1.9770  0.9478
    6MOL   H208 5818   2.071   5.093   5.416  0.9025  1.8861 -0.6867
    6MOL   H209 5819   2.025   5.120   5.259  0.1000 -0.8822  0.3566
    6MOL   H210 5820   2.264   5.076   5.259 -0.3032  0.2076 -0.2533
    6MOL   H211 5821   2.240   4.941   5.369 -0.4154 -1.8851 -0.5796
    6MOL   H212 5822   2.184   4.737   5.292  0.4123  0.6872  0.4788
    6MOL   H213 5823   2.304   4.601   5.125 -0.5495  0.1414  0.9614
    6MOL   H214 5824   2.204   4.683   5.005 -0.6434 -1.7042 -0.9876
    6MOL   H215 5825   2.107   4.536   5.254  0.4414  0.1626  0.0766
    6MOL   H216 5826   2.009   4.604   5.120 -0.5828  0.7790  2.5945
    6MOL   H217 5827   2.202   4.377   5.110 -1.5091 -2.2730  0.8592
    6MOL   H218 5828   2.025   4.356   5.099  0.3335 -2.0856 -0.8609
    6MOL   H219 5829   2.171   4.492   4.873 -0.5243 -0.8158 -0.8196
    6MOL   H220 5830   2.002   4.443   4.886 -1.2354 -4.1731  2.5603
    6MOL   H221 5831   2.062   4.215   4.917  0.4592  1.0301  0.8765
    6MOL   H222 5832   2.228   4.239   4.870 -1.1658 -3.0483 -0.3825
    6MOL   H223 5833   1.990   4.256   4.703  0.4302 -0.2943  1.0370
    6MOL   H224 5834   2.119   4.161   4.685 -0.2970  0.0439  0.7342
    6MOL   H225 5835   2.116   4.452   4.627 -1.6963  0.0320  4.5931
    6MOL   C226 5836   2.272   4.337   4.552 -0.4458  0.0370 -0.2005
    6MOL   O227 5837   2.346   4.235   4.554  0.0694 -0.3004 -0.0111
    6MOL   C228 5838   2.322   4.461   4.474 -0.2914  0.5325 -0.0798
    6MOL   C229 5839   2.434   4.535   4.546  0.0978 -0.3457 -0.2933
    6MOL   C230 5840   2.413   4.570   4.692  1.0285  0.0280 -0.2641
    6MOL   C231 5841   2.541   4.630   4.746 -1.2137  0.3294 -0.1220
    6MOL   C232 5842   2.520   4.681   4.892  0.1879 -0.1895 -0.3425
    6MOL   C233 5843   2.647   4.754   4.960 -0.1432 -0.0050  0.5337
    6MOL   C234 5844   2.631   4.771   5.111 -0.6612 -0.1046 -1.1981
    6MOL   C235 5845   2.687   4.901   5.172 -0.5175  0.0820 -0.2293
    6MOL   C236 5846   2.576   5.003   5.188  0.7825  0.0914 -0.7432
    6MOL   C237 5847   2.536   5.046   5.048 -0.2229 -0.0661  0.5916
    6MOL   C238 5848   2.467   5.181   5.060  0.3435  0.3175  0.3899
    6MOL   O239 5849   2.532   5.279   5.085 -0.8524  0.1339 -0.3790
    6MOL   N240 5850   2.338   5.187   5.016  0.5948 -0.2639  0.0448
    6MOL   C241 5851   2.274   5.318   4.991  0.1349  0.0921 -0.3798
    6MOL   C242 5852   2.156   5.299   4.899 -0.0098  0.2439 -0.6638
    6MOL   C243 5853   2.027   5.232   4.956  0.2739  0.1019  0.1590
    6MOL   C244 5854   1.941   5.159   4.851 -0.4435  0.1058  0.2740
    6MOL   C245 5855   1.879   5.249   4.740  0.1927 -0.4254  0.0184
    6MOL   C246 5856   1.767   5.186   4.656  0.0895  0.0200 -0.5367
    6MOL   N247 5857   1.803   5.083   4.562 -0.4531  0.1555  0.6147
    6MOL   H248 5858   2.245   4.526   4.433  1.0392  0.8125 -2.2493
    6MOL   H249 5859   2.372   4.412   4.389 -0.4800  1.9176 -1.0048
    6MOL   H250 5860   2.516   4.463   4.543 -2.1691 -3.1462  1.7789
    6MOL   H251 5861   2.465   4.622   4.488  0.8369  1.2434  2.3542
    6MOL   H252 5862   2.327   4.637   4.692  0.7066 -0.3382 -2.2975
    6MOL   H253 5863   2.392   4.484   4.755  0.1635 -0.6539 -1.4678
    6MOL   H254 5864   2.585   4.706   4.683  0.3253 -0.6796 -0.2958
    6MOL   H255 5865   2.615   4.550   4.754 -0.8046  0.6824 -0.4336
    6MOL   H256 5866   2.492   4.597   4.954  1.5833  0.2749  0.9555
    6MOL   H257 5867   2.431   4.744   4.896 -0.8491 -1.7319  2.4407
    6MOL   H258 5868   2.734   4.691   4.941 -0.2120  0.4186 -1.3045
    6MOL   H259 5869   2.662   4.841   4.896  0.6616 -0.7047 -0.2446
    6MOL   H260 5870   2.690   4.688   5.150 -0.8553  0.0805 -0.4996
    6MOL   H261 5871   2.527   4.745   5.133 -0.8199  2.3766  1.2789
    6MOL   H262 5872   2.723   4.878   5.273  1.5664  0.5848 -0.8328
    6MOL   H263 5873   2.780   4.936   5.128  0.7807  1.2578  3.3122
    6MOL   H264 5874   2.496   4.953   5.242  0.9537 -0.4240 -0.9657
    6MOL   H265 5875   2.611   5.083   5.253 -1.6145  0.8835 -0.3995
    6MOL   H266 5876   2.622   5.064   4.984 -1.2738  2.0172 -0.3079
    6MOL   H267 5877   2.466   4.975   5.005  0.0590  0.0230 -0.0142
    6MOL   H268 5878   2.286   5.109   4.978 -1.1835  1.6614 -1.6496
    6MOL   H269 5879   2.343   5.397   4.961 -2.1512  2.1068 -0.4946
    6MOL   H270 5880   2.232   5.361   5.081  0.5240  0.8713 -0.5554
    6MOL   H271 5881   2.199   5.257   4.808  1.1963 -0.8187  0.3888
    6MOL   H272 5882   2.126   5.403   4.886 -0.0880  0.5182  1.6111
    6MOL   H273 5883   2.061   5.160   5.030  1.3437 -0.8807 -1.2790
    6MOL   H274 5884   1.968   5.312   5.002 -0.7944 -0.6414  0.0935
    6MOL   H275 5885   1.860   5.110   4.905  1.1732 -1.3878  1.4260
    6MOL   H276 5886   2.005   5.077   4.819  1.2768  1.0405  1.2225
    6MOL   H277 5887   1.948   5.291   4.667 -0.4768 -0.4951 -0.6715
    6MOL   H278 5888   1.837   5.341   4.780  1.0551 -0.3434  0.7529
    6MOL   H279 5889   1.727   5.264   4.592  1.1429  0.1809 -1.0032
    6MOL   H280 5890   1.694   5.148   4.729 -0.2665  0.1752 -0.8123
    6MOL   H281 5891   1.871   5.110   4.493 -0.2926 -2.7112 -0.4118
    6MOL   C282 5892   1.790   4.952   4.584  0.3786 -0.0016  0.1853
    6MOL   O283 5893   1.710   4.904   4.669 -0.4047 -0.2386 -0.0300
    6MOL   C284 5894   1.873   4.859   4.500 -0.1815  0.3136 -0.0123
    6MOL   C285 5895   1.968   4.770   4.574  0.2526  0.5465  0.1473
    6MOL   C286 5896   2.100   4.828   4.622  0.5297 -0.2531 -0.2961
    6MOL   C287 5897   2.203   4.856   4.509  0.2140  0.2685 -0.6668
    6MOL   C288 5898   2.333   4.926   4.561  0.7152  0.4256 -0.4831
    6MOL   C289 5899   2.307   5.075   4.606  0.2602 -0.1635 -0.0693
    6MOL   C290 5900   2.226   5.165   4.503  0.3134  0.0473 -0.1020
    6MOL   C291 5901   2.224   5.314   4.533  0.3631 -0.6927 -0.2439
    6MOL   C292 5902   2.205   5.401   4.404  0.2920 -0.7239  0.3463
    6MOL   C293 5903   2.059   5.407   4.346 -0.4870 -0.1346 -0.7395
    6MOL   C294 5904   2.016   5.272   4.288  0.0540 -0.6784 -0.3697
    6MOL   O295 5905   1.938   5.201   4.354 -0.1867  0.1389 -0.3520
    6MOL   N296 5906   2.060   5.239   4.165  0.0431 -0.7525  0.5559
    6MOL   C297 5907   2.002   5.135   4.083 -0.2968  0.2043  0.0977
    6MOL   C298 5908   2.101   5.041   4.016  0.0310 -0.6907  0.3192
    6MOL   C299 5909   2.168   4.945   4.112  0.0367 -0.3982 -0.0673
    6MOL   C300 5910   2.267   4.853   4.035 -0.1300  0.3376  0.2107
    6MOL   C301 5911   2.352   4.765   4.132 -0.0194  0.0271 -0.1257
    6MOL   C302 5912   2.462   4.683   4.058 -0.6332 -0.1226  0.3951
    6MOL   N303 5913   2.563   4.769   3.989 -0.1696 -0.6793 -0.5060
    6MOL   H304 5914   1.811   4.790   4.443  1.2246 -0.6363 -0.4098
    6MOL   H305 5915   1.918   4.916   4.419  0.6102  0.2098  0.3442
    6MOL   H306 5916   1.988   4.679   4.517 -0.1025  0.8906 -0.5329
    6MOL   H307 5917   1.923   4.739   4.668  0.8334  0.9269  0.5571
    6MOL   H308 5918   2.081   4.918   4.681  1.5026 -2.0198  2.8218
    6MOL   H309 5919   2.128   4.752   4.695 -0.0994  0.5869  0.8450
    6MOL   H310 5920   2.148   4.913   4.434 -3.1970  2.3026  3.2076
    6MOL   H311 5921   2.223   4.758   4.464 -2.6555 -1.1773  1.0600
    6MOL   H312 5922   2.372   4.863   4.641  1.0548  1.7520  0.4010
    6MOL   H313 5923   2.407   4.932   4.481  3.3087 -1.0354  1.7416
    6MOL   H314 5924   2.257   5.086   4.702  2.4071  1.1302  0.9647
    6MOL   H315 5925   2.404   5.118   4.633  0.8858 -2.3581  1.3026
    6MOL   H316 5926   2.125   5.129   4.488  0.6608 -0.9682 -0.0374
    6MOL   H317 5927   2.262   5.152   4.401  1.5609  0.6362  0.2534
    6MOL   H318 5928   2.321   5.334   4.580 -0.3137 -2.1124  1.8470
    6MOL   H319 5929   2.158   5.348   4.613  0.2475 -0.1554 -0.5636
    6MOL   H320 5930   2.231   5.503   4.433  1.7497 -1.5396  2.0424
    6MOL   H321 5931   2.274   5.374   4.325 -0.4333  2.2523 -1.3610
    6MOL   H322 5932   2.001   5.433   4.434  0.9720 -1.6915  0.6983
    6MOL   H323 5933   2.058   5.478   4.262  1.8951  0.6827 -0.1239
    6MOL   H324 5934   2.121   5.296   4.108 -3.1199  1.4472 -0.7730
    6MOL   H325 5935   1.937   5.183   4.010  1.8892  1.7764 -0.8529
    6MOL   H326 5936   1.925   5.074   4.132 -1.1616  0.2437 -1.1783
    6MOL   H327 5937   2.187   5.098   3.980  0.1514 -1.1650 -0.1643
    6MOL   H328 5938   2.054   4.984   3.935 -3.2105  0.9878  0.9322
    6MOL   H329 5939   2.089   4.889   4.160  2.2988 -2.8205  0.9404
    6MOL   H330 5940   2.206   5.003   4.197 -1.6573  0.4262  0.1398
    6MOL   H331 5941   2.215   4.784   3.969  2.3422 -2.6099  1.2052
    6MOL   H332 5942   2.334   4.920   3.982  0.5332  1.0242  1.8905
    6MOL   H333 5943   2.287   4.686   4.169 -0.2173  0.6903  0.9857
    6MOL   H334 5944   2.391   4.820   4.218 -1.8732  2.0983 -0.5796
    6MOL   H335 5945   2.521   4.624   4.128 -0.2673 -2.3358 -1.7293
    6MOL   H336 5946   2.423   4.614   3.984  1.9900 -0.7855 -0.4232
    6MOL   H337 5947   2.643   4.790   4.047 -1.0240  1.1892  0.0148
    6MOL   C338 5948   2.571   4.808   3.865  0.3138 -0.0197  1.2982
    6MOL   O339 5949   2.499   4.757   3.778 -0.2963 -0.0518 -0.3347
    6MOL   C340 5950   2.682   4.905   3.830 -0.2244 -0.1260 -0.2946
    6MOL   C341 5951   2.640   5.018   3.734  0.9745  0.3361  0.3314
    6MOL   C342 5952   2.547   5.122   3.801  0.6649 -0.1573 -0.2501
    6MOL   C343 5953   2.534   5.257   3.721 -0.3535 -0.2862 -0.3186
    6MOL   C344 5954   2.437   5.249   3.605  0.0436 -0.4244  0.6754
    6MOL   C345 5955   2.401   5.391   3.539  0.2346  0.1212 -0.1632
    6MOL   C346 5956   2.531   5.452   3.482  0.5374 -0.7178  0.3845
    6MOL   C347 5957   2.512   5.590   3.422  0.3529  0.2271 -0.7128
    6MOL   C348 5958   2.631   5.622   3.341 -0.1159 -0.0862  0.0638
    6MOL   C349 5959   2.759   5.678   3.416 -0.0318 -0.3947 -0.1304
    6MOL   C350 5960   2.736   5.809   3.497  0.0842  0.0888 -0.0138
    6MOL   O351 5961   2.668   5.901   3.450 -0.2728 -0.4341  0.1670
    6MOL   N352 5962   2.808   5.821   3.606 -0.2671 -0.3098  0.0289
    6MOL   C353 5963   2.815   5.938   3.693  0.0783 -0.4150  0.4090
    6MOL   C354 5964   2.695   5.936   3.796  0.1169 -0.2050  0.3382
    6MOL   C355 5965   2.707   5.810   3.889 -0.2831 -0.9208  0.4329
    6MOL   C356 5966   2.586   5.787   3.975 -0.4986  0.3984 -0.1107
    6MOL   C357 5967   2.471   5.725   3.904  0.1989  0.0561  0.0040
    6MOL   C358 5968   2.392   5.613   3.980 -0.3040  0.2868 -0.4920
    6MOL   N359 5969   2.271   5.577   3.904  0.3511  0.0204 -0.5658
    6MOL   H360 5970   2.761   4.836   3.801 -1.8857 -1.2987 -2.1531
    6MOL   H361 5971   2.719   4.961   3.916  0.8131  2.3662 -2.2941
    6MOL   H362 5972   2.737   5.056   3.705  0.6053  1.1037  0.0927
    6MOL   H363 5973   2.584   4.980   3.648  0.5468  1.6629  0.0075
    6MOL   H364 5974   2.573   5.136   3.906 -0.5286 -0.8837  0.1526
    6MOL   H365 5975   2.445   5.082   3.801  1.2038 -1.6517 -2.6858
    6MOL   H366 5976   2.501   5.331   3.794 -0.3698  0.0234 -0.6391
    6MOL   H367 5977   2.638   5.283   3.698 -0.4498  0.4322  0.0520
    6MOL   H368 5978   2.482   5.193   3.523  0.6973  2.4523 -0.9740
    6MOL   H369 5979   2.338   5.210   3.632 -1.3251  1.7628 -1.0093
    6MOL   H370 5980   2.322   5.382   3.465  0.7225  0.0340 -0.6708
    6MOL   H371 5981   2.378   5.452   3.627  4.5058 -0.2227  1.3007
    6MOL   H372 5982   2.591   5.460   3.572  0.2139 -0.9590  0.6219
    6MOL   H373 5983   2.579   5.386   3.410 -1.2258 -0.4652 -1.0488
    6MOL   H374 5984   2.425   5.597   3.356  0.9850  1.0938 -1.4584
    6MOL   H375 5985   2.487   5.662   3.500 -1.2605 -1.7926  0.6893
    6MOL   H376 5986   2.605   5.702   3.272 -1.8031 -0.8918 -0.2462
    6MOL   H377 5987   2.665   5.543   3.274  1.2384  1.3312 -0.9524
    6MOL   H378 5988   2.808   5.602   3.477 -0.7686 -1.2725 -0.6187
    6MOL   H379 5989   2.833   5.716   3.346 -0.2924  0.3604 -0.0074
    6MOL   H380 5990   2.877   5.753   3.632  0.5432  1.0047  1.3757
    6MOL   H381 5991   2.807   6.030   3.635  0.4207 -0.8330 -0.3042
    6MOL   H382 5992   2.914   5.927   3.738 -0.5027 -2.6126  1.2019
    6MOL   H383 5993   2.601   5.944   3.743 -0.7009 -0.8941  1.6416
    6MOL   H384 5994   2.686   6.016   3.869  1.0579  0.3096 -0.1006
    6MOL   H385 5995   2.739   5.721   3.835 -2.6831 -1.4918 -0.0815
    6MOL   H386 5996   2.794   5.825   3.953 -0.1681  1.6384 -0.2673
    6MOL   H387 5997   2.614   5.718   4.055 -0.0184  0.6479 -0.0606
    6MOL   H388 5998   2.556   5.870   4.039 -3.1626  0.5477 -1.5147
    6MOL   H389 5999   2.504   5.678   3.812 -0.1568  1.4712 -0.8619
    6MOL   H390 6000   2.408   5.806   3.866 -0.2203 -0.0328  0.5006
    6MOL   H391 6001   2.448   5.520   3.991  0.4198  0.7105 -0.5788
    6MOL   H392 6002   2.370   5.654   4.079  1.5283 -0.5293  0.2710
    6MOL   H393 6003   2.231   5.641   3.837 -0.5629 -0.3998 -0.4230
    6MOL   C394 6004   2.200   5.467   3.935  0.2889  0.1392  0.3594
    6MOL   O395 6005   2.221   5.404   4.037  0.1515 -0.0418 -0.8223
    6MOL   C396 6006   2.086   5.423   3.843 -0.1968 -0.3930 -0.2327
    6MOL   C397 6007   1.944   5.470   3.888  0.3305 -0.2546 -0.7209
    6MOL   C398 6008   1.845   5.457   3.779 -0.3849  0.8642 -1.0313
    6MOL   C399 6009   1.699   5.494   3.820  0.6964 -0.0424  0.1379
    6MOL   C400 6010   1.607   5.473   3.698 -0.4904  0.3908  0.1962
    6MOL   C401 6011   1.455   5.463   3.725 -0.6739 -0.8616 -0.8953
    6MOL   C402 6012   1.373   5.433   3.594  0.1167  0.2455 -0.6844
    6MOL   C403 6013   1.412   5.310   3.505 -0.4585 -0.1673  0.0780
    6MOL   C404 6014   1.333   5.299   3.364 -0.1871 -0.3322 -0.0341
    6MOL   C405 6015   1.354   5.164   3.284  0.7477  0.1407 -0.2678
    6MOL   C406 6016   1.497   5.132   3.252 -0.0134  0.1120 -0.3774
    6MOL   O407 6017   1.577   5.226   3.241 -0.1888 -0.1949 -0.7564
    6MOL   N408 6018   1.528   5.003   3.242 -0.1056  0.0362 -0.1099
    6MOL   C409 6019   1.658   4.937   3.221  0.3064 -0.2344  0.0739
    6MOL   C410 6020   1.713   4.891   3.356 -0.4484  0.3303 -0.2890
    6MOL   C411 6021   1.825   4.786   3.354  0.2144  0.0327  0.5122
    6MOL   C412 6022   1.766   4.646   3.316 -0.0136 -0.5499  0.3146
    6MOL   C413 6023   1.883   4.548   3.272 -0.4782 -0.2295 -0.3238
    6MOL   C414 6024   1.833   4.404   3.255  0.7001  0.6387  0.5511
    6MOL   N415 6025   1.942   4.316   3.219  0.6779  0.4618  0.5292
    6MOL   H416 6026   2.098   5.317   3.822  0.3185 -0.1734 -1.0243
    6MOL   H417 6027   2.120   5.464   3.748 -0.0611 -5.3055 -2.4406
    6MOL   H418 6028   1.952   5.575   3.914 -0.4955 -0.5273  0.6986
    6MOL   H419 6029   1.911   5.419   3.979  1.3166 -2.1616 -1.3878
    6MOL   H420 6030   1.840   5.355   3.740 -1.8898  0.2742  0.6658
    6MOL   H421 6031   1.876   5.513   3.691 -0.3793  0.2141 -1.4471
    6MOL   H422 6032   1.689   5.598   3.851 -2.0337  0.0284 -0.8922
    6MOL   H423 6033   1.659   5.434   3.902 -1.4991  1.1100 -0.0480
    6MOL   H424 6034   1.614   5.555   3.627  0.0661 -0.1123 -0.3359
    6MOL   H425 6035   1.642   5.386   3.642 -1.6013 -0.5222  0.8848
    6MOL   H426 6036   1.442   5.399   3.812  0.0638  2.6921  1.9564
    6MOL   H427 6037   1.414   5.560   3.754 -0.9516 -1.3310  0.2976
    6MOL   H428 6038   1.266   5.417   3.607  0.6907 -0.3396  3.9780
    6MOL   H429 6039   1.393   5.517   3.527  2.7334 -0.8674 -1.3459
    6MOL   H430 6040   1.518   5.325   3.482 -0.1440 -0.4110  1.3788
    6MOL   H431 6041   1.417   5.218   3.564  2.3689  1.0931  1.9274
    6MOL   H432 6042   1.362   5.384   3.301  3.0191 -1.1458  0.2693
    6MOL   H433 6043   1.226   5.318   3.377  0.3709  2.3798  1.1093
    6MOL   H434 6044   1.311   5.074   3.327  2.5792 -0.9628 -0.6866
    6MOL   H435 6045   1.311   5.181   3.185 -1.0884  0.4245  0.5635
    6MOL   H436 6046   1.450   4.944   3.264 -1.2164  1.2410 -0.7188
    6MOL   H437 6047   1.725   5.003   3.166  0.5407  0.2838  0.9672
    6MOL   H438 6048   1.641   4.858   3.148 -1.1147  0.6105 -0.5360
    6MOL   H439 6049   1.636   4.846   3.418  0.2938 -1.1968 -0.4578
    6MOL   H440 6050   1.760   4.975   3.408  0.2221  0.3531 -0.9064
    6MOL   H441 6051   1.904   4.803   3.281 -0.6734  0.7664 -0.2951
    6MOL   H442 6052   1.878   4.782   3.449  2.7192 -0.0214 -0.8353
    6MOL   H443 6053   1.728   4.594   3.405 -1.6661 -0.5758 -0.3941
    6MOL   H444 6054   1.685   4.659   3.245 -0.1097 -0.4977  0.4334
    6MOL   H445 6055   1.920   4.575   3.173 -0.9584  0.2556 -0.3758
    6MOL   H446 6056   1.975   4.555   3.331 -0.6461  0.6940 -0.1638
    6MOL   H447 6057   1.776   4.367   3.340 -1.2322  0.2331 -0.8860
    6MOL   H448 6058   1.753   4.411   3.182  1.5148 -0.6083 -0.4669
    6MOL   H449 6059   1.950   4.295   3.120  0.0980 -0.4241  0.6687
    6MOL   C450 6060   2.035   4.265   3.301  0.2537 -0.5379  0.3814
    6MOL   O451 6061   2.035   4.282   3.424  0.1360 -0.0529  0.9119
    6MOL   C452 6062   2.145   4.187   3.228  0.5727  0.8556  0.3109
    6MOL   C453 6063   2.286   4.226   3.252 -0.2334  0.0709  0.0147
    6MOL   C454 6064   2.346   4.192   3.389 -0.1245  0.1187 -0.1423
    6MOL   C455 6065   2.396   4.053   3.406  0.4673  0.3517  0.4750
    6MOL   C456 6066   2.462   4.027   3.545  0.1749 -0.0425 -0.1391
    6MOL   C457 6067   2.524   3.889   3.589 -0.5339  0.0628  0.0749
    6MOL   C458 6068   2.550   3.889   3.739 -0.2783 -0.6410 -0.2318
    6MOL   C459 6069   2.586   3.757   3.802 -0.2160  0.2650 -0.5046
    6MOL   C460 6070   2.726   3.713   3.765 -0.4245 -0.3167  0.4849
    6MOL   C461 6071   2.759   3.578   3.833 -0.5503  0.1846 -0.1034
    6MOL   C462 6072   2.873   3.505   3.761  0.3787  0.1775 -0.2848
    6MOL   O463 6073   2.913   3.547   3.650 -0.0255 -0.3109 -0.2169
    6MOL   N464 6074   2.925   3.407   3.830 -0.4653 -0.0761  0.0173
    6MOL   C465 6075   3.020   3.313   3.780 -0.2262  0.1586  0.3078
    6MOL   C466 6076   2.989   3.187   3.851  0.6191  0.1988  0.5541
    6MOL   C467 6077   3.085   3.073   3.818  0.1285  0.1073 -0.0241
    6MOL   C468 6078   3.054   2.989   3.695 -0.6245  0.0585 -0.0153
    6MOL   C469 6079   3.119   2.856   3.706 -0.6877  0.4516  0.7571
    6MOL   C470 6080   3.080   2.764   3.584  0.3053  0.6025 -0.4655
    6MOL   N471 6081   3.162   2.649   3.593 -0.4335 -0.5884  0.2443
    6MOL   H472 6082   2.139   4.079   3.232  1.7013  0.6975 -1.4889
    6MOL   H473 6083   2.129   4.198   3.120  0.2084  1.0298  0.3806
    6MOL   H474 6084   2.290   4.333   3.233  0.3405  0.1684  0.6668
    6MOL   H475 6085   2.357   4.193   3.176  0.7292 -0.8376  1.2815
    6MOL   H476 6086   2.278   4.220   3.470  0.1916 -2.2293  0.9601
    6MOL   H477 6087   2.428   4.262   3.404 -0.7789  1.3567 -2.1469
    6MOL   H478 6088   2.461   4.038   3.320  0.4005  0.1740  0.4543
    6MOL   H479 6089   2.313   3.983   3.391 -0.1450  0.6532  2.3065
    6MOL   H480 6090   2.385   4.069   3.609  0.2215  1.6161 -1.1422
    6MOL   H481 6091   2.536   4.104   3.563 -0.2022  0.5371 -1.0533
    6MOL   H482 6092   2.613   3.863   3.531  0.8563  0.1014  2.1557
    6MOL   H483 6093   2.458   3.808   3.558 -0.1305 -0.8405  1.5269
    6MOL   H484 6094   2.628   3.960   3.764  0.0904 -0.8616 -0.7547
    6MOL   H485 6095   2.458   3.922   3.789  0.9929  1.8761  0.5384
    6MOL   H486 6096   2.570   3.759   3.910  0.4632  0.8130 -0.4124
    6MOL   H487 6097   2.517   3.682   3.764  0.6002 -1.1738  0.7928
    6MOL   H488 6098   2.804   3.788   3.777  1.2892 -1.7047 -1.7157
    6MOL   H489 6099   2.724   3.703   3.657 -0.8959 -0.5291  0.5130
    6MOL   H490 6100   2.763   3.583   3.942  0.7881 -0.3770 -0.1108
    6MOL   H491 6101   2.673   3.512   3.824 -0.0845 -0.3523 -0.6559
    6MOL   H492 6102   2.896   3.401   3.926 -1.6181 -0.7398 -0.3589
    6MOL   H493 6103   3.126   3.336   3.784  0.2649 -2.1317  1.1430
    6MOL   H494 6104   3.007   3.288   3.675  1.6917 -2.1730  0.5824
    6MOL   H495 6105   3.004   3.218   3.955 -1.3199 -1.7057  1.4564
    6MOL   H496 6106   2.884   3.164   3.832 -0.2063  3.6842  0.6210
    6MOL   H497 6107   3.104   3.013   3.907  1.7740  1.3797  0.5328
    6MOL   H498 6108   3.185   3.115   3.800 -0.2386  0.0396 -2.2812
    6MOL   H499 6109   3.069   3.032   3.596  0.8044 -0.1324  0.1163
    6MOL   H500 6110   2.945   2.981   3.701 -0.8268  1.7268 -1.0555
    6MOL   H501 6111   3.226   2.878   3.708 -0.6251  0.0808  3.4185
    6MOL   H502 6112   3.092   2.813   3.803  0.6209  0.9269  1.3376
    6MOL   H503 6113   2.974   2.740   3.580 -0.0623  1.7822  1.4584
    6MOL   H504 6114   3.095   2.821   3.493  0.7971  1.1370 -0.0572
    6MOL   H505 6115   3.128   2.564   3.636  0.1826 -0.6919  0.5394
    6MOL   C506 6116   3.275   2.631   3.523 -0.0896  0.7352  0.2478
    6MOL   O507 6117   3.322   2.719   3.448 -0.4030  0.0656  0.4519
    6MOL   C508 6118   3.344   2.499   3.535 -0.1885  0.3750  0.1653
    6MOL   C509 6119   3.482   2.503   3.608  0.4698 -0.4460 -0.3788
    6MOL   C510 6120   3.575   2.383   3.587  0.1801 -0.6336 -0.2250
    6MOL   C511 6121   3.513   2.242   3.627  0.7382 -0.5403 -0.3622
    6MOL   C512 6122   3.600   2.119   3.585 -0.2517  0.7642 -0.5590
    6MOL   C513 6123   3.717   2.088   3.672 -0.1158 -0.3714 -0.5280
    6MOL   C514 6124   3.693   2.047   3.829 -0.1038 -0.4083 -0.0263
    6MOL   C515 6125   3.825   2.021   3.897 -0.3305 -0.4313 -0.3383
    6MOL   C516 6126   3.811   2.010   4.047 -0.8544  0.3447 -0.6376
    6MOL   C517 6127   3.940   1.974   4.118 -0.1613  0.9503 -0.3511
    6MOL   C518 6128   4.030   2.093   4.155  0.1673 -0.3436  0.3974
    6MOL   O519 6129   4.017   2.157   4.264 -0.1906  0.1905  0.1970
    6MOL   N520 6130   4.134   2.117   4.072 -0.3836  0.6777 -0.4496
    6MOL   C521 6131   4.222   2.233   4.085 -0.1372 -0.4172  0.1887
    6MOL   C522 6132   4.300   2.253   3.956  0.2037 -0.2578 -0.5079
    6MOL   C523 6133   4.213   2.271   3.824  0.1054  0.0107  0.3060
    6MOL   C524 6134   4.289   2.252   3.691 -0.2669  0.2291 -0.4461
    6MOL   C525 6135   4.216   2.287   3.565 -0.6628  0.0081  0.4368
    6MOL   C526 6136   4.299   2.285   3.439  0.0514 -0.0999 -0.0300
    6MOL   N527 6137   4.223   2.339   3.327 -0.3049  0.3099 -0.0949
    6MOL   H528 6138   3.362   2.469   3.432 -1.3933  0.2621 -0.0192
    6MOL   H529 6139   3.278   2.424   3.581 -0.8851  1.6232  1.2336
    6MOL   H530 6140   3.463   2.538   3.709 -0.0638  2.8233 -1.5538
    6MOL   H531 6141   3.544   2.584   3.568  0.4592 -0.3258 -0.1493
    6MOL   H532 6142   3.674   2.392   3.632 -0.3243 -0.7805  0.9221
    6MOL   H533 6143   3.597   2.374   3.480  1.0790 -1.9433  0.0691
    6MOL   H534 6144   3.494   2.244   3.734 -1.2234  0.1256 -0.7152
    6MOL   H535 6145   3.420   2.226   3.573  1.1431 -1.4156 -0.8115
    6MOL   H536 6146   3.537   2.030   3.573  0.2161  0.3341  0.1075
    6MOL   H537 6147   3.637   2.135   3.484 -1.1064 -0.2621 -1.0511
    6MOL   H538 6148   3.774   2.010   3.622 -0.1795 -1.5610  1.2098
    6MOL   H539 6149   3.777   2.179   3.679  0.4246 -0.6949 -0.9506
    6MOL   H540 6150   3.627   2.126   3.865 -0.7886 -1.1160  0.2551
    6MOL   H541 6151   3.626   1.961   3.823 -1.1103  0.4420 -1.5984
    6MOL   H542 6152   3.867   1.925   3.866 -0.1707 -1.4406  2.8005
    6MOL   H543 6153   3.908   2.085   3.866  0.1736 -1.1925 -0.5928
    6MOL   H544 6154   3.732   1.941   4.076 -1.0463  0.1330 -1.6498
    6MOL   H545 6155   3.780   2.107   4.085 -1.8722 -0.5934  0.9473
    6MOL   H546 6156   3.915   1.922   4.211 -1.3910  3.2678  0.6619
    6MOL   H547 6157   3.992   1.896   4.062 -0.3839  2.6990 -3.0818
    6MOL   H548 6158   4.142   2.050   3.997  0.6638 -0.3721  0.5788
    6MOL   H549 6159   4.295   2.220   4.165  0.4768 -0.3673 -0.3623
    6MOL   H550 6160   4.164   2.321   4.113 -2.2132 -2.0038  1.0064
    6MOL   H551 6161   4.373   2.176   3.934  0.3858  0.0846 -1.1132
    6MOL   H552 6162   4.357   2.345   3.967  2.1429 -1.3473 -1.3547
    6MOL   H553 6163   4.161   2.367   3.822 -2.8227 -1.5069  1.0627
    6MOL   H554 6164   4.131   2.200   3.817  0.0182  0.2017 -0.6582
    6MOL   H555 6165   4.319   2.147   3.686 -2.0447 -0.2698 -0.9095
    6MOL   H556 6166   4.379   2.313   3.689  0.6505 -1.1285 -1.2532
    6MOL   H557 6167   4.129   2.223   3.549 -0.3840 -0.0254 -1.0984
    6MOL   H558 6168   4.183   2.390   3.578  0.5142  0.4428  0.0681
    6MOL   H559 6169   4.381   2.356   3.452  0.3113 -0.1322 -1.4345
    6MOL   H560 6170   4.334   2.183   3.424  0.7008  0.4384 -2.4070
    6MOL   H561 6171   4.158   2.272   3.290  2.1632 -1.8679 -0.6342
    6MOL   C562 6172   4.238   2.463   3.267 -0.0912  0.6307 -0.0050
    6MOL   O563 6173   4.319   2.546   3.301  0.0114 -0.3005 -0.5213
    6MOL   C564 6174   4.140   2.497   3.160 -0.2148  0.0608 -0.0082
    6MOL   C565 6175   4.169   2.629   3.081 -1.7724  0.4385 -0.2485
    6MOL   C566 6176   4.098   2.635   2.948  0.2747  1.0026  0.3152
    6MOL   C567 6177   4.144   2.754   2.866  0.1714  0.3025  0.2027
    6MOL   C568 6178   4.099   2.890   2.925 -0.3148  0.1735 -0.3626
    6MOL   C569 6179   4.136   3.011   2.831 -0.0472  0.7708 -0.3317
    6MOL   C570 6180   4.039   3.135   2.857 -0.2508  0.1293  0.1205
    6MOL   C571 6181   4.084   3.201   2.987 -0.1346  0.1415 -0.4052
    6MOL   C572 6182   4.069   3.353   2.999  0.1624 -0.1189  0.8739
    6MOL   C573 6183   4.118   3.406   3.128 -0.2435  0.0395 -0.8723
    6MOL   C574 6184   4.266   3.423   3.133  0.0703 -0.9305 -0.6332
    6MOL   O575 6185   4.318   3.462   3.030  0.0630 -0.5491 -0.0251
    6MOL   N576 6186   4.334   3.390   3.247  0.2684 -0.4228 -0.2675
    6MOL   C577 6187   4.476   3.388   3.275 -0.7973 -0.3678  0.0057
    6MOL   C578 6188   4.504   3.463   3.408 -0.1979  0.9095  0.0750
    6MOL   C579 6189   4.650   3.461   3.442 -0.0623  0.1819 -1.0869
    6MOL   C580 6190   4.689   3.538   3.570 -0.4633  0.7267 -0.2202
    6MOL   C581 6191   4.626   3.474   3.702 -0.2319 -0.6821 -0.1451
    6MOL   C582 6192   4.654   3.539   3.839  0.1270  0.6749  0.2086
    6MOL   N583 6193   4.800   3.576   3.845 -0.5470 -0.0931  0.6092
    6MOL   H584 6194   4.125   2.411   3.095  0.1176  0.4017 -0.5394
    6MOL   H585 6195   4.044   2.503   3.212  0.0635 -0.8359  0.6223
    6MOL   H586 6196   4.129   2.710   3.143 -1.5167 -0.9325  1.7804
    6MOL   H587 6197   4.271   2.660   3.059 -1.8370  0.5555 -0.3824
    6MOL   H588 6198   3.989   2.636   2.953  0.1539  1.1188 -1.6723
    6MOL   H589 6199   4.133   2.538   2.913  0.8503  0.7105  1.6807
    6MOL   H590 6200   4.250   2.760   2.844  0.7629 -0.8825  2.5528
    6MOL   H591 6201   4.089   2.746   2.772  0.0001  1.0921  0.2261
    6MOL   H592 6202   3.992   2.888   2.944 -0.4992 -0.0256 -1.4039
    6MOL   H593 6203   4.144   2.897   3.024 -0.6298  0.4607 -0.2368
    6MOL   H594 6204   4.242   3.037   2.843  0.2964 -0.3986 -0.8490
    6MOL   H595 6205   4.132   2.979   2.727  0.8880 -0.4460 -0.0061
    6MOL   H596 6206   4.038   3.207   2.775  2.0845 -0.5139 -0.5288
    6MOL   H597 6207   3.936   3.101   2.863  0.1240 -0.8842  1.0282
    6MOL   H598 6208   4.187   3.172   3.011 -0.5768 -0.3114  0.9731
    6MOL   H599 6209   4.027   3.164   3.072 -0.3898 -0.0185 -0.6448
    6MOL   H600 6210   3.962   3.376   2.998  0.1702 -0.0659 -0.9950
    6MOL   H601 6211   4.106   3.406   2.911 -0.3196 -0.9454  0.1556
    6MOL   H602 6212   4.083   3.506   3.153 -0.8172 -0.6067  0.9530
    6MOL   H603 6213   4.088   3.352   3.218  2.9419  0.2042  0.3426
    6MOL   H604 6214   4.276   3.375   3.328  1.3283 -1.7353  0.2577
    6MOL   H605 6215   4.535   3.432   3.194 -0.2929 -1.7710 -0.4106
    6MOL   H606 6216   4.505   3.284   3.288 -0.5726 -0.3717 -0.4906
    6MOL   H607 6217   4.462   3.409   3.493 -0.4768 -0.7272 -1.0926
    6MOL   H608 6218   4.473   3.568   3.411  1.4640  1.3845  2.7669
    6MOL   H609 6219   4.704   3.500   3.355  2.8725 -1.1041  0.0741
    6MOL   H610 6220   4.682   3.357   3.450 -1.4225 -0.2221 -0.8782
    6MOL   H611 6221   4.796   3.539   3.588  0.0581  2.9035 -3.1174
    6MOL   H612 6222   4.659   3.642   3.563  1.1629  1.0456 -2.9909
    6MOL   H613 6223   4.649   3.368   3.693  0.5338 -0.5329  0.0151
    6MOL   H614 6224   4.518   3.477   3.689 -0.0166  0.4652 -1.7961
    6MOL   H615 6225   4.596   3.630   3.851  1.0756  1.9050 -3.8931
    6MOL   H616 6226   4.625   3.466   3.915  3.5005 -1.4553 -0.4743
    6MOL   H617 6227   4.859   3.518   3.788 -2.1001 -0.2991 -0.8106
    6MOL   C618 6228   4.841   3.703   3.871  0.6702  0.3808  0.1018
    6MOL   O619 6229   4.773   3.796   3.909 -0.6546 -0.7629 -0.1441
    6MOL   C620 6230   4.990   3.720   3.835  0.6022 -0.1895 -1.3044
    6MOL   C621 6231   5.036   3.840   3.740 -0.0721  0.1953 -0.2342
    6MOL   C622 6232   4.960   3.836   3.603 -0.1414 -0.1709  0.1602
    6MOL   C623 6233   5.016   3.738   3.500  0.6557  0.7994  0.1268
    6MOL   C624 6234   4.931   3.736   3.373  0.1207  0.3394  0.0305
    6MOL   C625 6235   5.002   3.670   3.248 -0.5280  0.5539 -0.3198
    6MOL   C626 6236   4.925   3.680   3.116 -0.6172 -0.0851  0.7568
    6MOL   C627 6237   4.910   3.827   3.066  0.6391  0.6305  0.0068
    6MOL   C628 6238   4.855   3.835   2.921 -0.3796 -0.1349  0.2463
    6MOL   C629 6239   4.847   3.973   2.852  0.4909 -0.0285  0.0941
    6MOL   C630 6240   4.727   4.049   2.893  0.4799  0.4972  0.0791
    6MOL   O631 6241   4.616   4.011   2.854 -0.0024 -0.1424  0.7602
    6MOL   N632 6242   4.743   4.168   2.961 -0.4677  0.8124  0.8595
    6MOL   C633 6243   4.648   4.249   3.031  0.3643  0.0120  0.0464
    6MOL   C634 6244   4.680   4.401   2.995  0.2221 -0.3981 -0.1841
    6MOL   C635 6245   4.602   4.497   3.086 -0.4649 -0.7120 -0.4271
    6MOL   C636 6246   4.623   4.646   3.059  0.2340 -0.0977  0.5523
    6MOL   C637 6247   4.535   4.721   3.151 -0.0780  0.7437  0.0512
    6MOL   C638 6248   4.601   4.747   3.285 -0.1715  0.2350  0.2079
    6MOL   N639 6249   4.501   4.796   3.377 -0.5047  0.0996  0.6512
    6MOL   H640 6250   5.026   3.630   3.785  1.8869 -1.4797  1.7892
    6MOL   H641 6251   5.042   3.734   3.930 -0.7103 -0.2236 -0.5756
    6MOL   H642 6252   5.145   3.838   3.737 -0.0958 -0.5648 -0.9037
    6MOL   H643 6253   5.020   3.938   3.784 -1.2909  0.7136 -1.7919
    6MOL   H644 6254   4.967   3.937   3.561  2.1834 -0.9778 -1.4459
    6MOL   H645 6255   4.854   3.812   3.609  0.1300 -1.4074  0.0535
    6MOL   H646 6256   5.111   3.779   3.464 -0.1055  1.1548 -1.4927
    6MOL   H647 6257   5.027   3.637   3.541 -1.0252  0.5673  0.0499
    6MOL   H648 6258   4.835   3.684   3.380 -0.2236  0.8801 -0.6189
    6MOL   H649 6259   4.905   3.839   3.350 -1.6132 -0.2034 -0.5196
    6MOL   H650 6260   5.023   3.571   3.288 -0.3298  0.3184 -0.9922
    6MOL   H651 6261   5.096   3.724   3.243  0.4020 -0.8203  1.5731
    6MOL   H652 6262   4.962   3.608   3.044  1.1569  0.7173  0.8301
    6MOL   H653 6263   4.824   3.643   3.136 -1.8581  2.1342 -1.1252
    6MOL   H654 6264   4.852   3.887   3.135 -1.5599 -2.6574  1.1454
    6MOL   H655 6265   5.004   3.882   3.075  0.5374  1.1132 -1.8002
    6MOL   H656 6266   4.767   3.773   2.901 -1.0604  0.1822  2.2062
    6MOL   H657 6267   4.929   3.781   2.862  0.3222  0.0447  0.9695
    6MOL   H658 6268   4.938   4.031   2.866  1.9130 -1.9027 -1.0639
    6MOL   H659 6269   4.840   3.967   2.743 -0.1866  2.8987 -0.0520
    6MOL   H660 6270   4.839   4.187   2.986  0.3447 -2.1420  0.2396
    6MOL   H661 6271   4.542   4.226   3.024  0.0836  1.5453 -1.0612
    6MOL   H662 6272   4.670   4.239   3.137  2.4221  0.7730 -0.2919
    6MOL   H663 6273   4.653   4.430   2.894  1.7981 -0.2798 -0.5719
    6MOL   H664 6274   4.782   4.440   2.997 -0.6000  1.9413 -1.8891
    6MOL   H665 6275   4.497   4.469   3.079 -0.5448 -0.3142 -0.8019
    6MOL   H666 6276   4.619   4.478   3.192  3.4120 -0.2377 -0.8947
    6MOL   H667 6277   4.594   4.668   2.957  1.7693  2.7977  0.6592
    6MOL   H668 6278   4.727   4.678   3.070  0.9152 -1.9439 -0.2950
    6MOL   H669 6279   4.507   4.817   3.107 -0.9293  0.9525  1.0439
    6MOL   H670 6280   4.438   4.671   3.155 -0.0625  0.5492 -1.4989
    6MOL   H671 6281   4.630   4.650   3.327 -1.5351  0.0365  0.7368
    6MOL   H672 6282   4.692   4.807   3.284 -0.9835  1.5090 -2.9494
    6MOL   H673 6283   4.510   4.892   3.406  4.1366 -0.2348  0.6303
    6MOL   C674 6284   4.395   4.730   3.427 -1.4343 -0.5177 -0.3995
    6MOL   O675 6285   4.371   4.610   3.405  0.3984  0.2422 -0.1697
    6MOL   C676 6286   4.302   4.817   3.513 -0.5297 -0.7881 -0.2678
    6MOL   C677 6287   4.261   4.746   3.639 -0.3086 -0.3370 -0.4718
    6MOL   C678 6288   4.383   4.719   3.735  0.5131 -0.0371 -0.4126
    6MOL   C679 6289   4.342   4.678   3.877 -0.0173 -0.1892 -0.3256
    6MOL   C680 6290   4.454   4.661   3.973 -0.8015 -0.5334 -0.9103
    6MOL   C681 6291   4.540   4.784   4.004  0.3659  0.1028  0.3824
    6MOL   C682 6292   4.669   4.749   4.092 -0.0754 -0.8417 -0.0470
    6MOL   C683 6293   4.759   4.857   4.144 -0.1389 -0.1884 -0.0751
    6MOL   C684 6294   4.688   4.977   4.211  0.0179 -0.1831 -0.4570
    6MOL   C685 6295   4.778   5.065   4.297 -0.2923  0.1824  0.3283
    6MOL   C686 6296   4.890   5.149   4.230  0.4824  0.9337  0.1174
    6MOL   O687 6297   4.872   5.184   4.117 -0.0906 -0.3391  0.3357
    6MOL   N688 6298   4.997   5.173   4.307  0.1855  0.2881 -0.0851
    6MOL   C689 6299   5.104   5.270   4.280 -0.3058  0.2346 -1.1166
    6MOL   C690 6300   5.237   5.204   4.295 -0.0791  0.0405 -0.4636
    6MOL   C691 6301   5.345   5.311   4.333  0.5194 -0.4915  0.0423
    6MOL   C692 6302   5.488   5.245   4.341  0.2500 -0.2223 -0.4118
    6MOL   C693 6303   5.557   5.228   4.209  0.2569  0.1627  0.4259
    6MOL   C694 6304   5.600   5.081   4.175 -0.3655 -0.3202  0.4635
    6MOL   N695 6305   5.725   5.043   4.243 -0.0792  0.2923 -0.1549
    6MOL   H696 6306   4.214   4.844   3.455  0.3649  0.1098 -1.2079
    6MOL   H697 6307   4.342   4.915   3.540  0.4977 -0.6686 -2.1367
    6MOL   H698 6308   4.218   4.648   3.620  3.6497 -2.6115  1.7139
    6MOL   H699 6309   4.186   4.805   3.692  1.1761 -0.4322  1.8077
    6MOL   H700 6310   4.444   4.640   3.692  0.8779 -0.5013  0.9179
    6MOL   H701 6311   4.445   4.808   3.741 -0.0090  0.3156 -0.2042
    6MOL   H702 6312   4.284   4.586   3.876 -1.0944  0.3969 -4.1408
    6MOL   H703 6313   4.294   4.766   3.920 -0.1866 -0.9246  0.9806
    6MOL   H704 6314   4.522   4.589   3.927  1.5091  0.7878  0.2960
    6MOL   H705 6315   4.420   4.625   4.070  0.0315  2.3570  0.5214
    6MOL   H706 6316   4.565   4.837   3.912  2.1007 -0.8497  0.2710
    6MOL   H707 6317   4.477   4.850   4.063  2.8737  1.4838  1.6296
    6MOL   H708 6318   4.627   4.703   4.182 -0.6592 -1.9223 -0.8731
    6MOL   H709 6319   4.731   4.670   4.049  3.2259  0.7520  1.5705
    6MOL   H710 6320   4.821   4.803   4.215 -0.5573 -2.1532 -1.1566
    6MOL   H711 6321   4.826   4.899   4.068  0.2392  1.0178  0.9058
    6MOL   H712 6322   4.601   4.948   4.270 -0.2836 -1.4103 -1.4678
    6MOL   H713 6323   4.651   5.040   4.130  0.1177 -0.4506 -0.7091
    6MOL   H714 6324   4.719   5.135   4.356 -1.0655 -1.4270  1.5211
    6MOL   H715 6325   4.825   5.000   4.372 -1.5604 -0.9803  0.1294
    6MOL   H716 6326   5.000   5.130   4.399 -2.0861  1.4148  0.5365
    6MOL   H717 6327   5.082   5.307   4.180 -2.9129  3.1759  0.4161
    6MOL   H718 6328   5.095   5.359   4.343 -0.5349  1.8077 -3.3074
    6MOL   H719 6329   5.256   5.160   4.197  1.7285  0.6028 -0.3886
    6MOL   H720 6330   5.239   5.123   4.367  1.2151  0.7617  0.3421
    6MOL   H721 6331   5.365   5.385   4.256 -1.4741  0.2312  0.1865
    6MOL   H722 6332   5.319   5.362   4.426  2.0925  2.3350 -1.0242
    6MOL   H723 6333   5.474   5.150   4.393 -0.6501  0.2655  0.2478
    6MOL   H724 6334   5.557   5.293   4.411  0.4488 -1.4081  0.2235
    6MOL   H725 6335   5.642   5.295   4.205  2.5058 -2.4814  2.1138
    6MOL   H726 6336   5.483   5.260   4.135  0.4442 -2.6903 -1.0719
    6MOL   H727 6337   5.518   5.014   4.203 -0.8920 -0.3909 -1.2217
    6MOL   H728 6338   5.624   5.069   4.070 -2.0032 -0.2509  0.0710
    6MOL   H729 6339   5.815   5.054   4.199 -1.0557  0.5911 -2.1273
    6MOL   C730 6340   5.733   5.006   4.377  0.5150 -0.0344  0.7152
    6MOL   O731 6341   5.636   4.975   4.444  0.1748 -0.7499  0.2928
    6MOL   C732 6342   5.870   5.017   4.440 -1.0334  0.3398 -0.3671
    6MOL   C733 6343   5.886   5.137   4.540  0.1207  0.7368  0.2231
    6MOL   C734 6344   5.870   5.272   4.471 -0.2349  0.2301 -0.0930
    6MOL   C735 6345   5.868   5.406   4.553 -0.1320 -0.1022 -0.1524
    6MOL   C736 6346   5.909   5.538   4.476  0.6020  0.8445 -0.0478
    6MOL   C737 6347   5.809   5.570   4.370 -0.2901  0.3185  0.2116
    6MOL   C738 6348   5.837   5.686   4.285  0.4511  0.2224 -0.3086
    6MOL   C739 6349   5.727   5.718   4.167 -0.2068 -0.2683 -0.6754
    6MOL   C740 6350   5.753   5.840   4.086  0.1040 -0.2398 -0.2690
    6MOL   C741 6351   5.645   5.876   3.985 -0.0335 -0.1468  1.1106
    6MOL   C742 6352   5.592   5.761   3.900  0.3042  0.3824 -0.4836
    6MOL   O743 6353   5.668   5.697   3.820  0.3383 -0.2085  0.3212
    6MOL   N744 6354   5.461   5.731   3.918 -0.0903 -0.2662  0.2622
    6MOL   C745 6355   5.389   5.638   3.827 -0.6320 -0.1537 -0.0799
    6MOL   C746 6356   5.351   5.501   3.889  0.1387 -0.4541  0.4428
    6MOL   C747 6357   5.262   5.419   3.801 -1.0510 -0.7232  0.3178
    6MOL   C748 6358   5.245   5.285   3.872  0.1612  0.0827  0.0996
    6MOL   C749 6359   5.156   5.186   3.803  0.6200  0.4252 -0.7674
    6MOL   C750 6360   5.138   5.053   3.879  0.6655  0.5532  0.0711
    6MOL   N751 6361   5.262   4.981   3.898  0.1303 -0.4535  0.0520
    6MOL   H752 6362   5.951   5.019   4.367 -1.3025  0.1896 -0.6723
    6MOL   H753 6363   5.892   4.918   4.478 -3.1652 -0.4994 -1.2303
    6MOL   H754 6364   5.985   5.139   4.586  0.4482 -2.6714 -0.1603
    6MOL   H755 6365   5.809   5.120   4.614 -0.9197 -0.5642 -1.1178
    6MOL   H756 6366   5.791   5.263   4.396 -0.5341  0.9210  0.1314
    6MOL   H757 6367   5.961   5.283   4.412 -0.1161 -1.1720 -0.1746
    6MOL   H758 6368   5.934   5.397   4.639 -1.1529  2.3760  0.9300
    6MOL   H759 6369   5.767   5.419   4.591 -0.3655 -1.8061 -0.1625
    6MOL   H760 6370   6.008   5.532   4.430  0.1723  1.0753 -1.0065
    6MOL   H761 6371   5.904   5.619   4.549 -0.7767  1.2925 -0.6288
    6MOL   H762 6372   5.810   5.481   4.306  3.4941 -0.2449  0.9280
    6MOL   H763 6373   5.711   5.581   4.417 -0.8092 -0.3683 -0.6886
    6MOL   H764 6374   5.847   5.768   4.356 -0.8597  2.2396 -2.3539
    6MOL   H765 6375   5.931   5.672   4.231 -0.1295 -3.8408 -0.3704
    6MOL   H766 6376   5.727   5.632   4.100 -0.1950 -0.7904 -0.0112
    6MOL   H767 6377   5.626   5.731   4.205 -1.1521  1.9831 -3.7777
    6MOL   H768 6378   5.849   5.822   4.038 -0.2365 -0.3573 -0.9211
    6MOL   H769 6379   5.771   5.929   4.146 -0.8590 -0.8036  0.8623
    6MOL   H770 6380   5.556   5.918   4.033 -2.0570 -0.0568 -2.4739
    6MOL   H771 6381   5.681   5.949   3.913  2.7725 -0.2612  2.3381
    6MOL   H772 6382   5.400   5.787   3.977 -1.4131 -1.3649 -0.0425
    6MOL   H773 6383   5.443   5.622   3.733 -1.6522  1.2669 -0.9250
    6MOL   H774 6384   5.302   5.690   3.786  1.7903  3.8962 -0.3307
    6MOL   H775 6385   5.303   5.524   3.984  0.3892  3.1647 -0.2289
    6MOL   H776 6386   5.440   5.445   3.917 -0.1186 -2.6394 -2.8918
    6MOL   H777 6387   5.302   5.391   3.704 -0.6733 -1.5580  0.7068
    6MOL   H778 6388   5.163   5.461   3.786  0.0521  1.4553 -1.0916
    6MOL   H779 6389   5.344   5.242   3.885  0.1177 -0.1668 -0.4083
    6MOL   H780 6390   5.202   5.308   3.970 -2.1087 -2.0394 -0.3568
    6MOL   H781 6391   5.184   5.158   3.701 -0.2789 -0.2888 -0.8252
    6MOL   H782 6392   5.062   5.238   3.791  0.8881  1.0263 -0.2697
    6MOL   H783 6393   5.089   5.076   3.973 -1.7962 -0.8587 -0.8323
    6MOL   H784 6394   5.073   4.979   3.833  0.9680  1.1650 -1.3589
    6MOL   H785 6395   5.334   5.001   3.830 -2.5462 -0.4794 -2.8832
    6MOL   C786 6396   5.289   4.877   3.974  0.3302  0.4007 -0.0737
    6MOL   O787 6397   5.404   4.828   3.970  0.6343  0.3510 -0.6948
    6MOL   C788 6398   5.187   4.833   4.080  0.1175 -0.0731  0.6900
    6MOL   C789 6399   5.238   4.798   4.226 -0.2807  0.0845  0.2024
    6MOL   C790 6400   5.122   4.756   4.318  0.2969  0.9034 -0.4124
    6MOL   C791 6401   5.182   4.695   4.452 -0.3811 -0.2968  0.1092
    6MOL   C792 6402   5.236   4.549   4.441 -0.2530 -0.2934  0.1848
    6MOL   C793 6403   5.260   4.480   4.574 -0.1612 -0.4014 -0.8414
    6MOL   C794 6404   5.133   4.413   4.629  0.0667  0.0944  0.3650
    6MOL   C795 6405   5.154   4.370   4.775 -0.2563  0.2697 -0.3842
    6MOL   C796 6406   5.035   4.300   4.843 -0.0958  0.2188 -0.1562
    6MOL   C797 6407   5.071   4.238   4.983 -0.0400 -0.0555  0.4643
    6MOL   C798 6408   4.954   4.165   5.046  0.3570 -0.0675 -0.5563
    6MOL   O799 6409   4.911   4.068   4.984  0.0077  0.1890  0.1680
    6MOL   N800 6410   4.909   4.209   5.166 -0.0879  0.4299  0.1271
    6MOL   C801 6411   4.808   4.138   5.250  0.3417 -0.5585  0.7397
    6MOL   C802 6412   4.667   4.195   5.231  0.4960  0.2601  0.3378
    6MOL   C803 6413   4.559   4.118   5.300  0.1722  0.0328 -0.1990
    6MOL   C804 6414   4.416   4.170   5.297 -0.7509  0.1541 -0.3298
    6MOL   C805 6415   4.324   4.097   5.395  0.1486  0.5136  0.3648
    6MOL   C806 6416   4.271   3.963   5.344 -0.4946  0.1548  0.1345
    6MOL   N807 6417   4.152   3.937   5.421 -0.3268 -0.1990 -0.3235
    6MOL   H808 6418   5.119   4.759   4.038 -0.2172 -0.1749  1.4121
    6MOL   H809 6419   5.120   4.913   4.112  0.3177  1.0331 -1.5109
    6MOL   H810 6420   5.312   4.720   4.215  0.0578  0.4665 -0.2692
    6MOL   H811 6421   5.280   4.881   4.283  1.3785  0.6925 -1.8466
    6MOL   H812 6422   5.063   4.682   4.263 -0.3381  0.7364  0.4738
    6MOL   H813 6423   5.049   4.837   4.330 -0.1849  0.0942  2.5107
    6MOL   H814 6424   5.262   4.761   4.486 -0.9666  0.5959 -0.2447
    6MOL   H815 6425   5.118   4.695   4.540 -0.6142 -2.0592 -0.0382
    6MOL   H816 6426   5.168   4.489   4.380 -2.1948  0.9757  1.0282
    6MOL   H817 6427   5.330   4.550   4.388  0.1343  0.1199  0.8680
    6MOL   H818 6428   5.347   4.414   4.577  1.4964  1.8232  1.9130
    6MOL   H819 6429   5.282   4.563   4.641 -0.2024 -0.4005 -0.8300
    6MOL   H820 6430   5.051   4.483   4.616  0.4264  0.3405 -0.6422
    6MOL   H821 6431   5.124   4.317   4.578 -1.1519  0.1582  0.4483
    6MOL   H822 6432   5.244   4.311   4.796 -1.8110 -2.6271 -1.5055
    6MOL   H823 6433   5.150   4.459   4.838 -0.4705  0.3243 -0.4751
    6MOL   H824 6434   5.003   4.219   4.777 -2.4708  0.9290  0.0635
    6MOL   H825 6435   4.946   4.363   4.851 -0.0280  0.0227  2.2816
    6MOL   H826 6436   5.157   4.172   4.975 -0.2625 -0.0939 -2.2302
    6MOL   H827 6437   5.106   4.321   5.045  0.0829  0.0836  0.2073
    6MOL   H828 6438   4.944   4.296   5.204 -0.1963 -0.2607  1.8259
    6MOL   H829 6439   4.835   4.148   5.355 -0.3385  0.7277  0.8135
    6MOL   H830 6440   4.815   4.032   5.228 -1.8792 -0.8197  1.1599
    6MOL   H831 6441   4.633   4.196   5.127  2.3425 -0.2365 -0.3161
    6MOL   H832 6442   4.655   4.301   5.250 -1.5350  0.4248 -1.6680
    6MOL   H833 6443   4.556   4.026   5.241 -3.6370  1.0720 -1.8280
    6MOL   H834 6444   4.592   4.091   5.400  0.1609 -1.0108 -0.4756
    6MOL   H835 6445   4.360   4.169   5.204  0.0277 -1.0163 -0.8041
    6MOL   H836 6446   4.439   4.273   5.322  1.4442 -0.8186  1.9012
    6MOL   H837 6447   4.243   4.167   5.416 -0.4748  0.0479 -0.4682
    6MOL   H838 6448   4.375   4.091   5.491 -2.6044  0.4947  1.8758
    6MOL   H839 6449   4.336   3.876   5.352 -1.6230 -0.8213 -0.9593
    6MOL   H840 6450   4.255   3.968   5.237  1.6255  0.2107 -0.1962
    6MOL   H841 6451   4.108   4.003   5.483 -0.6781  0.3634 -1.1703
    6MOL   C842 6452   4.093   3.816   5.416  0.4675 -0.1702  0.2104
    6MOL   O843 6453   4.135   3.722   5.350  0.0070  0.7509  0.2979
    6MOL   C844 6454   3.963   3.803   5.499  0.3189 -0.9756  0.8551
    6MOL   C845 6455   3.966   3.682   5.587  0.3872  0.8579  0.3052
    6MOL   C846 6456   4.096   3.651   5.667  0.4630  0.6191 -0.6345
    6MOL   C847 6457   4.072   3.571   5.800 -0.2895  0.3589  0.2463
    6MOL   C848 6458   4.205   3.510   5.857  0.4860 -0.1804  0.3816
    6MOL   C849 6459   4.273   3.397   5.780  0.4485 -0.0400  0.0144
    6MOL   C850 6460   4.180   3.285   5.743 -1.0037  0.1007  0.1030
    6MOL   C851 6461   4.274   3.165   5.693 -0.0067  0.2318 -0.3418
    6MOL   C852 6462   4.192   3.040   5.666  0.4641  0.5208 -0.0913
    6MOL   C853 6463   4.267   2.913   5.621  0.5526  0.4715  0.0334
    6MOL   C854 6464   4.334   2.908   5.478 -0.3664 -0.6032  0.0611
    6MOL   O855 6465   4.268   2.855   5.385  0.1571 -0.4146  0.2794
    6MOL   N856 6466   4.465   2.942   5.465  0.3728  0.7254 -0.1757
    6MOL   C857 6467   4.538   2.944   5.341 -0.1633 -0.4866 -0.7804
    6MOL   C858 6468   4.660   2.864   5.358 -0.6851 -0.1877 -0.6685
    6MOL   C859 6469   4.634   2.713   5.373  0.2029 -0.3186  0.1094
    6MOL   C860 6470   4.594   2.641   5.241  0.5737 -0.2011 -0.4806
    6MOL   C861 6471   4.535   2.504   5.273 -0.8436 -0.2720 -0.7159
    6MOL   C862 6472   4.393   2.499   5.341 -0.1424 -0.3439  0.3770
    6MOL   N863 6473   4.296   2.590   5.278 -0.5132  0.2416  0.2905
    6MOL   H864 6474   3.869   3.797   5.443  0.7559  3.3005 -0.4983
    6MOL   H865 6475   3.952   3.891   5.563 -0.1528  0.8806 -1.7164
    6MOL   H866 6476   3.950   3.599   5.518 -1.0598 -0.1810  1.8449
    6MOL   H867 6477   3.887   3.688   5.662  0.7052  0.2981  0.6842
    6MOL   H868 6478   4.165   3.608   5.594 -1.6823 -1.4158 -1.4858
    6MOL   H869 6479   4.142   3.742   5.707  1.5460 -0.8804  1.6150
    6MOL   H870 6480   3.988   3.502   5.796  0.4297 -0.4637 -0.8481
    6MOL   H871 6481   4.051   3.646   5.877  0.6570 -0.5988  1.4609
    6MOL   H872 6482   4.267   3.593   5.891 -1.6722  1.2658  0.8960
    6MOL   H873 6483   4.180   3.467   5.954  0.7821 -0.4641  0.3333
    6MOL   H874 6484   4.325   3.436   5.693  1.5026  0.6030  0.9178
    6MOL   H875 6485   4.353   3.371   5.849  1.0038  1.6188  0.0376
    6MOL   H876 6486   4.121   3.261   5.832  1.1944 -2.0362  1.0555
    6MOL   H877 6487   4.101   3.315   5.675 -0.8108  0.1835 -0.0816
    6MOL   H878 6488   4.351   3.152   5.768 -0.4956 -0.5613  0.0362
    6MOL   H879 6489   4.322   3.209   5.605 -0.3970  2.7475  0.6744
    6MOL   H880 6490   4.119   3.064   5.588 -1.0102 -0.0791  1.0700
    6MOL   H881 6491   4.126   3.020   5.751 -1.2848 -0.5099 -1.6499
    6MOL   H882 6492   4.347   2.887   5.691  1.0382  1.4612 -0.1436
    6MOL   H883 6493   4.201   2.827   5.628 -0.8076  1.5953  1.6407
    6MOL   H884 6494   4.508   2.971   5.552 -1.4389  1.2724  0.5741
    6MOL   H885 6495   4.582   3.043   5.331  0.1129 -0.5545 -0.2771
    6MOL   H886 6496   4.478   2.921   5.254  0.5989 -0.5490 -1.2942
    6MOL   H887 6497   4.719   2.900   5.442 -0.8015  0.9920 -1.0934
    6MOL   H888 6498   4.727   2.884   5.274  0.1125  2.1070  0.4906
    6MOL   H889 6499   4.563   2.703   5.456  1.3919  1.3384  1.3640
    6MOL   H890 6500   4.722   2.653   5.400 -0.9711 -1.7801  0.7634
    6MOL   H891 6501   4.689   2.631   5.188  1.1768 -1.2101  0.7636
    6MOL   H892 6502   4.521   2.699   5.185 -1.8784 -0.3257  2.4319
    6MOL   H893 6503   4.525   2.457   5.175 -0.0615 -0.8146 -0.5362
    6MOL   H894 6504   4.605   2.445   5.332 -2.5345 -1.3484  0.2740
    6MOL   H895 6505   4.358   2.396   5.341 -0.2055 -0.3324 -0.9370
    6MOL   H896 6506   4.397   2.527   5.446  0.7908  0.2697  0.1829
    6MOL   H897 6507   4.282   2.677   5.327 -0.8525 -0.5312  1.5716
    6MOL   C898 6508   4.228   2.567   5.161  0.2513  0.0114  0.3878
    6MOL   O899 6509   4.230   2.455   5.105  0.2931 -0.6039  0.3671
    6MOL   C900 6510   4.146   2.689   5.110 -0.1977 -0.3876 -0.1000
    6MOL   C901 6511   4.192   2.739   4.969  0.4177 -0.4424 -0.2687
    6MOL   C902 6512   4.141   2.651   4.849  0.2746 -0.2631 -0.2288
    6MOL   C903 6513   4.166   2.704   4.713 -0.1387  0.3116 -0.3929
    6MOL   C904 6514   4.119   2.611   4.603 -0.0628  0.0341  0.3415
    6MOL   C905 6515   4.181   2.651   4.467 -0.2568 -0.0850  0.2569
    6MOL   C906 6516   4.115   2.604   4.334 -0.0160  0.1214  0.1491
    6MOL   C907 6517   4.187   2.642   4.202  0.2374  0.5810  0.2084
    6MOL   C908 6518   4.184   2.786   4.166  0.4136 -0.2022  0.1874
    6MOL   C909 6519   4.163   2.827   4.014 -0.0527 -0.1234  0.1451
    6MOL   C910 6520   4.027   2.798   3.966 -0.5642  0.5585 -0.3294
    6MOL   O911 6521   3.938   2.766   4.048 -0.4735  0.3956 -0.0158
    6MOL   N912 6522   4.011   2.780   3.833  0.1377 -0.5793  0.4399
    6MOL   C913 6523   3.887   2.750   3.763  0.1031 -0.1429  0.1770
    6MOL   C914 6524   3.887   2.609   3.709  0.4555  0.2036 -0.3168
    6MOL   C915 6525   3.885   2.495   3.816 -0.4603 -0.1377 -0.3272
    6MOL   C916 6526   3.755   2.506   3.895  0.0548 -0.0947 -0.1394
    6MOL   C917 6527   3.757   2.405   4.012  0.0985 -0.2410 -0.1412
    6MOL   C918 6528   3.828   2.450   4.140 -0.2881  0.0983 -0.2070
    6MOL   N919 6529   3.806   2.357   4.251  0.4813 -0.3048  0.1175
    6MOL   H920 6530   4.042   2.657   5.104 -0.0780 -0.6198 -1.1817
    6MOL   H921 6531   4.166   2.777   5.170 -1.4150  1.0610 -1.7630
    6MOL   H922 6532   4.301   2.742   4.973  0.3839  0.9021 -0.2612
    6MOL   H923 6533   4.155   2.837   4.939 -0.3846 -0.6214  0.1425
    6MOL   H924 6534   4.039   2.618   4.869  1.4056 -4.1902 -0.6844
    6MOL   H925 6535   4.195   2.557   4.850 -1.4854 -1.3262 -1.3003
    6MOL   H926 6536   4.125   2.805   4.718  0.0785  0.3543  0.5860
    6MOL   H927 6537   4.271   2.729   4.695  0.3847 -2.0068 -0.7128
    6MOL   H928 6538   4.012   2.608   4.583 -0.2441  0.0162  1.2660
    6MOL   H929 6539   4.150   2.508   4.621 -0.4427 -0.3485 -1.1917
    6MOL   H930 6540   4.182   2.760   4.476  1.1169 -0.2247  2.2471
    6MOL   H931 6541   4.284   2.617   4.459  0.6223  1.9813  2.3246
    6MOL   H932 6542   4.011   2.633   4.323 -0.4383 -0.6952  1.8534
    6MOL   H933 6543   4.111   2.495   4.343  0.0050  0.0477 -0.7565
    6MOL   H934 6544   4.148   2.584   4.118 -0.9498  2.2009 -0.3658
    6MOL   H935 6545   4.290   2.605   4.203 -0.2251 -0.7607 -0.1462
    6MOL   H936 6546   4.106   2.841   4.220  1.3656  0.3250  1.0375
    6MOL   H937 6547   4.282   2.829   4.186  0.0947  0.0754  1.2264
    6MOL   H938 6548   4.191   2.932   4.014  3.1392 -0.9007 -0.2814
    6MOL   H939 6549   4.239   2.775   3.954  1.2465 -1.2507  2.6915
    6MOL   H940 6550   4.096   2.802   3.782  0.2182 -0.5867  0.5729
    6MOL   H941 6551   3.903   2.803   3.669  0.6666 -0.3886  0.1312
    6MOL   H942 6552   3.795   2.777   3.814 -0.2207 -0.1244 -0.4104
    6MOL   H943 6553   3.800   2.589   3.647 -0.8874 -3.1207  2.4473
    6MOL   H944 6554   3.979   2.585   3.655 -1.5334 -2.0284 -2.8913
    6MOL   H945 6555   3.902   2.397   3.772 -0.6974  0.9365 -2.9461
    6MOL   H946 6556   3.968   2.517   3.884  0.4064 -0.1390 -1.3622
    6MOL   H947 6557   3.672   2.495   3.824 -0.4789 -0.5735  0.5531
    6MOL   H948 6558   3.743   2.603   3.943  1.0309 -0.1537  0.2355
    6MOL   H949 6559   3.654   2.376   4.031 -0.2158  0.3645 -0.8921
    6MOL   H950 6560   3.807   2.312   3.984 -0.8882 -0.5807 -0.7938
    6MOL   H951 6561   3.799   2.554   4.156 -0.6815  0.2108 -1.6306
    6MOL   H952 6562   3.935   2.452   4.119 -0.4417 -0.7858 -1.1428
    6MOL   H953 6563   3.872   2.280   4.256 -0.3376 -1.2305 -2.5322
    6MOL   C954 6564   3.692   2.357   4.321  0.6412 -0.2283 -0.4614
    6MOL   O955 6565   3.601   2.440   4.302  0.5185 -0.4338  0.2160
    6MOL   C956 6566   3.684   2.252   4.434  0.2504  0.0193 -1.1238
    6MOL   C957 6567   3.540   2.213   4.489  0.2856 -0.1034 -0.1633
    6MOL   C958 6568   3.443   2.157   4.384 -0.1590 -0.5542  0.3734
    6MOL   C959 6569   3.487   2.025   4.317 -0.3609 -0.4746  0.9523
    6MOL   C960 6570   3.373   1.959   4.240 -0.2469 -1.1862  0.3880
    6MOL   C961 6571   3.349   2.028   4.101  0.4775  0.2530 -0.0408
    6MOL   C962 6572   3.246   1.952   4.015  0.3003  0.4973 -0.1440
    6MOL   C963 6573   3.239   1.996   3.869  0.1375  0.6296 -0.3621
    6MOL   C964 6574   3.209   2.144   3.842  0.1079 -0.3313  0.6726
    6MOL   C965 6575   3.059   2.188   3.862 -0.2830 -0.0751 -0.3919
    6MOL   C966 6576   3.035   2.334   3.827 -0.0064  0.5398  0.7812
    6MOL   O967 6577   3.035   2.371   3.708  0.5886 -0.1325 -0.0904
    6MOL   N968 6578   3.000   2.411   3.931 -0.1095  0.0246  0.1089
    6MOL   C969 6579   2.964   2.548   3.919  0.1707 -0.4962 -0.4196
    6MOL   C970 6580   2.882   2.598   4.040  0.0067  0.0839 -0.2940
    6MOL   C971 6581   2.845   2.752   4.052  0.7755  0.7862 -0.3638
    6MOL   C972 6582   2.744   2.797   3.942 -0.4502  0.1216  0.5005
    6MOL   C973 6583   2.686   2.935   3.966  0.0092  0.2219 -0.0006
    6MOL   C974 6584   2.609   2.981   3.850 -0.6802 -0.0060 -0.3523
    6MOL   N975 6585   2.569   3.126   3.865 -0.3181 -0.3706 -0.3675
    6MOL   H976 6586   3.742   2.165   4.401  1.1230 -0.0024  0.4460
    6MOL   H977 6587   3.734   2.295   4.520 -0.9364 -0.2914 -0.2758
    6MOL   H978 6588   3.499   2.302   4.536  0.9241 -0.3753  0.9324
    6MOL   H979 6589   3.560   2.137   4.564  0.6049  1.8019  1.7443
    6MOL   H980 6590   3.347   2.136   4.431  1.2120  0.5931  3.8621
    6MOL   H981 6591   3.435   2.235   4.308  0.8662  0.2653  1.0751
    6MOL   H982 6592   3.580   2.026   4.261 -1.7062  0.3496 -1.3415
    6MOL   H983 6593   3.511   1.964   4.404  1.9923 -2.1405 -0.7909
    6MOL   H984 6594   3.405   1.855   4.230  1.5117 -0.7129  0.7555
    6MOL   H985 6595   3.280   1.948   4.294  0.1834 -2.5181  0.8756
    6MOL   H986 6596   3.320   2.130   4.126 -1.1256 -0.5052  1.2829
    6MOL   H987 6597   3.444   2.028   4.048  1.7247 -0.3779  2.1241
    6MOL   H988 6598   3.268   1.846   4.025  0.6954  0.5333 -0.6390
    6MOL   H989 6599   3.148   1.971   4.060 -0.3726 -0.8801 -1.0266
    6MOL   H990 6600   3.331   1.973   3.816 -0.4584 -0.1455 -1.0540
    6MOL   H991 6601   3.164   1.947   3.808  1.4099 -0.8068 -0.8110
    6MOL   H992 6602   3.236   2.171   3.740  2.1363 -0.4078  1.1638
    6MOL   H993 6603   3.281   2.203   3.899  0.5723  2.2764 -2.4788
    6MOL   H994 6604   2.994   2.141   3.788 -0.3782 -2.4456  1.1813
    6MOL   H995 6605   3.021   2.172   3.962 -0.4095 -2.2571 -0.7593
    6MOL   H996 6606   3.012   2.383   4.028 -1.6763 -1.4413 -0.0909
    6MOL   H997 6607   2.915   2.572   3.825  2.3079 -0.5790 -1.5857
    6MOL   H998 6608   3.053   2.611   3.911 -1.3986  1.6272 -1.6620
    6MOL   H999 6609   2.937   2.562   4.128 -0.3530  1.1993  0.4023
    6MOL     H1 6610   2.789   2.542   4.046  0.1279  0.0640  1.7449
    6MOL     H2 6611   2.928   2.823   4.053 -0.2771  2.0590  1.8046
    6MOL     H3 6612   2.805   2.777   4.151  1.1329 -1.3071  0.3309
    6MOL     H4 6613   2.797   2.803   3.847  1.8566 -1.8444  1.5851
    6MOL     H5 6614   2.665   2.725   3.922  1.0149 -1.1181 -0.9756
    6MOL     H6 6615   2.761   3.011   3.991 -0.1598  0.5345 -0.4318
    6MOL     H7 6616   2.627   2.929   4.058  0.2049 -0.7635  0.0635
    6MOL     H8 6617   2.658   2.981   3.752 -0.8981  0.5293 -0.4592
    6MOL     H9 6618   2.521   2.917   3.835 -1.0834  0.3637  0.4566
    6MOL    H10 6619   2.620   3.199   3.816 -1.4537  1.2783  0.8541
    6MOL    C11 6620   2.468   3.159   3.937  0.0774 -0.2524 -0.5705
    6MOL    O12 6621   2.397   3.082   3.996 -0.3789 -0.1452 -0.1046
    6MOL    C13 6622   2.446   3.306   3.954 -0.0695  0.3939 -0.9642
    6MOL    C14 6623   2.296   3.355   3.943  0.0859 -0.7157 -0.6093
    6MOL    C15 6624   2.292   3.504   3.958 -0.2333 -0.5002 -0.3738
    6MOL    C16 6625   2.153   3.547   4.007  0.4889  0.8634  0.3706
    6MOL    C17 6626   2.104   3.497   4.143  0.2773 -0.0951 -0.2957
    6MOL    C18 6627   1.981   3.579   4.188 -0.1910  0.2650 -0.1415
    6MOL    C19 6628   1.934   3.540   4.327 -0.1274  0.1162 -0.5767
    6MOL    C20 6629   1.788   3.575   4.350 -1.0381 -0.1344  0.1308
    6MOL    C21 6630   1.746   3.530   4.491 -0.3408  0.3412  0.4619
    6MOL    C22 6631   1.597   3.547   4.522 -0.3510  0.4259  0.8222
    6MOL    C23 6632   1.570   3.661   4.620  0.0021  0.7827 -0.4132
    6MOL    O24 6633   1.658   3.732   4.660 -0.3683  0.1814  0.1386
    6MOL    N25 6634   1.439   3.665   4.652 -0.4161 -1.0073 -0.3958
    6MOL    C26 6635   1.384   3.773   4.742 -0.8791 -0.1959  0.0414
    6MOL    C27 6636   1.336   3.888   4.651  0.3860  0.6841  0.1522
    6MOL    C28 6637   1.268   3.998   4.731 -0.7344 -0.0859 -0.7637
    6MOL    C29 6638   1.242   4.117   4.632 -0.1803  0.2301  0.2449
    6MOL    C30 6639   1.189   4.238   4.705  0.2435 -0.0260  0.0393
    6MOL    C31 6640   1.182   4.346   4.599  0.3368 -0.6402  0.1926
    6MOL    N32 6641   1.127   4.467   4.658  0.8303 -0.0418  0.3145
    6MOL    H33 6642   2.506   3.362   3.883  0.6614  0.9970  0.1196
    6MOL    H34 6643   2.468   3.346   4.053  1.2841  0.9403 -1.4780
    6MOL    H35 6644   2.237   3.292   4.010 -0.5986 -1.4280 -1.8606
    6MOL    H36 6645   2.259   3.331   3.844 -1.0427 -2.4258  0.2020
    6MOL    H37 6646   2.307   3.564   3.869  1.3815  1.0147  0.8997
    6MOL    H38 6647   2.376   3.533   4.020  0.3485 -1.7236 -0.5697
    6MOL    H39 6648   2.160   3.654   4.026  0.6940  0.9541 -0.1945
    6MOL    H40 6649   2.076   3.527   3.933 -0.3720  2.6159  0.7774
    6MOL    H41 6650   2.070   3.394   4.141 -0.4438  0.1152  0.5169
    6MOL    H42 6651   2.187   3.516   4.212 -1.0680  1.1873  1.0161
    6MOL    H43 6652   1.984   3.687   4.172  0.5339  0.0853 -1.2801
    6MOL    H44 6653   1.899   3.546   4.125 -0.0329  0.8900 -0.6823
    6MOL    H45 6654   1.929   3.431   4.316 -1.4699  0.0086  0.8567
    6MOL    H46 6655   1.996   3.579   4.408  0.9358 -1.4812 -0.6012
    6MOL    H47 6656   1.768   3.682   4.341 -2.9785 -0.5629 -0.9296
    6MOL    H48 6657   1.727   3.530   4.272  2.7628 -1.4500 -2.2389
    6MOL    H49 6658   1.804   3.575   4.572 -0.9022 -1.0503  1.6680
    6MOL    H50 6659   1.766   3.423   4.500  0.4306  0.5408  1.1696
    6MOL    H51 6660   1.554   3.552   4.421  3.3582 -0.4374 -0.8794
    6MOL    H52 6661   1.571   3.455   4.574 -0.8025  0.4513  0.6461
    6MOL    H53 6662   1.368   3.622   4.596 -1.6281  0.7179 -0.2272
    6MOL    H54 6663   1.465   3.813   4.803 -2.1662  1.1047  0.9128
    6MOL    H55 6664   1.314   3.737   4.816  0.4087 -0.0317  1.3564
    6MOL    H56 6665   1.250   3.855   4.593 -1.0077  0.3282  2.3535
    6MOL    H57 6666   1.414   3.914   4.579 -0.4113 -0.7477 -1.2480
    6MOL    H58 6667   1.344   4.029   4.802  1.3132 -1.3997 -2.3023
    6MOL    H59 6668   1.186   3.972   4.797  1.0415 -0.9580  1.1454
    6MOL    H60 6669   1.163   4.086   4.564 -0.9052 -0.8326  1.5369
    6MOL    H61 6670   1.327   4.144   4.569 -2.2543  0.5715 -2.4878
    6MOL    H62 6671   1.251   4.270   4.789  1.0139  1.4244 -1.0544
    6MOL    H63 6672   1.089   4.221   4.746 -0.7737 -0.1546 -2.3810
    6MOL    H64 6673   1.122   4.307   4.516 -2.3402  0.0431  1.7566
    6MOL    H65 6674   1.276   4.357   4.544 -0.7870  1.3669 -1.4184
    6MOL    H66 6675   1.183   4.502   4.734 -0.6056 -1.0974  1.9039
    6MOL    C67 6676   1.015   4.523   4.610  0.1174 -0.2365 -0.7762
    6MOL    O68 6677   0.952   4.464   4.520  0.4725 -0.3367  0.6206
    6MOL    C69 6678   0.972   4.665   4.665 -0.3880  0.0015  0.3887
    6MOL    C70 6679   0.903   4.760   4.568 -0.5420 -0.5526 -0.2483
    6MOL    C71 6680   0.818   4.870   4.638 -0.1902  0.2975 -0.6896
    6MOL    C72 6681   0.738   4.933   4.530 -0.0645  0.0659  0.1483
    6MOL    C73 6682   0.694   5.073   4.576 -0.6685  0.4155 -0.7996
    6MOL    C74 6683   0.618   5.153   4.469 -0.0140 -0.7689 -0.6857
    6MOL    C75 6684   0.531   5.265   4.517  0.5411 -0.0423 -0.4951
    6MOL    C76 6685   0.392   5.222   4.575  0.4302 -0.0741 -0.9210
    6MOL    C77 6686   0.286   5.328   4.590 -0.7728  0.1343  0.4701
    6MOL    C78 6687   0.150   5.279   4.634 -0.4294 -0.3782 -0.0869
    6MOL    C79 6688   0.045   5.393   4.613  0.2337  0.1558 -0.0039
    6MOL    O80 6689   7.688   5.453   4.710 -0.3531 -0.1614  0.0853
    6MOL    N81 6690   0.010   5.411   4.485  0.3432  0.0574  0.1791
    6MOL    C82 6691   7.623   5.507   4.430 -1.0471  0.0373  0.0144
    6MOL    C83 6692   7.476   5.462   4.439  1.1906  0.0564  0.7326
    6MOL    C84 6693   7.402   5.556   4.342  0.5836  0.5863  0.0277
    6MOL    C85 6694   7.263   5.499   4.323  0.2436 -0.0808  0.2204
    6MOL    C86 6695   7.163   5.615   4.281  0.1848  0.2104  0.0693
    6MOL    C87 6696   7.011   5.588   4.293 -0.1470 -0.7043  0.1697
    6MOL    N88 6697   6.954   5.713   4.265 -0.0523 -0.2338  0.5427
    6MOL    H89 6698   1.059   4.714   4.710  0.5397 -1.3513  0.1028
    6MOL    H90 6699   0.913   4.643   4.754  0.0748 -0.3510  0.6146
    6MOL    H91 6700   0.960   4.805   4.488  0.6307  0.3350  1.0617
    6MOL    H92 6701   0.831   4.704   4.509 -1.9584 -1.1847  2.0061
    6MOL    H93 6702   0.763   4.826   4.720  2.1484 -2.0474 -0.2962
    6MOL    H94 6703   0.889   4.940   4.683 -1.6628  1.5820 -0.3401
    6MOL    H95 6704   0.800   4.951   4.443  0.1836 -2.4642 -0.2354
    6MOL    H96 6705   0.650   4.876   4.502 -0.1007 -0.9120  2.1214
    6MOL    H97 6706   0.637   5.056   4.667 -0.3875  0.2534 -0.6548
    6MOL    H98 6707   0.789   5.119   4.603  0.1549 -0.6555 -1.8564
    6MOL    H99 6708   0.700   5.182   4.404  0.3064 -0.7688 -0.2811
    6MOL   H100 6709   0.564   5.084   4.403 -2.0762  2.1013 -2.1268
    6MOL   H101 6710   0.512   5.340   4.440  0.3051  0.2545 -0.1491
    6MOL   H102 6711   0.586   5.325   4.589 -2.1665 -0.2642  1.8324
    6MOL   H103 6712   0.353   5.142   4.513 -2.5959 -0.1491  0.9917
    6MOL   H104 6713   0.401   5.172   4.672  0.0224  0.6638 -0.4980
    6MOL   H105 6714   0.276   5.370   4.489 -0.4213 -0.3154  0.2475
    6MOL   H106 6715   0.323   5.412   4.648 -1.0725  0.0257  0.8127
    6MOL   H107 6716   0.124   5.195   4.570  2.0358 -1.5553  0.3988
    6MOL   H108 6717   0.150   5.249   4.739 -0.5516  1.5147  0.4570
    6MOL   H109 6718   0.059   5.346   4.425  1.5354 -0.3657  1.5636
    6MOL   H110 6719   7.654   5.513   4.326 -1.2022 -0.0390 -0.0357
    6MOL   H111 6720   7.644   5.602   4.480  1.7636  0.1740 -1.3435
    6MOL   H112 6721   7.451   5.479   4.544 -1.9740  0.2079  0.0048
    6MOL   H113 6722   7.462   5.354   4.430 -0.2563  0.2251  0.8429
    6MOL   H114 6723   7.449   5.555   4.244  0.0254  0.6280 -0.2457
    6MOL   H115 6724   7.394   5.655   4.386  0.4316  0.3227  0.5976
    6MOL   H116 6725   7.261   5.423   4.245  0.9113  1.0500 -0.9171
    6MOL   H117 6726   7.221   5.442   4.406  4.0532 -3.1326  0.1860
    6MOL   H118 6727   7.182   5.705   4.339  1.3339  0.3637 -0.5321
    6MOL   H119 6728   7.196   5.642   4.181 -1.2606  3.4399  0.4325
    6MOL   H120 6729   6.984   5.498   4.237  0.3072 -1.3551  1.0051
    6MOL   H121 6730   6.992   5.569   4.398  1.1274 -0.2071  0.4862
    6MOL   H122 6731   6.855   5.711   4.285 -0.2236  0.3433 -0.1995
    6MOL   H123 6732   6.973   5.733   4.167 -0.7255  3.8107  1.1493
    7MOL     C1 6733   7.337   0.042   4.453  0.5190  0.5385 -0.4864
    7MOL     O2 6734   7.259   0.120   4.500  0.1060  0.4381  0.6045
    7MOL     C3 6735   7.408   7.632   4.539 -0.7966  0.9040  0.0516
    7MOL     C4 6736   7.528   7.688   4.612  0.7222  0.0263 -0.4269
    7MOL     C5 6737   7.660   7.690   4.538 -0.0446 -0.0977 -0.5770
    7MOL     C6 6738   0.086   0.032   4.632 -0.9090 -0.0743  0.9429
    7MOL     C7 6739   0.223   0.054   4.573 -0.1098 -0.6076  0.4531
    7MOL     C8 6740   0.323   0.121   4.673  0.3389  0.2563 -0.5272
    7MOL     C9 6741   0.371   0.035   4.788 -0.3486 -0.1221  0.1776
    7MOL    C10 6742   0.460   0.120   4.881  0.3330  0.2131  0.0516
    7MOL    C11 6743   0.502   0.048   5.000 -0.1957 -0.2449  0.7727
    7MOL    C12 6744   0.603   0.114   5.093 -0.7696  0.1987  0.0714
    7MOL    C13 6745   0.741   0.157   5.032  0.2652  0.4590 -0.9062
    7MOL    O14 6746   0.737   0.235   4.941 -0.3755  0.0209 -0.8588
    7MOL    N15 6747   0.853   0.114   5.095  0.2387  0.1748 -0.7748
    7MOL    C16 6748   0.984   0.142   5.047  0.4992  0.0689  0.1822
    7MOL    C17 6749   1.081   0.099   5.158 -0.1100 -0.4548  0.1288
    7MOL    C18 6750   1.083   0.203   5.275 -0.1498 -0.2812 -0.7082
    7MOL    C19 6751   1.194   0.170   5.379 -0.3202  0.4751 -0.4195
    7MOL    C20 6752   1.219   0.282   5.476  0.4978  0.1206  0.1075
    7MOL    C21 6753   1.277   0.248   5.620  0.0184  0.2359 -0.2773
    7MOL    N22 6754   1.312   0.369   5.692 -0.1931 -0.5153 -0.5687
    7MOL    H23 6755   7.443   7.546   4.481 -1.1057 -0.7332  2.2382
    7MOL    H24 6756   7.349   7.579   4.613  1.0590 -2.1792 -0.5860
    7MOL    H25 6757   7.529   7.639   4.710  1.3747 -0.9508 -0.9235
    7MOL    H26 6758   7.509   0.103   4.627  1.4007  0.2852 -1.3608
    7MOL    H27 6759   7.660   0.063   4.450 -3.2349  1.1818  0.3210
    7MOL    H28 6760   7.670   7.591   4.493  0.9792 -0.8481  1.2664
    7MOL    H29 6761   0.059   0.123   4.686 -0.3518  1.4170 -1.2205
    7MOL    H30 6762   0.099   7.648   4.709 -2.4774 -0.7749  0.5333
    7MOL    H31 6763   0.226   0.129   4.494 -1.2495  0.1753  1.1321
    7MOL    H32 6764   0.252   7.652   4.526 -0.2534  0.2050 -1.2662
    7MOL    H33 6765   0.402   0.180   4.628  0.3808  0.3207 -0.3684
    7MOL    H34 6766   0.275   0.206   4.720 -0.1820 -0.9121  1.1041
    7MOL    H35 6767   0.284   7.684   4.839  0.3689 -0.8252  0.8295
    7MOL    H36 6768   0.424   7.646   4.739  0.6845 -0.1519  1.3125
    7MOL    H37 6769   0.550   0.139   4.822  2.2932  1.8564  3.4154
    7MOL    H38 6770   0.400   0.207   4.906  0.3392 -0.1363  1.3137
    7MOL    H39 6771   0.551   7.647   4.971 -1.9399 -1.6117  2.0952
    7MOL    H40 6772   0.409   0.023   5.051 -1.8076  3.3716 -0.2148
    7MOL    H41 6773   0.562   0.193   5.155  0.7026  0.5538  0.6268
    7MOL    H42 6774   0.621   0.039   5.171  1.2395  0.3179 -0.2321
    7MOL    H43 6775   0.840   0.063   5.181  2.0765 -1.4558 -1.4315
    7MOL    H44 6776   0.991   0.248   5.020  0.0733 -0.1911 -0.9855
    7MOL    H45 6777   0.996   0.087   4.954  1.3754 -3.1943  2.1493
    7MOL    H46 6778   1.183   0.094   5.119 -0.3881  0.3976 -0.6942
    7MOL    H47 6779   1.055   0.004   5.205  1.2856 -0.3731  1.1238
    7MOL    H48 6780   1.101   0.307   5.245  1.1533  0.0857  1.2264
    7MOL    H49 6781   0.983   0.221   5.316  0.2125  1.5254 -0.5862
    7MOL    H50 6782   1.287   0.139   5.330 -0.2800  1.1892 -0.7900
    7MOL    H51 6783   1.159   0.079   5.429 -0.0735  0.7539  0.2747
    7MOL    H52 6784   1.272   0.367   5.433  0.5834  1.4182  2.7030
    7MOL    H53 6785   1.123   0.334   5.487 -0.0607 -1.2065  1.8474
    7MOL    H54 6786   1.202   0.184   5.666 -1.0584  0.8173 -1.2077
    7MOL    H55 6787   1.364   0.182   5.609 -0.5173 -0.4619 -0.3424
    7MOL    H56 6788   1.246   0.409   5.758  0.5269  0.1782 -0.2628
    7MOL    H57 6789   7.351   0.017   4.348  1.7168  0.8554 -0.4164
    7MOL    C58 6790   1.425   0.438   5.664 -0.7419 -0.0556 -0.4596
    7MOL    O59 6791   1.504   0.406   5.569  0.1495  0.3182 -0.5117
    7MOL    C60 6792   1.457   0.567   5.732  0.1241 -0.6306  0.7490
    7MOL    C61 6793   1.521   0.545   5.870  0.0721  0.0737 -0.5777
    7MOL    C62 6794   1.575   0.668   5.943  0.5289  0.4200 -0.2020
    7MOL    C63 6795   1.661   0.760   5.860 -0.3166 -0.8758  0.1957
    7MOL    C64 6796   1.725   0.877   5.929 -0.4446  0.4376  0.4580
    7MOL    C65 6797   1.621   0.981   5.963  0.2897  0.3740 -0.5566
    7MOL    C66 6798   1.696   1.099   6.015  0.0916  0.1515 -0.4966
    7MOL    C67 6799   1.598   1.215   6.061 -0.4893 -0.5780 -0.4753
    7MOL    C68 6800   1.673   1.336   6.103  0.4699  0.3314 -0.3637
    7MOL    C69 6801   1.586   1.447   6.165 -0.1411 -0.0320 -0.2702
    7MOL    C70 6802   1.514   1.410   6.293 -0.1071 -0.3642 -0.1015
    7MOL    O71 6803   1.412   1.344   6.290  0.2975  0.1477  0.3667
    7MOL    N72 6804   1.576   1.452   6.400  0.1260 -0.1355 -0.5085
    7MOL    C73 6805   1.540   1.440   6.537 -0.4397  0.5846  1.0855
    7MOL    C74 6806   1.529   1.571   6.604 -0.3291  0.8140  0.2614
    7MOL    C75 6807   1.651   1.660   6.612 -0.1923  0.7572 -0.4477
    7MOL    C76 6808   1.649   1.778   6.717 -0.4681  0.0563  0.1109
    7MOL    C77 6809   1.781   1.831   6.772 -0.1222  0.7085  0.1508
    7MOL    C78 6810   1.826   1.961   6.700 -0.1617 -0.5733 -0.2678
    7MOL    N79 6811   1.729   2.077   6.692  0.0062  1.0286 -0.3095
    7MOL    H80 6812   1.364   0.622   5.743  0.7897  0.8118 -0.6686
    7MOL    H81 6813   1.527   0.612   5.661 -1.6377  2.1646  0.7456
    7MOL    H82 6814   1.478   0.475   5.941  1.9883  0.1110  0.6503
    7MOL    H83 6815   1.610   0.490   5.840 -0.2848 -1.7941  1.6537
    7MOL    H84 6816   1.635   0.649   6.031  1.3257  2.8326 -0.2023
    7MOL    H85 6817   1.493   0.719   5.993  0.6149  2.0726 -1.6954
    7MOL    H86 6818   1.616   0.803   5.770  2.0328 -2.4264 -1.7530
    7MOL    H87 6819   1.743   0.700   5.823  1.0577 -0.0741  1.8691
    7MOL    H88 6820   1.780   0.833   6.012 -0.8694  0.9594  1.0224
    7MOL    H89 6821   1.796   0.922   5.860 -0.9985  0.5307 -0.0598
    7MOL    H90 6822   1.560   0.945   6.046 -1.6791 -1.8186 -2.8639
    7MOL    H91 6823   1.554   1.008   5.881 -0.4201  0.2547 -0.0245
    7MOL    H92 6824   1.755   1.144   5.935 -0.1256 -0.5818 -1.0785
    7MOL    H93 6825   1.764   1.064   6.092 -2.6309 -2.4952  0.8171
    7MOL    H94 6826   1.522   1.243   5.988 -0.6814 -1.6009 -0.6730
    7MOL    H95 6827   1.553   1.183   6.155  3.7662  4.0001  3.4190
    7MOL    H96 6828   1.736   1.369   6.021 -0.7452 -2.5430 -2.5563
    7MOL    H97 6829   1.757   1.305   6.165  1.0408  1.4663 -0.5517
    7MOL    H98 6830   1.637   1.541   6.189 -1.9241  1.0018 -0.4480
    7MOL    H99 6831   1.516   1.478   6.087 -1.5543  1.5105  1.5406
    7MOL   H100 6832   1.670   1.485   6.381 -0.4152  1.3595 -0.6239
    7MOL   H101 6833   1.603   1.370   6.593  1.1428  0.7137 -0.4782
    7MOL   H102 6834   1.439   1.398   6.541 -1.2084  2.4030  0.9340
    7MOL   H103 6835   1.460   1.624   6.539  0.5022 -0.1350 -1.4183
    7MOL   H104 6836   1.493   1.544   6.704 -0.3428  1.4941  0.4362
    7MOL   H105 6837   1.685   1.690   6.513 -0.2699 -1.2037 -1.1000
    7MOL   H106 6838   1.732   1.597   6.650  0.9945  2.5083  0.0076
    7MOL   H107 6839   1.582   1.857   6.682  0.4798 -0.0894 -2.1334
    7MOL   H108 6840   1.595   1.736   6.802  0.8957  0.6812  1.2964
    7MOL   H109 6841   1.853   1.750   6.766 -1.0286 -0.1932  1.2117
    7MOL   H110 6842   1.772   1.846   6.879  0.4090 -0.1343  0.3216
    7MOL   H111 6843   1.843   1.933   6.597  2.6782 -1.0083  0.2877
    7MOL   H112 6844   1.918   1.991   6.750  1.0767 -2.2960 -1.5043
    7MOL   H113 6845   1.662   2.069   6.617 -0.9677 -0.2253  0.6586
    7MOL   C114 6846   1.706   2.168   6.792  0.1742  0.4307  0.3082
    7MOL   O115 6847   1.782   2.184   6.892  0.5027  0.0881 -0.5646
    7MOL   C116 6848   1.598   2.269   6.773  0.2869 -0.5423  0.0508
    7MOL   C117 6849   1.519   2.310   6.905 -0.5585  0.5872  0.2604
    7MOL   C118 6850   1.410   2.211   6.956 -0.7493  0.0391 -0.4861
    7MOL   C119 6851   1.350   2.264   7.081  1.0447 -0.0428 -0.2866
    7MOL   C120 6852   1.209   2.200   7.119 -0.1804 -0.1142  0.5806
    7MOL   C121 6853   1.172   2.208   7.272  0.4272  0.4315  0.2207
    7MOL   C122 6854   1.028   2.157   7.301  0.8768  0.2025 -0.8580
    7MOL   C123 6855   0.988   2.021   7.245 -0.3687 -0.2549  0.1008
    7MOL   C124 6856   1.019   1.911   7.342  1.7139 -1.2471 -0.3446
    7MOL   C125 6857   0.972   1.775   7.285 -0.0129  0.6085 -0.6306
    7MOL   C126 6858   0.974   1.663   7.391 -0.7818  0.9823  0.5081
    7MOL   O127 6859   1.009   1.677   7.508 -0.4722  0.3070  1.0071
    7MOL   N128 6860   0.926   1.540   7.352  0.6910  0.1460  0.0956
    7MOL   C129 6861   0.842   1.508   7.235  0.0790 -0.3033 -0.3014
    7MOL   C130 6862   0.746   1.392   7.268 -0.2241 -0.1484 -0.5738
    7MOL   C131 6863   0.635   1.375   7.161  0.3539  0.1048 -0.0095
    7MOL   C132 6864   0.686   1.347   7.018  0.4673 -0.2235  0.2624
    7MOL   C133 6865   0.580   1.342   6.911 -0.5881 -0.1426 -0.3947
    7MOL   C134 6866   0.637   1.288   6.781  0.6508  0.0486 -0.2003
    7MOL   N135 6867   0.538   1.274   6.679 -0.1220  0.2743  0.1926
    7MOL   H136 6868   1.647   2.349   6.716  0.7953 -0.5780  0.4342
    7MOL   H137 6869   1.529   2.230   6.698  1.2752 -1.7856 -0.2333
    7MOL   H138 6870   1.467   2.405   6.889 -1.8726 -0.6961 -3.4515
    7MOL   H139 6871   1.591   2.329   6.985 -0.0760  0.0156 -0.0360
    7MOL   H140 6872   1.336   2.212   6.876 -0.5482  1.0049 -0.6692
    7MOL   H141 6873   1.459   2.114   6.945 -1.3738 -0.1892 -1.2677
    7MOL   H142 6874   1.421   2.243   7.161  1.3213  4.0188  0.6628
    7MOL   H143 6875   1.335   2.372   7.083 -0.0294 -0.1970  1.3349
    7MOL   H144 6876   1.123   2.237   7.063 -0.5117 -2.7600 -0.6933
    7MOL   H145 6877   1.216   2.099   7.081  1.3622 -0.0937  0.7749
    7MOL   H146 6878   1.174   2.314   7.296  3.1115  0.6911 -0.9509
    7MOL   H147 6879   1.239   2.156   7.340  2.4533  2.1508 -0.4289
    7MOL   H148 6880   0.995   2.167   7.404 -1.3965  0.5725 -1.5829
    7MOL   H149 6881   0.960   2.232   7.262  0.4780  1.1569  1.5974
    7MOL   H150 6882   1.030   1.999   7.147  0.4461  1.5710  0.0134
    7MOL   H151 6883   0.882   2.015   7.220  0.0122  0.3666 -1.7685
    7MOL   H152 6884   0.974   1.938   7.437  2.0453 -1.1628 -0.2099
    7MOL   H153 6885   1.125   1.906   7.366  1.4726  1.1614  1.4200
    7MOL   H154 6886   1.033   1.739   7.203 -1.2208 -1.2653 -0.7534
    7MOL   H155 6887   0.874   1.797   7.241  0.4228 -0.8917 -2.3881
    7MOL   H156 6888   0.940   1.456   7.406 -0.6112 -0.0251  0.1910
    7MOL   H157 6889   0.907   1.476   7.152 -0.3255 -5.0060  1.0338
    7MOL   H158 6890   0.796   1.596   7.191  0.5255  0.4647  0.7480
    7MOL   H159 6891   0.709   1.399   7.370 -0.3753 -0.9950 -0.5683
    7MOL   H160 6892   0.796   1.296   7.279  0.4036  0.3557  1.1017
    7MOL   H161 6893   0.577   1.287   7.190 -1.2716  1.7136  1.7193
    7MOL   H162 6894   0.568   1.459   7.175 -0.4050 -0.5052  0.0684
    7MOL   H163 6895   0.754   1.427   6.989  2.1920 -0.4663  3.3487
    7MOL   H164 6896   0.743   1.253   7.016  1.3125  0.2691  0.6835
    7MOL   H165 6897   0.528   1.437   6.894 -2.5382 -1.1224  0.0475
    7MOL   H166 6898   0.501   1.276   6.945 -0.7993  1.0925  1.6284
    7MOL   H167 6899   0.724   1.347   6.751  1.9579 -0.1392  2.9673
    7MOL   H168 6900   0.675   1.188   6.803 -0.2414 -0.9345 -2.8711
    7MOL   H169 6901   0.448   1.313   6.701  0.8474  1.9684  1.2831
    7MOL   C170 6902   0.568   1.232   6.555 -0.8721  0.7679 -0.0301
    7MOL   O171 6903   0.684   1.218   6.509  0.1850 -0.0832  0.5540
    7MOL   C172 6904   0.448   1.186   6.462 -0.1849  0.2033 -0.4480
    7MOL   C173 6905   0.420   1.280   6.350 -0.1368  0.4763  0.5272
    7MOL   C174 6906   0.533   1.323   6.247 -0.5027 -0.1043 -0.2174
    7MOL   C175 6907   0.482   1.383   6.114  0.4745 -0.9148 -0.1803
    7MOL   C176 6908   0.392   1.509   6.138  0.5763  0.1794 -0.1962
    7MOL   C177 6909   0.367   1.589   6.011  0.9022  0.4660  0.0445
    7MOL   C178 6910   0.296   1.722   6.032 -0.3248  0.3031  0.2601
    7MOL   C179 6911   0.283   1.790   5.896 -0.5298 -0.1061 -0.2905
    7MOL   C180 6912   0.191   1.912   5.881 -0.4638 -0.8521  0.1439
    7MOL   C181 6913   0.189   1.969   5.744  0.2225 -0.2874 -0.5255
    7MOL   C182 6914   0.112   1.880   5.645 -0.0721  0.7047  0.0852
    7MOL   O183 6915   0.170   1.814   5.561 -0.6714 -0.3752 -0.3780
    7MOL   N184 6916   7.670   1.898   5.648  0.1706  0.8124 -0.5174
    7MOL   C185 6917   7.571   1.842   5.559 -0.3505 -0.0366 -0.6664
    7MOL   C186 6918   7.495   1.730   5.628  0.0167 -0.0631 -0.1739
    7MOL   C187 6919   7.392   1.658   5.544  0.2998  0.2951 -0.2563
    7MOL   C188 6920   7.372   1.515   5.615  0.3761 -0.2234  0.1089
    7MOL   C189 6921   7.288   1.414   5.530  0.9893 -0.4178 -0.3787
    7MOL   C190 6922   7.210   1.318   5.609  0.1642 -0.1461 -0.1886
    7MOL   N191 6923   7.301   1.232   5.689  0.4659 -0.1209 -0.8072
    7MOL   H192 6924   0.484   1.096   6.412  0.8080 -0.1242  0.8404
    7MOL   H193 6925   0.354   1.170   6.515  1.0587 -1.6748  1.2555
    7MOL   H194 6926   0.373   1.366   6.399 -0.3869 -0.5471  2.1244
    7MOL   H195 6927   0.332   1.242   6.299  0.0991 -2.2953  2.1122
    7MOL   H196 6928   0.605   1.245   6.223  0.0788  0.5289 -0.5357
    7MOL   H197 6929   0.594   1.404   6.287 -0.3350 -0.4344  0.2049
    7MOL   H198 6930   0.570   1.394   6.049  0.2352  2.4542 -0.0275
    7MOL   H199 6931   0.415   1.311   6.068 -1.5098  0.8137 -0.0702
    7MOL   H200 6932   0.295   1.478   6.178  1.0927  0.5034  1.3490
    7MOL   H201 6933   0.440   1.582   6.202 -0.2789  1.0678 -0.5600
    7MOL   H202 6934   0.304   1.524   5.950 -0.6998 -0.4060  2.5312
    7MOL   H203 6935   0.453   1.606   5.947  1.7632  0.9290  1.3260
    7MOL   H204 6936   0.194   1.704   6.067 -1.3519 -0.1585 -2.8347
    7MOL   H205 6937   0.340   1.790   6.105  2.2146 -1.1535  0.1190
    7MOL   H206 6938   0.383   1.822   5.867 -0.8087  0.3515 -0.7664
    7MOL   H207 6939   0.233   1.723   5.826 -0.2448  0.3353 -0.9169
    7MOL   H208 6940   0.233   1.996   5.936 -1.0884 -1.7909  2.1177
    7MOL   H209 6941   0.093   1.902   5.927 -1.7279 -2.0735 -2.6815
    7MOL   H210 6942   0.153   2.072   5.742  3.3947  0.8668 -0.5077
    7MOL   H211 6943   0.292   1.976   5.710  0.2962 -3.5543 -1.1247
    7MOL   H212 6944   7.633   1.946   5.729  0.7214  1.0759 -0.4154
    7MOL   H213 6945   7.608   1.807   5.463  1.3412  0.1454 -0.1002
    7MOL   H214 6946   7.510   1.928   5.533 -0.7865 -0.2140 -0.2422
    7MOL   H215 6947   7.577   1.659   5.642  1.6128  2.0333  1.3739
    7MOL   H216 6948   7.459   1.753   5.728  1.0112 -0.0445  0.1892
    7MOL   H217 6949   7.298   1.713   5.539  0.7476  1.0051 -1.0302
    7MOL   H218 6950   7.427   1.649   5.441  0.2913 -0.0351 -0.2292
    7MOL   H219 6951   7.321   1.536   5.709 -3.1808  1.0389 -2.0017
    7MOL   H220 6952   7.463   1.460   5.638  0.2684 -1.7736 -2.9305
    7MOL   H221 6953   7.350   1.367   5.454  1.4036 -0.9925  0.3074
    7MOL   H222 6954   7.213   1.468   5.472  0.9124 -0.4066 -0.2689
    7MOL   H223 6955   7.147   1.253   5.549  1.0971 -1.4770  0.2449
    7MOL   H224 6956   7.134   1.371   5.666 -0.6438 -1.2919 -0.1869
    7MOL   H225 6957   7.363   1.175   5.633  0.0795 -1.9115  0.5590
    7MOL   C226 6958   7.303   1.219   5.821  0.5626  0.0817 -0.8421
    7MOL   O227 6959   7.213   1.275   5.886 -0.1086 -0.2101 -0.8042
    7MOL   C228 6960   7.413   1.132   5.872 -0.5429  0.1466  0.2864
    7MOL   C229 6961   7.381   0.981   5.843  0.3459 -0.2206  0.5034
    7MOL   C230 6962   7.484   0.890   5.903  0.3218  0.4373 -0.4522
    7MOL   C231 6963   7.427   0.746   5.921 -0.2850 -0.6540  0.4611
    7MOL   C232 6964   7.540   0.653   5.970 -0.4274  0.5597 -0.5061
    7MOL   C233 6965   7.504   0.507   5.964  0.5021 -0.7975  0.0037
    7MOL   C234 6966   7.628   0.415   5.963  0.3390  0.1317  0.6777
    7MOL   C235 6967   7.590   0.262   5.967  0.1459 -0.7690 -0.3491
    7MOL   C236 6968   0.002   0.162   6.024  0.5725 -0.3578  0.4449
    7MOL   C237 6969   7.644   0.024   6.041 -0.4032 -0.0849  0.3202
    7MOL   C238 6970   0.070   7.629   6.089 -0.4082  0.5997  0.5501
    7MOL   O239 6971   0.138   7.579   6.000 -0.3275 -0.0963  0.7878
    7MOL   N240 6972   0.091   7.613   6.221  0.3457  0.8231  0.1563
    7MOL   C241 6973   0.190   7.516   6.271  0.2529  0.8111 -0.0413
    7MOL   C242 6974   0.176   7.499   6.426  0.6658  0.0820  0.2052
    7MOL   C243 6975   0.249   7.366   6.472  0.2922 -0.0875  1.0606
    7MOL   C244 6976   0.292   7.367   6.617 -0.3371 -0.3234  0.1884
    7MOL   C245 6977   0.177   7.390   6.715  0.7099 -0.5431 -0.3010
    7MOL   C246 6978   0.043   7.306   6.712  0.3523 -0.0065  0.0891
    7MOL   N247 6979   0.064   7.162   6.740 -0.5434 -0.3431 -0.0057
    7MOL   H248 6980   7.420   1.164   5.976 -0.2868  1.9761 -0.2887
    7MOL   H249 6981   7.503   1.168   5.823 -0.2294  0.0179  0.7595
    7MOL   H250 6982   7.282   0.968   5.888 -0.1162 -0.8942 -0.6862
    7MOL   H251 6983   7.376   0.970   5.735  0.2592  1.4491  0.3291
    7MOL   H252 6984   7.567   0.891   5.833 -0.1835  1.2639 -1.0509
    7MOL   H253 6985   7.523   0.926   5.998 -1.7927  1.1524  0.1889
    7MOL   H254 6986   7.380   0.717   5.827 -2.5421 -0.3300  1.4558
    7MOL   H255 6987   7.352   0.759   5.999 -1.5377 -0.5287 -0.7363
    7MOL   H256 6988   7.573   0.685   6.069 -0.8490  2.1606 -0.8577
    7MOL   H257 6989   7.631   0.669   5.911  1.6040 -3.2786  1.4236
    7MOL   H258 6990   7.431   0.488   6.043  0.2530  0.7015  0.1382
    7MOL   H259 6991   7.450   0.486   5.872  1.2321  0.0735 -0.6269
    7MOL   H260 6992   7.677   0.434   6.059 -0.3109 -0.6900  1.1846
    7MOL   H261 6993   0.011   0.433   5.886  0.1580  0.7009  0.6345
    7MOL   H262 6994   7.491   0.247   6.011  0.5683 -0.5975  0.6683
    7MOL   H263 6995   7.561   0.239   5.865 -0.4396 -1.2706 -0.0700
    7MOL   H264 6996   0.078   0.164   5.946 -1.5536 -0.7842 -1.6818
    7MOL   H265 6997   0.045   0.199   6.117 -1.3370 -0.8513  1.5534
    7MOL   H266 6998   7.556   0.016   6.103 -1.2708 -0.5523 -0.9512
    7MOL   H267 6999   7.598   7.682   5.948  1.1845 -1.8064  0.1314
    7MOL   H268 7000   0.025   7.651   6.288 -1.2657  0.8490 -1.4120
    7MOL   H269 7001   0.294   7.542   6.254  0.8776  0.0477  2.3724
    7MOL   H270 7002   0.183   7.420   6.220 -1.2766  0.1804  1.2915
    7MOL   H271 7003   0.079   7.514   6.474  1.6966  1.6102  1.8502
    7MOL   H272 7004   0.239   7.579   6.464  0.6018 -0.0814  0.6504
    7MOL   H273 7005   0.190   7.276   6.451  1.6751 -0.6659 -0.5206
    7MOL   H274 7006   0.340   7.349   6.415 -0.6456 -0.7694 -0.2777
    7MOL   H275 7007   0.380   7.432   6.626 -0.8628  0.6331 -1.4490
    7MOL   H276 7008   0.327   7.267   6.640 -0.3446 -0.3881 -0.0811
    7MOL   H277 7009   0.151   7.496   6.714 -0.1041 -0.7517 -2.4382
    7MOL   H278 7010   0.215   7.373   6.816 -1.7030  2.7718  1.2817
    7MOL   H279 7011   7.690   7.331   6.616 -0.3508  0.6969  0.5893
    7MOL   H280 7012   7.667   7.342   6.790 -0.2477 -1.5551  0.3032
    7MOL   H281 7013   0.127   7.116   6.676  1.6919 -1.1067  2.6583
    7MOL   C282 7014   0.013   7.092   6.840 -0.6411  0.4542  0.0572
    7MOL   O283 7015   7.624   7.138   6.919  0.0183 -0.1066 -0.0636
    7MOL   C284 7016   0.047   6.944   6.846 -0.4150 -0.8496  0.9366
    7MOL   C285 7017   7.682   6.858   6.961 -0.0547  0.0242  0.2309
    7MOL   C286 7018   0.047   6.718   6.940  1.1382  0.1472 -0.8302
    7MOL   C287 7019   0.072   6.639   7.062  0.1324 -0.6529 -0.1878
    7MOL   C288 7020   7.634   6.614   7.144  0.1269 -1.0051  0.3501
    7MOL   C289 7021   7.658   6.552   7.280 -0.5615  0.6933 -0.4493
    7MOL   C290 7022   7.531   6.524   7.356 -0.5857  0.1021  0.2927
    7MOL   C291 7023   7.435   6.637   7.383 -0.2343 -0.3337  0.1449
    7MOL   C292 7024   7.328   6.598   7.489  0.3368 -0.0948  0.7396
    7MOL   C293 7025   7.228   6.715   7.524  0.0581 -0.0345  0.1350
    7MOL   C294 7026   7.266   6.829   7.612  0.3231 -0.3155 -0.0273
    7MOL   O295 7027   7.378   6.884   7.604 -0.2778 -0.3354 -0.3204
    7MOL   N296 7028   7.169   6.887   7.681 -0.0941  0.1607 -0.4106
    7MOL   C297 7029   7.197   7.018   0.054 -0.1880 -0.5820 -0.0168
    7MOL   C298 7030   7.080   7.064   0.148 -0.1917 -0.6393  0.5940
    7MOL   C299 7031   7.120   7.183   0.236  0.3823  0.4989 -0.3453
    7MOL   C300 7032   7.011   7.256   0.323  0.8966  0.8631  0.6342
    7MOL   C301 7033   6.989   7.198   0.464  0.5649 -0.6210 -0.3552
    7MOL   C302 7034   6.899   7.068   0.459 -0.2374  0.3323  0.6191
    7MOL   N303 7035   6.888   6.999   0.587  0.2395 -0.0970  0.0361
    7MOL   H304 7036   0.012   6.899   6.753  1.1831 -0.9501  0.3577
    7MOL   H305 7037   0.153   6.934   6.871 -0.2028  2.1309  1.4027
    7MOL   H306 7038   7.574   6.851   6.949  0.1761 -1.5245 -1.1469
    7MOL   H307 7039   0.009   6.912   7.054 -0.9854 -0.7010  0.8404
    7MOL   H308 7040   7.664   6.665   6.880 -0.7867 -0.7809  2.2599
    7MOL   H309 7041   0.138   6.717   6.881  1.2007  0.1056 -0.7321
    7MOL   H310 7042   0.162   6.673   7.112 -1.3610  0.2534  1.9253
    7MOL   H311 7043   0.099   6.535   7.044  0.1673 -1.0893  2.2692
    7MOL   H312 7044   7.595   6.713   7.166 -0.0155 -0.7020 -1.1919
    7MOL   H313 7045   7.566   6.552   7.085  0.1154 -0.6409 -0.0207
    7MOL   H314 7046   0.015   6.455   7.271  0.9360  1.4669 -0.8425
    7MOL   H315 7047   0.036   6.611   7.340 -0.0142  0.6594 -1.0458
    7MOL   H316 7048   7.551   6.489   7.457  0.7997 -3.2086 -1.0792
    7MOL   H317 7049   7.471   6.450   7.303 -0.7386 -0.4192  1.1892
    7MOL   H318 7050   7.388   6.663   7.288  1.9565 -0.7111 -1.0824
    7MOL   H319 7051   7.480   6.732   7.413 -2.4298  0.1802  1.9729
    7MOL   H320 7052   7.277   6.507   7.457 -0.9316  0.8542  0.0118
    7MOL   H321 7053   7.376   6.562   7.580 -2.8098 -3.1079  1.2873
    7MOL   H322 7054   7.199   6.766   7.432  2.0563 -0.1391 -0.5689
    7MOL   H323 7055   7.137   6.675   7.568  0.4959  1.2575  2.2613
    7MOL   H324 7056   7.078   6.850   7.659 -0.9285  2.1157 -0.3192
    7MOL   H325 7057   7.216   7.103   7.681 -0.1001 -0.6576 -0.0900
    7MOL   H326 7058   7.285   7.013   0.119  1.2720  0.9292 -1.8412
    7MOL   H327 7059   7.045   6.989   0.219  0.4866 -1.6211 -0.1094
    7MOL   H328 7060   7.002   7.105   0.084  1.2001 -2.2958 -2.2409
    7MOL   H329 7061   7.142   7.262   0.165 -2.0252  2.5983  1.1579
    7MOL   H330 7062   7.209   7.152   0.291  0.3417 -3.1219 -2.1725
    7MOL   H331 7063   7.051   7.357   0.333 -1.0089  1.7083  0.0034
    7MOL   H332 7064   6.921   7.273   0.263  1.2095  2.7893  0.6628
    7MOL   H333 7065   6.951   7.271   0.535 -1.0461 -0.6954 -1.1270
    7MOL   H334 7066   7.079   7.163   0.515  0.8246 -0.0773 -0.4501
    7MOL   H335 7067   6.804   7.100   0.416 -0.0666 -0.9158 -0.7378
    7MOL   H336 7068   6.940   6.992   0.392 -0.3698  1.4085 -0.6957
    7MOL   H337 7069   6.802   7.028   0.631 -1.4674 -2.0894 -1.8501
    7MOL   C338 7070   6.981   6.921   0.648 -0.5848 -1.0185 -0.6642
    7MOL   O339 7071   7.084   6.884   0.587  0.2908  0.0425  0.0071
    7MOL   C340 7072   6.947   6.884   0.793  0.1011  0.0965  0.0774
    7MOL   C341 7073   7.066   6.861   0.884 -0.6529  0.5231 -0.5466
    7MOL   C342 7074   7.148   6.985   0.921  0.6082 -0.1163  1.2980
    7MOL   C343 7075   7.272   6.962   1.006  0.2535  0.8264  0.0619
    7MOL   C344 7076   7.397   6.934   0.919 -0.0415  0.4406 -0.1410
    7MOL   C345 7077   7.504   6.853   1.001  0.1703 -0.2078 -0.2576
    7MOL   C346 7078   7.458   6.701   1.024  0.1913  0.0278 -0.3205
    7MOL   C347 7079   7.568   6.610   1.030 -0.2554 -0.7195  0.2447
    7MOL   C348 7080   7.541   6.470   1.092 -0.6236 -0.2343 -0.8802
    7MOL   C349 7081   7.657   6.365   1.091 -0.8629  0.0923  0.0851
    7MOL   C350 7082   7.685   6.313   0.950 -0.3725 -0.9498 -0.4887
    7MOL   O351 7083   7.616   6.222   0.912 -0.1365  0.7989 -0.3074
    7MOL   N352 7084   0.091   6.364   0.880  0.1432 -0.1291 -0.4346
    7MOL   C353 7085   0.126   6.326   0.746 -0.1920  0.1578 -0.1730
    7MOL   C354 7086   0.083   6.441   0.652 -0.1877  0.5242 -0.4135
    7MOL   C355 7087   7.621   6.451   0.632  0.2708 -0.8449  0.5473
    7MOL   C356 7088   7.581   6.591   0.578 -0.1937 -0.1563  0.4698
    7MOL   C357 7089   7.429   6.593   0.526  0.0400 -0.3795  0.0406
    7MOL   C358 7090   7.408   6.724   0.437 -0.4211  0.2563 -0.1890
    7MOL   N359 7091   7.269   6.725   0.393 -0.0726  0.6316 -0.4745
    7MOL   H360 7092   6.894   6.793   0.764  2.3487 -0.4084 -2.6072
    7MOL   H361 7093   6.877   6.959   0.831 -0.2875  0.5796 -1.5465
    7MOL   H362 7094   7.023   6.832   0.980 -3.2530  0.9048 -1.5596
    7MOL   H363 7095   7.136   6.789   0.842 -0.9412  0.1120 -0.3252
    7MOL   H364 7096   7.074   7.039   0.980 -1.1770 -0.8262 -0.2169
    7MOL   H365 7097   7.173   7.053   0.839  0.2941  0.7328  1.8933
    7MOL   H366 7098   7.289   7.056   1.059 -2.7043  2.0331 -0.9915
    7MOL   H367 7099   7.259   6.882   1.078  0.9437 -1.6667 -2.5240
    7MOL   H368 7100   7.383   6.880   0.826 -0.0215  0.6741 -0.2783
    7MOL   H369 7101   7.444   7.029   0.895 -1.5750  1.3485  0.4149
    7MOL   H370 7102   7.597   6.847   0.945  1.0724 -1.6897  1.3497
    7MOL   H371 7103   7.529   6.906   1.093  0.9713  0.2640 -0.7466
    7MOL   H372 7104   7.385   6.699   1.105  1.3611  0.5189  0.7534
    7MOL   H373 7105   7.404   6.670   0.935  0.1815  3.3097 -1.5115
    7MOL   H374 7106   7.612   6.618   0.931  0.9401  0.0792  0.8337
    7MOL   H375 7107   7.648   6.649   1.093 -0.7348 -0.7668  0.8888
    7MOL   H376 7108   7.457   6.417   1.045 -0.5984  0.9635 -2.3161
    7MOL   H377 7109   7.519   6.479   1.198  0.0840 -0.0059 -0.7483
    7MOL   H378 7110   0.047   6.435   1.111 -0.4534 -0.5829  0.8290
    7MOL   H379 7111   7.644   6.290   1.169 -0.3664 -0.9901 -0.8619
    7MOL   H380 7112   0.150   6.437   0.918  0.6935 -0.1292 -1.2787
    7MOL   H381 7113   0.093   6.230   0.707 -1.2081  0.0829  0.8553
    7MOL   H382 7114   0.235   6.322   0.745 -0.1347  0.4182  2.3301
    7MOL   H383 7115   0.141   6.432   0.561  1.5361 -0.8072  0.7696
    7MOL   H384 7116   0.119   6.533   0.697 -0.3217  1.3208 -1.9182
    7MOL   H385 7117   7.564   6.375   0.577 -1.1866  0.8976 -0.3886
    7MOL   H386 7118   7.571   6.453   0.729 -1.8443 -0.2573 -0.5224
    7MOL   H387 7119   7.593   6.675   0.646 -2.1803  0.2163  0.3820
    7MOL   H388 7120   7.645   6.620   0.495 -1.6448 -1.1512 -1.0492
    7MOL   H389 7121   7.369   6.583   0.616 -0.0421 -1.8902 -0.1801
    7MOL   H390 7122   7.425   6.508   0.457  1.6606  1.1340 -2.0168
    7MOL   H391 7123   7.420   6.807   0.506  3.0146 -1.3354  1.2536
    7MOL   H392 7124   7.479   6.734   0.355 -0.3100  1.2636  0.0321
    7MOL   H393 7125   7.211   6.791   0.442  0.6822  0.9054  0.0766
    7MOL   C394 7126   7.207   6.638   0.310 -0.4490 -0.8045 -0.1247
    7MOL   O395 7127   7.269   6.541   0.265  0.9552  1.0215  0.0088
    7MOL   C396 7128   7.056   6.658   0.298  0.4121  0.1978 -0.2126
    7MOL   C397 7129   6.966   6.528   0.324 -0.5222 -0.7572 -0.0779
    7MOL   C398 7130   6.897   6.515   0.461  0.2843 -0.1727 -0.0935
    7MOL   C399 7131   6.993   6.504   0.580 -0.0991 -0.4368 -0.1921
    7MOL   C400 7132   6.922   6.473   0.713  0.3600 -0.1837 -0.7425
    7MOL   C401 7133   7.040   6.484   0.819  0.1313 -0.1607  0.3573
    7MOL   C402 7134   7.006   6.422   0.955 -0.4864  0.1622 -0.1610
    7MOL   C403 7135   7.113   6.435   1.057 -0.1331 -0.2746 -0.0614
    7MOL   C404 7136   7.110   6.326   1.167 -0.2170 -0.5333  0.3433
    7MOL   C405 7137   7.236   6.321   1.250  0.1239 -0.1025 -0.0720
    7MOL   C406 7138   7.211   6.261   1.389  0.5592 -0.2732  0.0895
    7MOL   O407 7139   7.133   6.168   1.410  0.7819  0.5479 -0.5214
    7MOL   N408 7140   7.288   6.308   1.485 -0.3314 -0.1523 -0.1388
    7MOL   C409 7141   7.273   6.275   1.630 -0.2272 -0.7963 -0.0866
    7MOL   C410 7142   7.318   6.132   1.670  0.6458 -0.2803 -0.0183
    7MOL   C411 7143   7.465   6.124   1.667 -0.5459  0.1482 -0.6958
    7MOL   C412 7144   7.519   5.997   1.727  0.4646 -0.2027  0.0016
    7MOL   C413 7145   7.666   5.995   1.770  1.0359 -0.7151  0.5543
    7MOL   C414 7146   0.001   5.887   1.887 -0.1735 -0.5628  0.4887
    7MOL   N415 7147   7.627   5.922   2.014 -0.4719 -0.5571  0.4268
    7MOL   H416 7148   7.032   6.691   0.197  1.2266 -0.3757 -0.5960
    7MOL   H417 7149   7.015   6.745   0.350 -0.2040  0.8093 -1.6851
    7MOL   H418 7150   7.024   6.440   0.297  1.6675  0.2120  1.3560
    7MOL   H419 7151   6.892   6.517   0.245 -2.3425  1.1499  1.3015
    7MOL   H420 7152   6.827   6.432   0.451 -0.2444  0.2862 -0.2180
    7MOL   H421 7153   6.827   6.596   0.479 -1.0243 -1.1573 -0.7197
    7MOL   H422 7154   7.040   6.602   0.587 -2.2960  0.7748 -1.5842
    7MOL   H423 7155   7.070   6.428   0.567 -0.4819 -0.9664  0.5734
    7MOL   H424 7156   6.843   6.545   0.731 -1.0834 -0.9254 -3.7279
    7MOL   H425 7157   6.881   6.372   0.717  0.6933 -0.3030 -0.2415
    7MOL   H426 7158   7.131   6.444   0.774  0.0961  0.6622 -0.4450
    7MOL   H427 7159   7.056   6.592   0.820 -1.8910  0.1547 -0.0306
    7MOL   H428 7160   6.912   6.458   0.996 -1.1001 -1.7201  0.1108
    7MOL   H429 7161   6.989   6.316   0.942 -1.9458  0.3369  0.2674
    7MOL   H430 7162   7.209   6.425   1.005  1.1979  0.5500  2.1727
    7MOL   H431 7163   7.105   6.537   1.092  1.8716 -0.1714  0.1382
    7MOL   H432 7164   7.094   6.234   1.110 -1.7901  0.2121 -0.4660
    7MOL   H433 7165   7.029   6.344   1.238  0.3541 -1.2461  1.1869
    7MOL   H434 7166   7.308   6.259   1.197 -1.3559 -2.0438  0.1415
    7MOL   H435 7167   7.282   6.419   1.265 -1.5339  0.9781 -1.7236
    7MOL   H436 7168   7.348   6.387   1.464 -1.8231  0.5145 -2.0982
    7MOL   H437 7169   7.165   6.282   1.642 -0.7352  4.0506 -5.5096
    7MOL   H438 7170   7.310   6.352   1.698  2.2990 -1.4388 -0.6556
    7MOL   H439 7171   7.285   6.059   1.597 -0.1074 -0.2041  0.2349
    7MOL   H440 7172   7.267   6.114   1.765 -0.3912  1.5822 -0.1837
    7MOL   H441 7173   7.505   6.136   1.566 -1.1486  1.3458 -0.7937
    7MOL   H442 7174   7.506   6.204   1.728  2.8523 -1.8321 -0.2224
    7MOL   H443 7175   7.454   5.980   1.813 -0.4917  0.5935 -0.5615
    7MOL   H444 7176   7.497   5.912   1.662  3.2965 -1.9414  1.1951
    7MOL   H445 7177   0.032   5.963   1.683  2.2323 -0.1106  1.1146
    7MOL   H446 7178   0.004   6.097   1.792 -1.4441 -0.0659  1.0590
    7MOL   H447 7179   7.677   5.785   1.853 -1.9165  0.3315 -1.5139
    7MOL   H448 7180   0.109   5.891   1.896 -0.0042 -0.4165 -1.3916
    7MOL   H449 7181   7.582   6.012   2.008 -0.7677 -0.7895 -1.1946
    7MOL   C450 7182   7.605   5.856   2.124 -0.2346  0.5956 -0.4345
    7MOL   O451 7183   7.634   5.739   2.133 -0.4554 -0.9424  0.2406
    7MOL   C452 7184   7.557   5.922   2.255  0.5557 -0.5286 -0.2215
    7MOL   C453 7185   7.433   5.841   2.315 -0.1907  0.5914 -0.2383
    7MOL   C454 7186   7.303   5.876   2.252 -0.1168 -0.0535 -0.7048
    7MOL   C455 7187   7.261   6.020   2.259  0.3090  0.6265  0.3790
    7MOL   C456 7188   7.116   6.050   2.201  0.1730 -0.3595 -0.1474
    7MOL   C457 7189   7.081   6.199   2.163 -0.6045 -0.7772 -0.9291
    7MOL   C458 7190   6.933   6.214   2.128 -0.5173 -0.7234 -0.2745
    7MOL   C459 7191   6.884   6.360   2.103  0.1844  0.0080 -0.3116
    7MOL   C460 7192   6.953   6.434   1.990 -1.1323  0.1920  0.2193
    7MOL   C461 7193   6.933   6.368   1.851 -0.0703  0.2743 -0.1330
    7MOL   C462 7194   6.959   6.454   1.731 -0.5037 -0.0539 -0.2735
    7MOL   O463 7195   7.053   6.539   1.735 -0.2734 -0.0062  0.0378
    7MOL   N464 7196   6.880   6.434   1.630  0.1149 -0.6809 -0.3168
    7MOL   C465 7197   6.891   6.500   1.500 -0.1481 -0.6348 -0.3298
    7MOL   C466 7198   6.760   6.484   1.424 -0.1749  0.1154  0.1397
    7MOL   C467 7199   6.775   6.550   1.277  0.0640  0.3056  0.3771
    7MOL   C468 7200   6.642   6.549   1.198 -0.4826  0.0872 -0.3364
    7MOL   C469 7201   6.564   6.423   1.220  0.2370 -0.8847 -0.6684
    7MOL   C470 7202   6.447   6.395   1.123  0.1810 -0.1507 -0.0596
    7MOL   N471 7203   6.352   6.505   1.119  0.5242  0.1542  0.4550
    7MOL   H472 7204   7.633   5.942   2.330 -0.7661 -0.0673  1.0101
    7MOL   H473 7205   7.532   6.026   2.235 -3.5567 -1.3118  0.3385
    7MOL   H474 7206   7.433   5.870   2.420  1.4706  0.9469 -0.3226
    7MOL   H475 7207   7.469   5.738   2.321 -1.7482  0.1295  1.4178
    7MOL   H476 7208   7.225   5.818   2.301  0.5234 -0.3641 -0.0478
    7MOL   H477 7209   7.312   5.842   2.149  1.4062 -0.8481 -0.3164
    7MOL   H478 7210   7.336   6.085   2.213 -1.1564  2.6196  0.6944
    7MOL   H479 7211   7.254   6.052   2.363  0.2928  0.8554  0.3088
    7MOL   H480 7212   7.045   6.011   2.275  1.1136  0.0072  0.9601
    7MOL   H481 7213   7.103   5.985   2.114  2.2685 -1.0902  0.0700
    7MOL   H482 7214   7.132   6.225   2.070 -0.8351 -2.2163 -1.4657
    7MOL   H483 7215   7.104   6.283   2.229  0.3542  0.2583 -2.5533
    7MOL   H484 7216   6.907   6.153   2.042  0.5024 -1.2487 -0.2194
    7MOL   H485 7217   6.874   6.175   2.211  0.8874  0.0844  1.1355
    7MOL   H486 7218   6.775   6.359   2.096  0.1850 -0.2644 -0.3010
    7MOL   H487 7219   6.903   6.423   2.190 -0.0221  0.4166 -0.5608
    7MOL   H488 7220   7.056   6.460   2.014 -0.2612 -3.3067  0.4531
    7MOL   H489 7221   6.910   6.535   1.993  1.8546  1.5168 -0.2404
    7MOL   H490 7222   6.998   6.281   1.843 -2.6950 -1.8671  0.8966
    7MOL   H491 7223   6.836   6.319   1.849 -0.1386  0.3805  0.4880
    7MOL   H492 7224   6.828   6.347   1.635 -0.2405 -0.3569  3.4603
    7MOL   H493 7225   6.985   6.460   1.463  1.0065 -0.4966  2.3236
    7MOL   H494 7226   6.912   6.603   1.527 -0.0472 -0.6777 -0.2450
    7MOL   H495 7227   6.744   6.377   1.422 -0.7437  0.1536  1.9519
    7MOL   H496 7228   6.671   6.513   1.480 -2.6425 -1.7156 -2.6946
    7MOL   H497 7229   6.849   6.496   1.219  0.4414  0.0861  1.0626
    7MOL   H498 7230   6.801   6.654   1.295 -1.1148  0.8096 -0.7047
    7MOL   H499 7231   6.670   6.550   1.092 -0.4902 -0.4089 -0.3434
    7MOL   H500 7232   6.586   6.640   1.218 -1.0523  0.1578 -2.1771
    7MOL   H501 7233   6.637   6.343   1.206  1.4901  0.1217  0.0106
    7MOL   H502 7234   6.524   6.418   1.322 -1.0133 -0.7929 -1.1423
    7MOL   H503 7235   6.491   6.375   1.025 -0.0343 -1.4595  0.0965
    7MOL   H504 7236   6.398   6.303   1.156  0.6571  0.1556  1.5443
    7MOL   H505 7237   6.372   6.570   1.045  0.0315  1.8208  1.7538
    7MOL   C506 7238   6.244   6.511   1.203 -0.6132  0.2926  0.0179
    7MOL   O507 7239   6.215   6.415   1.274  0.8892  0.1717 -0.4681
    7MOL   C508 7240   6.162   6.637   1.186  0.8526  0.3580  0.2470
    7MOL   C509 7241   6.206   6.734   1.296  0.0755 -0.2101 -0.4500
    7MOL   C510 7242   6.147   6.875   1.285  0.3431 -0.5487 -0.3307
    7MOL   C511 7243   6.147   6.942   1.420 -0.5343 -0.4620 -0.0813
    7MOL   C512 7244   6.119   7.096   1.407  0.5419  0.2876  0.2323
    7MOL   C513 7245   5.978   7.146   1.390  0.3301  0.4147  0.4645
    7MOL   C514 7246   5.976   7.301   1.372 -0.5014 -0.0150 -0.3979
    7MOL   C515 7247   5.841   7.360   1.404  0.0941 -0.5246 -0.2046
    7MOL   C516 7248   5.830   7.507   1.374 -0.4871 -0.1677  0.3090
    7MOL   C517 7249   5.684   7.557   1.377 -0.0335  0.3381  1.0630
    7MOL   C518 7250   5.671   0.016   1.372  0.3883 -0.4249  0.1957
    7MOL   O519 7251   5.747   0.080   1.297 -0.0038 -0.5701  0.0653
    7MOL   N520 7252   5.578   0.069   1.451 -0.6433  0.9931 -0.2582
    7MOL   C521 7253   5.555   0.215   1.463 -0.0515  0.4038  0.7070
    7MOL   C522 7254   5.430   0.236   1.553  0.0533  0.5251 -0.2614
    7MOL   C523 7255   5.462   0.211   1.702 -0.5681 -0.2475 -0.6186
    7MOL   C524 7256   5.540   0.326   1.769 -0.0251  0.4378 -0.0524
    7MOL   C525 7257   5.677   0.281   1.808  0.3970  0.6528 -0.1107
    7MOL   C526 7258   5.757   0.400   1.861 -0.5501 -1.1665 -0.2460
    7MOL   N527 7259   5.888   0.355   1.904  0.0988 -0.5047 -0.1054
    7MOL   H528 7260   6.056   6.617   1.201  0.2996  2.2181 -1.0569
    7MOL   H529 7261   6.170   6.698   1.096  1.1601 -1.4047 -0.9402
    7MOL   H530 7262   6.312   6.757   1.303 -0.1157  0.9868 -1.2076
    7MOL   H531 7263   6.186   6.697   1.396  2.1151 -0.9921 -0.3081
    7MOL   H532 7264   6.044   6.870   1.251 -1.0615  0.5238  3.5046
    7MOL   H533 7265   6.203   6.923   1.205  3.2376  1.7039  2.8783
    7MOL   H534 7266   6.081   6.891   1.489 -2.8324 -0.2467 -2.0289
    7MOL   H535 7267   6.249   6.938   1.459 -0.1500  0.4032 -0.9528
    7MOL   H536 7268   6.160   7.155   1.489  1.4792  1.0351 -0.7479
    7MOL   H537 7269   6.177   7.124   1.319 -0.0767 -0.6035 -0.4669
    7MOL   H538 7270   5.942   7.105   1.296  0.5218  1.7039 -0.1811
    7MOL   H539 7271   5.911   7.099   1.462  0.8037 -0.3235  0.4207
    7MOL   H540 7272   6.046   7.352   1.438  0.2011 -3.8741  1.9707
    7MOL   H541 7273   6.007   7.334   1.273  1.3729  1.2877  0.5863
    7MOL   H542 7274   5.771   7.298   1.348  0.5155 -0.3991 -0.8690
    7MOL   H543 7275   5.811   7.344   1.508  1.5986  1.8673  0.6429
    7MOL   H544 7276   5.872   7.521   1.275  0.8555 -1.0251  0.7350
    7MOL   H545 7277   5.907   7.551   1.438  1.1161 -1.8875 -0.3931
    7MOL   H546 7278   5.634   7.529   1.284 -1.9958  3.6205  1.0558
    7MOL   H547 7279   5.632   7.523   1.467  0.1629  0.5806  1.2681
    7MOL   H548 7280   5.515   0.010   1.503 -1.2867  0.7536 -1.2831
    7MOL   H549 7281   5.543   0.254   1.362 -2.3617 -0.5469  0.5826
    7MOL   H550 7282   5.644   0.268   1.497  1.0104 -0.9901  0.1603
    7MOL   H551 7283   5.349   0.170   1.521 -0.7590  1.3133  0.1747
    7MOL   H552 7284   5.397   0.338   1.534  1.0164  1.0818  0.9794
    7MOL   H553 7285   5.516   0.119   1.725 -1.4406  0.6020  5.4705
    7MOL   H554 7286   5.372   0.187   1.758 -0.0595 -1.6083 -0.3852
    7MOL   H555 7287   5.484   0.369   1.853 -1.0420 -2.3339  0.7677
    7MOL   H556 7288   5.539   0.407   1.696 -1.7674 -0.9561 -1.6336
    7MOL   H557 7289   5.673   0.208   1.888 -2.4298  0.7316 -0.1052
    7MOL   H558 7290   5.724   0.236   1.721  1.7323  0.8166  0.5198
    7MOL   H559 7291   5.769   0.476   1.783 -0.6319  0.6690  1.4815
    7MOL   H560 7292   5.699   0.465   1.927  1.6185  0.1599  0.4288
    7MOL   H561 7293   5.956   0.396   1.841 -1.1216 -1.2254 -1.9283
    7MOL   C562 7294   5.923   0.282   2.011 -0.0991 -0.0986 -0.5252
    7MOL   O563 7295   5.838   0.248   2.097  0.4029 -0.2997 -0.1971
    7MOL   C564 7296   6.070   0.259   2.028 -0.1028  0.0045 -0.2909
    7MOL   C565 7297   6.113   0.114   2.052 -0.2468 -0.0439 -0.4659
    7MOL   C566 7298   6.070   0.009   1.946  0.8005  0.0170  0.3513
    7MOL   C567 7299   6.078   7.557   1.988  0.5236 -0.6989  0.5455
    7MOL   C568 7300   6.073   7.469   1.860 -0.3679  0.8664  0.3016
    7MOL   C569 7301   6.055   7.324   1.900  0.4690  0.1576  0.2790
    7MOL   C570 7302   6.078   7.243   1.770  0.2124  0.4408 -1.4526
    7MOL   C571 7303   6.064   7.090   1.804 -0.8744  0.5147 -0.1279
    7MOL   C572 7304   5.914   7.049   1.796 -0.8181  0.2587 -0.2398
    7MOL   C573 7305   5.874   6.924   1.876 -0.6486  0.1445 -0.2060
    7MOL   C574 7306   5.916   6.794   1.803  0.5093 -0.2976  0.5703
    7MOL   O575 7307   5.891   6.775   1.686 -0.1722 -0.9927 -0.3675
    7MOL   N576 7308   5.984   6.703   1.871  0.8728 -0.2596  0.4502
    7MOL   C577 7309   6.080   6.615   1.805 -0.1993  0.0008  0.2583
    7MOL   C578 7310   6.199   6.687   1.740 -0.6045  0.2973 -0.1396
    7MOL   C579 7311   6.297   6.608   1.654 -0.1737  0.1857  0.3624
    7MOL   C580 7312   6.425   6.688   1.623  0.3139 -0.4114  0.0917
    7MOL   C581 7313   6.541   6.651   1.715 -0.7793  0.0792  0.3189
    7MOL   C582 7314   6.656   6.741   1.687  0.0768  0.1009  0.1748
    7MOL   N583 7315   6.628   6.874   1.733 -0.0326 -0.3899 -0.1946
    7MOL   H584 7316   6.129   0.287   1.941 -0.6026  0.3589 -0.5140
    7MOL   H585 7317   6.103   0.332   2.102 -2.5127 -0.8650  1.6970
    7MOL   H586 7318   6.222   0.108   2.053 -0.2987 -1.8530 -2.4991
    7MOL   H587 7319   6.083   0.084   2.152 -0.6737 -1.2362 -0.9322
    7MOL   H588 7320   6.127   0.031   1.855 -0.3376 -1.7626 -0.8254
    7MOL   H589 7321   5.966   0.020   1.915  0.4322 -0.3923  1.4265
    7MOL   H590 7322   6.166   7.539   2.049  1.1198 -0.7610 -0.3178
    7MOL   H591 7323   5.989   7.544   2.050 -1.1187  1.2951 -1.2893
    7MOL   H592 7324   5.994   7.500   1.791 -2.2001 -1.2595  1.3849
    7MOL   H593 7325   6.166   7.483   1.805 -0.2184  3.3214  1.0832
    7MOL   H594 7326   6.130   7.282   1.967  0.0993 -0.4016  0.3540
    7MOL   H595 7327   5.950   7.303   1.921  0.1746  1.6176  0.2626
    7MOL   H596 7328   6.002   7.264   1.694  0.0460  0.7111 -1.2084
    7MOL   H597 7329   6.180   7.257   1.734  0.5138 -0.4531 -0.9628
    7MOL   H598 7330   6.092   7.076   1.908 -1.1845  0.6850 -0.0229
    7MOL   H599 7331   6.119   7.021   1.740 -1.4149  0.3108 -0.3703
    7MOL   H600 7332   5.891   7.052   1.689 -2.2309 -1.2240 -0.0005
    7MOL   H601 7333   5.853   7.124   1.847  2.2491  0.7611  2.8283
    7MOL   H602 7334   5.922   6.932   1.973 -0.0736 -1.6290 -0.3264
    7MOL   H603 7335   5.766   6.923   1.883 -0.4829 -1.3679  2.8660
    7MOL   H604 7336   5.970   6.695   1.971 -2.9296 -1.0619 -0.0539
    7MOL   H605 7337   6.025   6.566   1.725  0.6271 -1.2585  0.4445
    7MOL   H606 7338   6.113   6.537   1.874 -1.1578 -2.0621 -1.5636
    7MOL   H607 7339   6.252   6.735   1.823  0.8001 -0.4936 -0.5753
    7MOL   H608 7340   6.160   6.766   1.676 -0.7278 -1.5330 -2.3907
    7MOL   H609 7341   6.244   6.569   1.567  0.5751 -0.7478  0.3218
    7MOL   H610 7342   6.324   6.516   1.706 -0.7497 -0.1694  0.0326
    7MOL   H611 7343   6.444   6.673   1.517  2.3264  0.9501  0.2553
    7MOL   H612 7344   6.411   6.795   1.637  2.8338 -0.0147 -0.3171
    7MOL   H613 7345   6.573   6.547   1.704  1.0563  0.4063  2.1491
    7MOL   H614 7346   6.502   6.654   1.817  0.3256 -1.4086  0.8109
    7MOL   H615 7347   6.733   6.696   1.749  1.2536  1.0107 -0.6062
    7MOL   H616 7348   6.702   6.738   1.588  2.0193  0.9388  1.0213
    7MOL   H617 7349   6.590   6.938   1.664  3.1747  1.1677 -0.6087
    7MOL   C618 7350   6.624   6.910   1.860 -0.8349 -0.8921  0.6613
    7MOL   O619 7351   6.661   6.841   1.952  0.1548 -0.2337  0.2008
    7MOL   C620 7352   6.554   7.047   1.888 -0.6255  0.0848  0.2914
    7MOL   C621 7353   6.463   7.047   2.007  0.0374  0.3956 -0.4208
    7MOL   C622 7354   6.373   6.916   2.031 -0.2487 -0.0427  0.0703
    7MOL   C623 7355   6.301   6.933   2.169 -0.5843  0.2629 -0.6391
    7MOL   C624 7356   6.217   6.815   2.212 -0.7909  0.6115  0.3199
    7MOL   C625 7357   6.160   6.827   2.353  0.3877 -0.1708  0.2789
    7MOL   C626 7358   6.071   6.709   2.380 -1.1933  0.1660 -0.2427
    7MOL   C627 7359   6.010   6.725   2.523 -0.2492  0.6014 -0.6269
    7MOL   C628 7360   5.955   6.601   2.588  0.1630 -0.0442  0.2588
    7MOL   C629 7361   5.899   6.624   2.721  0.2942 -0.0007 -0.7220
    7MOL   C630 7362   5.885   6.496   2.811  0.1851 -0.2066  0.4669
    7MOL   O631 7363   5.938   6.389   2.773 -0.0969 -0.2612  0.3513
    7MOL   N632 7364   5.809   6.498   2.923  0.3773  0.7464 -0.6506
    7MOL   C633 7365   5.779   6.379   3.008 -0.5552  0.0572 -0.2246
    7MOL   C634 7366   5.680   6.415   3.112  0.8034  0.1888 -0.5503
    7MOL   C635 7367   5.674   6.304   3.222 -0.5002  0.4542 -0.3155
    7MOL   C636 7368   5.592   6.178   3.191  0.2236  0.5576  0.4700
    7MOL   C637 7369   5.437   6.212   3.190 -1.0246  0.1590  0.5605
    7MOL   C638 7370   5.342   6.095   3.142 -0.4859 -0.7351 -1.0628
    7MOL   N639 7371   5.212   6.149   3.126  0.8240  0.5123 -0.2844
    7MOL   H640 7372   6.482   7.068   1.809 -0.7010 -0.5249  0.2027
    7MOL   H641 7373   6.624   7.132   1.892  0.1343 -0.5631  0.9837
    7MOL   H642 7374   6.410   7.142   2.002 -1.8044 -0.5342  0.7516
    7MOL   H643 7375   6.531   7.054   2.092  0.1160 -1.4354 -0.3226
    7MOL   H644 7376   6.432   6.826   2.043 -1.8439 -0.9837  0.9112
    7MOL   H645 7377   6.291   6.901   1.961 -0.0676 -0.2775 -0.0887
    7MOL   H646 7378   6.369   6.964   2.248 -1.7607  1.3062 -0.0079
    7MOL   H647 7379   6.233   7.018   2.168 -0.7457  0.1967  1.7821
    7MOL   H648 7380   6.136   6.793   2.142 -1.9213  2.1868  1.1079
    7MOL   H649 7381   6.283   6.727   2.210  1.0488  1.9875 -1.3009
    7MOL   H650 7382   6.108   6.921   2.370  0.8612 -0.0744  1.2605
    7MOL   H651 7383   6.244   6.837   2.422  1.8313 -1.7116 -1.1988
    7MOL   H652 7384   5.987   6.703   2.310 -0.9353 -0.7069 -0.4829
    7MOL   H653 7385   6.127   6.616   2.384  0.4716  1.1722  0.2035
    7MOL   H654 7386   6.092   6.762   2.584  0.0487 -0.1386 -0.5645
    7MOL   H655 7387   5.941   6.807   2.503  0.4973  0.9101 -2.0113
    7MOL   H656 7388   6.038   6.530   2.589  0.8123  0.7048 -0.1919
    7MOL   H657 7389   5.876   6.560   2.524 -0.0630  2.9234 -1.4500
    7MOL   H658 7390   5.955   6.698   2.778  0.3393 -0.9811  0.5376
    7MOL   H659 7391   5.799   6.663   2.707  1.1195  2.7463  0.7950
    7MOL   H660 7392   5.750   6.577   2.941 -0.2354  0.2850 -0.6089
    7MOL   H661 7393   5.747   6.291   2.951  1.2009 -1.0381  0.4338
    7MOL   H662 7394   5.875   6.352   3.051 -1.7359 -1.9555  1.2387
    7MOL   H663 7395   5.584   6.438   3.067  0.9622  2.8698  0.4169
    7MOL   H664 7396   5.724   6.502   3.160  2.8999 -0.0981 -1.8792
    7MOL   H665 7397   5.773   6.273   3.257 -0.4777  0.1053 -0.6767
    7MOL   H666 7398   5.627   6.354   3.306 -0.9929 -1.0053  0.3004
    7MOL   H667 7399   5.607   6.097   3.262 -2.6412 -0.1089  0.3922
    7MOL   H668 7400   5.610   6.145   3.088  2.4373 -2.3154  1.7128
    7MOL   H669 7401   5.407   6.253   3.287  1.9480  0.3789  1.4366
    7MOL   H670 7402   5.422   6.301   3.129  0.7768 -0.2061 -0.4440
    7MOL   H671 7403   5.371   6.050   3.047  1.8492 -1.5798  0.0083
    7MOL   H672 7404   5.352   6.018   3.218 -1.6964 -0.5984 -0.7611
    7MOL   H673 7405   5.187   6.202   3.043  0.1771  1.8514  0.7415
    7MOL   C674 7406   5.120   6.165   3.222 -0.1257 -0.3950 -0.6014
    7MOL   O675 7407   5.147   6.137   3.338 -0.8507  0.4517 -0.3901
    7MOL   C676 7408   4.979   6.216   3.180 -0.0790 -0.6696  0.0479
    7MOL   C677 7409   4.961   6.353   3.246 -0.7982 -0.5495  0.2839
    7MOL   C678 7410   4.839   6.415   3.183  0.1443  0.0643 -0.3601
    7MOL   C679 7411   4.813   6.561   3.224  0.4927 -0.3463 -0.5860
    7MOL   C680 7412   4.674   6.611   3.189  0.6234  0.6492  0.8467
    7MOL   C681 7413   4.648   6.651   3.044 -0.1188 -0.3568  0.4763
    7MOL   C682 7414   4.512   6.718   3.025  0.0869 -0.7464  1.0372
    7MOL   C683 7415   4.481   6.732   2.869 -0.1449 -0.2735 -0.1612
    7MOL   C684 7416   4.339   6.767   2.846 -0.2020 -0.5673 -0.0667
    7MOL   C685 7417   4.290   6.771   2.700  0.3453  0.4656  0.0623
    7MOL   C686 7418   4.294   6.635   2.621 -0.2980  0.1171 -0.8153
    7MOL   O687 7419   4.395   6.604   2.555  0.0654  0.4619  0.3752
    7MOL   N688 7420   4.176   6.569   2.616 -0.0403 -0.1060 -0.2820
    7MOL   C689 7421   4.160   6.447   2.545 -0.1202  0.9097  0.4622
    7MOL   C690 7422   4.007   6.418   2.516 -0.2838  0.1621  1.5243
    7MOL   C691 7423   4.001   6.279   2.449  0.1340 -0.0450 -1.0823
    7MOL   C692 7424   3.860   6.224   2.436 -0.6319 -0.5794 -1.0023
    7MOL   C693 7425   3.862   6.072   2.409 -0.1973 -0.4115  0.7705
    7MOL   C694 7426   3.718   6.022   2.393  0.5969 -0.8561 -0.4120
    7MOL   N695 7427   3.715   5.882   2.389 -0.8473  0.2190  0.2698
    7MOL   H696 7428   4.892   6.152   3.195  0.6268 -1.5968  0.2918
    7MOL   H697 7429   4.986   6.225   3.071  2.6886 -1.6666  0.0973
    7MOL   H698 7430   5.041   6.426   3.230 -1.6446  1.0969  3.1133
    7MOL   H699 7431   4.956   6.342   3.355 -1.5038  2.0169  0.5544
    7MOL   H700 7432   4.848   6.416   3.075  1.2119 -0.6180 -0.2874
    7MOL   H701 7433   4.751   6.355   3.205 -0.0590  0.2940 -0.5566
    7MOL   H702 7434   4.884   6.635   3.187  0.4534  0.4329  0.8559
    7MOL   H703 7435   4.825   6.565   3.333 -0.3481  1.3228 -0.5348
    7MOL   H704 7436   4.659   6.705   3.243  0.0543  1.1432 -0.1690
    7MOL   H705 7437   4.607   6.540   3.238  0.3834 -0.7909 -1.5210
    7MOL   H706 7438   4.738   6.708   3.021 -1.0031  0.6419 -0.5761
    7MOL   H707 7439   4.661   6.564   2.979 -0.7904 -0.4793  0.5029
    7MOL   H708 7440   4.422   6.669   3.063 -1.1108  1.6002  1.3107
    7MOL   H709 7441   4.501   6.810   3.084 -1.3871 -0.2593  0.0205
    7MOL   H710 7442   4.550   6.804   2.826  0.0732 -1.3206 -1.5928
    7MOL   H711 7443   4.501   6.635   2.822  1.5282 -0.5699  1.1057
    7MOL   H712 7444   4.315   6.857   2.903  0.5392 -0.7174  0.4768
    7MOL   H713 7445   4.273   6.698   2.899 -1.2947  0.5533  0.0720
    7MOL   H714 7446   4.196   6.826   2.704  1.0596  1.7236 -0.1011
    7MOL   H715 7447   4.364   6.821   2.637  1.6852 -1.2841  0.2015
    7MOL   H716 7448   4.099   6.605   2.671 -0.0685 -0.4450 -0.1011
    7MOL   H717 7449   4.212   6.457   2.449  1.2278  2.7643  1.3446
    7MOL   H718 7450   4.212   6.366   2.597 -1.2917 -0.3351 -0.2754
    7MOL   H719 7451   3.964   6.499   2.457 -1.5152 -1.0013  0.7928
    7MOL   H720 7452   3.956   6.404   2.612 -1.7511 -1.7204  0.4935
    7MOL   H721 7453   4.046   6.284   2.350 -1.4120 -0.2481 -1.8140
    7MOL   H722 7454   4.069   6.216   2.507 -1.6380 -2.1730 -1.2675
    7MOL   H723 7455   3.810   6.284   2.360 -1.2757 -0.3226 -0.3811
    7MOL   H724 7456   3.812   6.234   2.533 -0.4050  3.1621 -1.1868
    7MOL   H725 7457   3.914   6.009   2.482 -0.0894 -1.4958 -0.2215
    7MOL   H726 7458   3.906   6.054   2.311  0.0347 -1.4119  1.0505
    7MOL   H727 7459   3.664   6.071   2.474  2.3958  1.1347 -0.3793
    7MOL   H728 7460   3.664   6.047   2.302  1.3718 -0.4936 -0.7816
    7MOL   H729 7461   3.804   5.836   2.400 -0.5742  0.1998 -1.7579
    7MOL   C730 7462   3.609   5.808   2.412  0.4554 -0.0106  0.0095
    7MOL   O731 7463   3.490   5.842   2.414 -0.6987 -0.2211 -0.0355
    7MOL   C732 7464   3.648   5.660   2.435  0.2006  0.2541 -0.3111
    7MOL   C733 7465   3.531   5.568   2.467  0.2925 -0.5432 -0.1098
    7MOL   C734 7466   3.568   5.432   2.530  0.6145 -0.3049 -0.2841
    7MOL   C735 7467   3.449   5.339   2.561 -1.0539 -0.2578 -0.1280
    7MOL   C736 7468   3.476   5.195   2.609 -0.1177 -0.2879  0.4772
    7MOL   C737 7469   3.516   5.102   2.491 -0.3794  0.1307  0.6808
    7MOL   C738 7470   3.558   4.964   2.536 -0.4917  0.2285 -0.0586
    7MOL   C739 7471   3.708   4.958   2.575 -0.2257 -0.4235 -1.0038
    7MOL   C740 7472   3.760   4.836   2.659  0.8465  0.2638  0.0131
    7MOL   C741 7473   3.911   4.855   2.701  0.7373  0.3247  0.0673
    7MOL   C742 7474   4.011   4.796   2.603  0.0743 -0.0915  0.7421
    7MOL   O743 7475   3.983   4.787   2.486  0.3659  0.0197  0.4440
    7MOL   N744 7476   4.125   4.753   2.657  0.0724 -0.5803  0.1185
    7MOL   C745 7477   4.221   4.665   2.593 -0.6768  0.0493  0.9756
    7MOL   C746 7478   4.362   4.663   2.655 -0.1288 -0.6403  0.0717
    7MOL   C747 7479   4.458   4.552   2.610 -0.5579 -0.7803 -0.0309
    7MOL   C748 7480   4.428   4.407   2.651 -0.5647 -0.0120  0.0383
    7MOL   C749 7481   4.546   4.321   2.586  1.0230 -0.3177  0.3695
    7MOL   C750 7482   4.503   4.170   2.589  0.3058 -0.5046 -0.0864
    7MOL   N751 7483   4.394   4.135   2.496 -0.0945 -1.0770 -0.1909
    7MOL   H752 7484   3.721   5.664   2.516 -0.9668 -0.8093  0.8254
    7MOL   H753 7485   3.703   5.624   2.348 -0.8066  1.9195 -1.6509
    7MOL   H754 7486   3.464   5.555   2.382  2.6248  0.9040 -2.2507
    7MOL   H755 7487   3.462   5.618   2.534  3.1625  1.4582  1.4803
    7MOL   H756 7488   3.631   5.443   2.618 -1.4145  0.4042  1.1112
    7MOL   H757 7489   3.631   5.376   2.461 -0.3032  0.1014 -1.4761
    7MOL   H758 7490   3.390   5.328   2.470 -1.5080  1.2975 -0.0314
    7MOL   H759 7491   3.380   5.380   2.634 -2.3367  1.6677 -2.3475
    7MOL   H760 7492   3.380   5.154   2.640 -0.8374  0.5485 -0.6241
    7MOL   H761 7493   3.548   5.184   2.690 -0.3268 -2.1493  0.4410
    7MOL   H762 7494   3.448   5.101   2.405  0.1173  1.1781  0.2648
    7MOL   H763 7495   3.603   5.154   2.451 -0.1129 -0.3518  0.6354
    7MOL   H764 7496   3.493   4.940   2.620  0.0564  2.9026  1.1892
    7MOL   H765 7497   3.546   4.891   2.456  1.6405 -1.5896  1.2460
    7MOL   H766 7498   3.768   4.981   2.487  0.0991  0.2065 -0.6243
    7MOL   H767 7499   3.725   5.039   2.647 -1.1685 -0.4091 -0.7785
    7MOL   H768 7500   3.743   4.751   2.593  0.2126 -0.0935  0.6295
    7MOL   H769 7501   3.702   4.830   2.751  1.1478 -1.2254  0.1277
    7MOL   H770 7502   3.921   4.957   2.737  1.5858  0.8474 -1.6019
    7MOL   H771 7503   3.914   4.798   2.794 -0.2624 -0.5501 -0.4267
    7MOL   H772 7504   4.153   4.758   2.754 -2.7886  2.1345  0.9003
    7MOL   H773 7505   4.241   4.695   2.491 -1.1616 -4.0757 -0.4148
    7MOL   H774 7506   4.172   4.568   2.582 -1.6788  0.8700 -2.1687
    7MOL   H775 7507   4.354   4.645   2.763  0.2568  0.1244  0.2283
    7MOL   H776 7508   4.405   4.763   2.653 -1.3059 -0.0626  1.9078
    7MOL   H777 7509   4.560   4.580   2.637 -1.4261 -0.2032  2.7839
    7MOL   H778 7510   4.465   4.555   2.501  0.5923  0.0937  0.0578
    7MOL   H779 7511   4.430   4.395   2.760 -0.3090  1.1711  0.1705
    7MOL   H780 7512   4.332   4.375   2.612  0.5970 -1.7557 -1.4655
    7MOL   H781 7513   4.634   4.343   2.647  0.3826  2.1440  0.4583
    7MOL   H782 7514   4.564   4.354   2.484  0.1049  0.6858  0.5287
    7MOL   H783 7515   4.595   4.115   2.571 -0.6766 -2.1931 -0.0401
    7MOL   H784 7516   4.475   4.140   2.690 -0.8606  1.7016  0.2846
    7MOL   H785 7517   4.299   4.165   2.515  0.1820 -0.5320  0.3456
    7MOL   C786 7518   4.405   4.065   2.382  0.9602 -0.6089 -0.1206
    7MOL   O787 7519   4.510   4.030   2.338 -0.2569  0.9616  0.0383
    7MOL   C788 7520   4.271   4.037   2.305  0.1240  0.1449  0.3998
    7MOL   C789 7521   4.277   3.893   2.242 -0.8024 -0.0728 -0.2871
    7MOL   C790 7522   4.368   3.871   2.115 -0.1234  0.5076 -0.2637
    7MOL   C791 7523   4.338   3.953   1.994  1.0273  0.1882 -0.3265
    7MOL   C792 7524   4.199   3.927   1.934 -0.2724  0.0916  0.1702
    7MOL   C793 7525   4.183   3.788   1.865 -0.0755  0.3779 -0.1875
    7MOL   C794 7526   4.033   3.770   1.805 -0.5591 -0.5298  0.2022
    7MOL   C795 7527   4.015   3.636   1.732 -0.1131 -0.4035 -0.8101
    7MOL   C796 7528   4.062   3.634   1.584  0.0607 -0.2775  0.0215
    7MOL   C797 7529   4.094   3.498   1.529  0.4239  0.3572 -0.0756
    7MOL   C798 7530   3.962   3.425   1.506  0.0702 -0.4037  0.3067
    7MOL   O799 7531   3.868   3.488   1.467  0.1772  0.3431  0.2227
    7MOL   N800 7532   3.958   3.297   1.530  0.2570  0.0387 -0.0903
    7MOL   C801 7533   3.850   3.204   1.525  0.3464 -0.1346  0.5579
    7MOL   C802 7534   3.880   3.096   1.424 -0.8366 -0.5025  0.4086
    7MOL   C803 7535   3.756   3.028   1.371  0.1908  0.2309 -0.0680
    7MOL   C804 7536   3.665   3.126   1.289  0.0449 -0.4151 -0.1831
    7MOL   C805 7537   3.571   3.034   1.200 -0.2285 -0.2230 -0.5755
    7MOL   C806 7538   3.484   3.122   1.107  0.0339 -0.3347 -0.2143
    7MOL   N807 7539   3.426   3.041   0.997  0.3049 -0.2015  0.6042
    7MOL   H808 7540   4.269   4.113   2.227  1.1760 -1.0476 -0.8338
    7MOL   H809 7541   4.193   4.064   2.375  0.5035 -0.5906  1.1186
    7MOL   H810 7542   4.317   3.819   2.311  1.1765 -0.5193 -1.8627
    7MOL   H811 7543   4.175   3.878   2.207 -1.5137  0.4874  1.4722
    7MOL   H812 7544   4.374   3.766   2.086  1.1007  1.1778 -2.4594
    7MOL   H813 7545   4.470   3.906   2.128  0.2540 -0.0682 -1.6110
    7MOL   H814 7546   4.350   4.055   2.030 -0.2869 -0.4196  1.9164
    7MOL   H815 7547   4.411   3.937   1.914 -0.5320  0.2913 -1.8033
    7MOL   H816 7548   4.116   3.949   2.001  0.2578  1.4852  0.3986
    7MOL   H817 7549   4.188   4.006   1.860 -2.9384 -0.1503  0.2683
    7MOL   H818 7550   4.253   3.779   1.782 -1.5380 -0.7201 -1.3273
    7MOL   H819 7551   4.207   3.709   1.935  1.5687 -0.1752 -1.3429
    7MOL   H820 7552   3.950   3.796   1.872 -0.0124 -0.4399  0.8505
    7MOL   H821 7553   4.017   3.851   1.734  1.0994  0.0281  0.4666
    7MOL   H822 7554   4.051   3.560   1.801 -1.5246  0.6579  1.1519
    7MOL   H823 7555   3.910   3.610   1.745  0.1047 -0.0823  1.8214
    7MOL   H824 7556   4.142   3.707   1.576 -0.1868  0.0649  0.6023
    7MOL   H825 7557   3.983   3.690   1.533  0.5271  1.3627  1.0620
    7MOL   H826 7558   4.142   3.518   1.434  2.0128 -3.9836 -0.3192
    7MOL   H827 7559   4.158   3.444   1.599 -0.4012 -1.2330 -0.5146
    7MOL   H828 7560   4.036   3.258   1.580  0.1633  0.0412  0.0562
    7MOL   H829 7561   3.767   3.263   1.486  1.3850  1.4204  0.6559
    7MOL   H830 7562   3.804   3.166   1.616  0.6843 -0.6946  0.5021
    7MOL   H831 7563   3.951   3.023   1.461  4.3062  2.4085 -3.1428
    7MOL   H832 7564   3.931   3.145   1.341 -0.7362  0.1902  0.8789
    7MOL   H833 7565   3.799   2.950   1.307  1.9456  2.2943 -1.4676
    7MOL   H834 7566   3.701   2.978   1.451 -0.4882  0.7970 -0.1797
    7MOL   H835 7567   3.734   3.181   1.224  1.4702 -3.2640 -1.1963
    7MOL   H836 7568   3.610   3.196   1.351  0.8470  0.6416 -0.6375
    7MOL   H837 7569   3.495   2.989   1.264 -2.6438  0.3440 -2.9526
    7MOL   H838 7570   3.622   2.955   1.144  2.1243  1.1878 -0.4810
    7MOL   H839 7571   3.543   3.201   1.060  1.1444 -0.9521  0.1333
    7MOL   H840 7572   3.407   3.167   1.170 -0.5934 -2.5241  0.6025
    7MOL   H841 7573   3.486   2.962   0.980 -0.4428 -0.8667  1.0182
    7MOL   C842 7574   3.325   3.066   0.914 -0.7122  0.1182  0.1928
    7MOL   O843 7575   3.251   3.165   0.945  0.6274  0.1304  0.2319
    7MOL   C844 7576   3.312   2.976   0.785  0.4953 -0.0463 -0.0414
    7MOL   C845 7577   3.197   3.022   0.698  0.2575 -0.1715  0.9938
    7MOL   C846 7578   3.167   2.930   0.577  0.2760 -0.0328  0.0126
    7MOL   C847 7579   3.028   2.962   0.514  0.7741 -0.4345  0.8185
    7MOL   C848 7580   3.008   3.100   0.440  0.1166 -0.1380 -0.6847
    7MOL   C849 7581   2.878   3.175   0.479  0.1989 -0.5412 -0.8212
    7MOL   C850 7582   2.898   3.236   0.616 -0.5363  0.0173 -0.3981
    7MOL   C851 7583   3.008   3.349   0.627 -0.1856  0.3129 -0.0652
    7MOL   C852 7584   3.024   3.392   0.772 -0.6154 -1.2656  0.3514
    7MOL   C853 7585   3.153   3.471   0.799 -0.8209 -0.5312 -0.3696
    7MOL   C854 7586   3.174   3.515   0.943 -0.6502 -0.0446 -0.8847
    7MOL   O855 7587   3.156   3.635   0.970 -0.4028  0.0025  0.0374
    7MOL   N856 7588   3.229   3.434   1.033 -0.3003  0.3241 -0.1537
    7MOL   C857 7589   3.263   3.456   1.176 -0.1311  0.6149  0.4985
    7MOL   C858 7590   3.404   3.505   1.167  0.0918  0.0366 -0.0706
    7MOL   C859 7591   3.461   3.535   1.307  0.2980 -0.3078  0.4278
    7MOL   C860 7592   3.609   3.578   1.316  0.6380  0.7433 -0.0373
    7MOL   C861 7593   3.633   3.705   1.236 -0.1068  0.7613  0.0189
    7MOL   C862 7594   3.778   3.752   1.247  0.2629 -0.2894  0.7303
    7MOL   N863 7595   3.793   3.864   1.153  0.4990  0.3790  0.1460
    7MOL   H864 7596   3.282   2.878   0.823 -0.0333 -0.4446 -1.4458
    7MOL   H865 7597   3.405   2.957   0.732 -0.1563 -0.8792 -0.9105
    7MOL   H866 7598   3.199   3.124   0.660  0.9997  0.4789  2.7302
    7MOL   H867 7599   3.107   3.025   0.759 -1.3654 -2.0760 -1.2147
    7MOL   H868 7600   3.240   2.959   0.502  0.4289 -0.2429  0.0802
    7MOL   H869 7601   3.194   2.826   0.597 -0.2624 -0.1926 -0.0787
    7MOL   H870 7602   2.954   2.937   0.590  0.0690 -0.6875  0.0616
    7MOL   H871 7603   3.014   2.886   0.437 -1.9229  1.3958 -0.5764
    7MOL   H872 7604   3.092   3.169   0.451 -0.9358  0.8921  1.0627
    7MOL   H873 7605   2.998   3.065   0.338  0.3352 -0.1332 -0.7074
    7MOL   H874 7606   2.860   3.265   0.421  1.1081  1.0024  1.2435
    7MOL   H875 7607   2.791   3.112   0.496  0.0113  0.2668  1.3220
    7MOL   H876 7608   2.801   3.272   0.650 -0.1058  0.0611  0.7961
    7MOL   H877 7609   2.919   3.156   0.687 -3.0486 -1.0766 -0.8347
    7MOL   H878 7610   2.976   3.430   0.561 -0.1785  0.2976 -0.0876
    7MOL   H879 7611   3.103   3.321   0.582 -0.3935 -0.8833  0.2153
    7MOL   H880 7612   3.016   3.311   0.844  1.0107 -1.0290  0.8191
    7MOL   H881 7613   2.932   3.444   0.799 -0.0650 -0.6616  1.1008
    7MOL   H882 7614   3.239   3.412   0.766 -0.0279 -0.2736  1.2041
    7MOL   H883 7615   3.153   3.567   0.746  1.9859 -0.3937 -0.2233
    7MOL   H884 7616   3.258   3.342   1.003  1.1552  0.4533  0.8326
    7MOL   H885 7617   3.256   3.363   1.233  0.8614 -1.7343 -3.0549
    7MOL   H886 7618   3.194   3.530   1.217 -0.2246  0.8416 -0.0595
    7MOL   H887 7619   3.394   3.601   1.116 -1.8245  0.5495  1.2195
    7MOL   H888 7620   3.475   3.440   1.115  1.7432  1.1158  0.7849
    7MOL   H889 7621   3.451   3.445   1.367  1.2904  0.0116  1.0958
    7MOL   H890 7622   3.400   3.606   1.363 -0.0362  0.4688 -0.8989
    7MOL   H891 7623   3.670   3.494   1.283  0.0756 -0.2799  1.4522
    7MOL   H892 7624   3.627   3.598   1.422  1.1325  0.9828 -0.1658
    7MOL   H893 7625   3.604   3.693   1.131 -3.2239 -1.1220  0.9905
    7MOL   H894 7626   3.565   3.782   1.272  0.4562  1.0795  0.3935
    7MOL   H895 7627   3.801   3.784   1.349 -0.0556 -0.3568  0.8238
    7MOL   H896 7628   3.846   3.674   1.215 -1.6072 -2.4189  1.8373
    7MOL   H897 7629   3.801   3.956   1.193  0.9236  0.6451 -0.5398
    7MOL   C898 7630   3.806   3.834   1.020  0.2509  0.3118 -0.1487
    7MOL   O899 7631   3.825   3.725   0.978  0.1545  0.1184  0.1081
    7MOL   C900 7632   3.790   3.948   0.925  0.7507 -0.2465  0.3341
    7MOL   C901 7633   3.878   4.073   0.942  0.1835 -1.0849  0.3358
    7MOL   C902 7634   4.021   4.063   0.887 -0.1238 -0.4803  0.0055
    7MOL   C903 7635   4.117   4.173   0.943 -1.0060  0.3155  0.4925
    7MOL   C904 7636   4.268   4.142   0.947  0.0909 -0.6242 -0.4197
    7MOL   C905 7637   4.342   4.244   1.044  0.3369 -0.1653 -0.1020
    7MOL   C906 7638   4.495   4.220   1.040 -0.0807  0.3932  0.2735
    7MOL   C907 7639   4.564   4.320   1.133 -0.1437  0.1355  0.5344
    7MOL   C908 7640   4.715   4.324   1.112 -0.0908 -0.1915 -0.3127
    7MOL   C909 7641   4.755   4.358   0.965 -0.2267 -0.1096  0.7046
    7MOL   C910 7642   4.723   4.505   0.927 -0.1229  0.3270 -0.9613
    7MOL   O911 7643   4.732   4.593   1.011 -0.7350  0.1258  0.2380
    7MOL   N912 7644   4.684   4.531   0.805 -0.4520  0.0699  0.1880
    7MOL   C913 7645   4.665   4.667   0.753 -0.0771  0.0633 -0.3543
    7MOL   C914 7646   4.610   4.659   0.610  0.7252 -0.1201  0.2332
    7MOL   C915 7647   4.567   4.790   0.545 -0.1611 -0.0621 -0.2796
    7MOL   C916 7648   4.495   4.777   0.419 -0.8143  0.3752 -0.6134
    7MOL   C917 7649   4.448   4.908   0.359  0.1171 -0.5213  0.0450
    7MOL   C918 7650   4.350   4.891   0.235 -0.1124 -0.4032 -1.0248
    7MOL   N919 7651   4.403   4.808   0.127 -0.0494  0.9962 -0.4337
    7MOL   H920 7652   3.798   3.905   0.825  0.4372 -3.1130  1.5020
    7MOL   H921 7653   3.687   3.984   0.924  0.5993 -0.6763  0.5758
    7MOL   H922 7654   3.877   4.097   1.049 -0.0696  0.7533 -0.0541
    7MOL   H923 7655   3.828   4.158   0.895  1.2857  0.8743  2.5597
    7MOL   H924 7656   4.034   4.066   0.779  1.0070 -0.2049  0.1461
    7MOL   H925 7657   4.060   3.966   0.920  0.9894  0.1009  0.4104
    7MOL   H926 7658   4.101   4.259   0.877 -1.3924  0.1073  0.3156
    7MOL   H927 7659   4.091   4.211   1.042 -0.3603  0.7627  0.5002
    7MOL   H928 7660   4.306   4.138   0.845  0.8404 -0.6276 -0.1416
    7MOL   H929 7661   4.274   4.050   1.004 -1.7140 -0.6620 -0.2798
    7MOL   H930 7662   4.323   4.347   1.014 -2.4567 -0.4663  0.5572
    7MOL   H931 7663   4.317   4.239   1.150 -1.0187  0.5864 -0.3783
    7MOL   H932 7664   4.536   4.223   0.939 -1.0499  2.9359 -0.0703
    7MOL   H933 7665   4.512   4.115   1.066 -1.4214 -0.2892 -1.5186
    7MOL   H934 7666   4.540   4.289   1.234 -3.0690  1.8890  0.4205
    7MOL   H935 7667   4.522   4.415   1.100 -0.2353 -0.9471 -2.5901
    7MOL   H936 7668   4.764   4.387   1.186 -0.6700  0.1856 -0.2452
    7MOL   H937 7669   4.751   4.223   1.127 -1.6164 -0.8647 -1.0446
    7MOL   H938 7670   4.863   4.374   0.970 -0.2627  0.3585  0.0942
    7MOL   H939 7671   4.724   4.289   0.886  0.1955 -0.2506  0.6594
    7MOL   H940 7672   4.674   4.450   0.746 -0.1236  0.5463 -0.5277
    7MOL   H941 7673   4.757   4.726   0.762 -0.2844  0.5117 -1.2108
    7MOL   H942 7674   4.588   4.711   0.816 -0.8350 -0.9653 -0.5524
    7MOL   H943 7675   4.670   4.601   0.540  0.1466 -1.4112  0.7837
    7MOL   H944 7676   4.516   4.606   0.624 -0.1527  0.2565 -3.6818
    7MOL   H945 7677   4.505   4.848   0.613  0.3324 -0.7216  0.7509
    7MOL   H946 7678   4.657   4.851   0.537 -1.2462  1.9018  2.0577
    7MOL   H947 7679   4.409   4.714   0.442  0.6183 -1.7076 -0.7631
    7MOL   H948 7680   4.541   4.711   0.345 -0.0028  0.5779 -0.3010
    7MOL   H949 7681   4.393   4.968   0.431  1.2814 -0.8953  1.2521
    7MOL   H950 7682   4.530   4.975   0.334  0.4211 -1.2306 -0.9094
    7MOL   H951 7683   4.331   4.995   0.209 -0.7109 -0.1270  0.4362
    7MOL   H952 7684   4.258   4.849   0.277  0.6278  0.3874  1.5026
    7MOL   H953 7685   4.502   4.811   0.107 -0.0887  0.4257 -0.7352
    7MOL   C954 7686   4.326   4.724   0.048  0.5644  0.7051 -0.0042
    7MOL   O955 7687   4.202   4.715   0.057 -0.5049  0.0301  0.7083
    7MOL   C956 7688   4.412   4.630   7.644 -0.4825  0.2020 -0.3186
    7MOL   C957 7689   4.325   4.513   7.593  0.4709 -0.7196  0.2221
    7MOL   C958 7690   4.400   4.396   7.531 -1.1412 -0.7300  0.9685
    7MOL   C959 7691   4.467   4.428   7.394 -0.3334 -0.0032 -0.4871
    7MOL   C960 7692   4.566   4.311   7.360  0.6174 -0.2318 -0.5573
    7MOL   C961 7693   4.648   4.332   7.234 -0.0390 -0.0705  0.3086
    7MOL   C962 7694   4.720   4.197   7.198 -0.3666  0.2992  0.1311
    7MOL   C963 7695   4.804   4.221   7.070  0.2441  0.1057  0.2449
    7MOL   C964 7696   4.908   4.334   7.070  0.4569  0.3122  0.0731
    7MOL   C965 7697   5.006   4.328   7.196  0.0828 -0.4430  0.0076
    7MOL   C966 7698   5.124   4.232   7.200 -0.0952 -1.1729  0.0423
    7MOL   O967 7699   5.141   4.150   7.109  0.3029 -0.0450  0.1097
    7MOL   N968 7700   5.206   4.249   7.301 -0.2191 -0.2974 -0.7401
    7MOL   C969 7701   5.333   4.188   7.311 -0.3940 -0.3298 -0.0294
    7MOL   C970 7702   5.438   4.277   7.260  0.0017 -0.2745  0.4674
    7MOL   C971 7703   5.578   4.223   7.293 -0.2601 -0.1757 -0.1054
    7MOL   C972 7704   5.692   4.314   7.259  0.0049  0.0853 -0.2267
    7MOL   C973 7705   5.822   4.274   7.317 -0.4775 -0.3910  0.0707
    7MOL   C974 7706   5.927   4.393   7.315  0.0427  0.4971 -0.7313
    7MOL   N975 7707   6.054   4.351   7.364 -0.7021 -0.0847  0.2482
    7MOL   H976 7708   4.468   4.685   7.568 -0.4614  1.9659  0.9431
    7MOL   H977 7709   4.490   4.581   0.010 -1.8579 -1.8882 -0.1852
    7MOL   H978 7710   4.253   4.553   7.522 -1.6947 -2.0268  1.5826
    7MOL   H979 7711   4.266   4.468   7.674 -1.3403 -0.6184 -1.0216
    7MOL   H980 7712   4.476   4.381   7.607  0.9771  2.4442 -0.4086
    7MOL   H981 7713   4.329   4.314   7.525 -1.9628 -0.0698  1.5205
    7MOL   H982 7714   4.394   4.451   7.316  1.6557  3.5333 -1.4169
    7MOL   H983 7715   4.530   4.515   7.410  0.8862 -1.1928  1.3927
    7MOL   H984 7716   4.637   4.308   7.444  0.1084 -2.1550 -0.1766
    7MOL   H985 7717   4.510   4.218   7.366  3.3605 -1.8810  0.2079
    7MOL   H986 7718   4.577   4.352   7.154 -0.1611  0.6154  0.5904
    7MOL   H987 7719   4.706   4.423   7.242  1.5910 -0.8599 -2.0186
    7MOL   H988 7720   4.780   4.177   7.287 -1.0724  1.9420  1.0102
    7MOL   H989 7721   4.653   4.114   7.176 -0.7119  0.6960 -0.3409
    7MOL   H990 7722   4.851   4.133   7.028 -0.5027 -0.4429  0.5356
    7MOL   H991 7723   4.729   4.250   6.996 -1.2983 -2.4853  0.7261
    7MOL   H992 7724   4.845   4.423   7.072 -2.4611 -1.6631 -1.2055
    7MOL   H993 7725   4.970   4.348   6.982 -1.4628  0.9881 -1.2128
    7MOL   H994 7726   5.038   4.431   7.213 -0.7934  0.0395 -1.1895
    7MOL   H995 7727   4.953   4.310   7.289  0.3329 -0.0589  0.2282
    7MOL   H996 7728   5.177   4.320   7.366 -0.3430  0.4045 -1.5474
    7MOL   H997 7729   5.340   4.089   7.267 -2.3713 -0.0332 -1.0618
    7MOL   H998 7730   5.352   4.175   7.417 -2.0640 -0.9237  0.2079
    7MOL   H999 7731   5.422   4.376   7.304 -0.2171  0.0834 -0.4068
    7MOL     H1 7732   5.427   4.299   7.154 -3.3171 -2.2358  0.3240
    7MOL     H2 7733   5.599   4.121   7.264 -1.2310 -0.5380  0.4288
    7MOL     H3 7734   5.580   4.218   7.402 -0.7471  3.2996  0.1387
    7MOL     H4 7735   5.711   4.322   7.152 -0.3111 -2.4330 -0.5013
    7MOL     H5 7736   5.668   4.415   7.291  1.0152 -0.4158  2.1993
    7MOL     H6 7737   5.859   4.182   7.273 -2.2030 -1.7428  1.3636
    7MOL     H7 7738   5.815   4.254   7.424 -1.0340 -0.4244  0.0298
    7MOL     H8 7739   5.932   4.444   7.219 -1.3294 -1.0218 -1.6297
    7MOL     H9 7740   5.896   4.485   7.365 -0.8306 -0.0138 -0.3265
    7MOL    H10 7741   6.081   4.370   7.460 -1.1851 -2.4276  0.8764
    7MOL    C11 7742   6.148   4.302   7.289 -0.1942  0.0839  1.0660
    7MOL    O12 7743   6.131   4.276   7.170 -0.9822 -0.6079 -0.4335
    7MOL    C13 7744   6.281   4.276   7.358 -1.3417  0.1869  0.2797
    7MOL    C14 7745   6.383   4.379   7.318 -0.8962 -0.1628 -0.2250
    7MOL    C15 7746   6.524   4.331   7.341  0.0284 -0.1497 -0.7779
    7MOL    C16 7747   6.631   4.416   7.271  0.3044  0.5987 -0.5122
    7MOL    C17 7748   6.781   4.380   7.309  0.1453 -0.6915 -0.1853
    7MOL    C18 7749   6.826   4.245   7.262 -0.1979  0.0180 -0.0935
    7MOL    C19 7750   6.980   4.219   7.288  0.1656  0.0628 -0.8471
    7MOL    C20 7751   7.013   4.071   7.281 -0.6359 -0.0646 -0.0820
    7MOL    C21 7752   7.162   4.036   7.311 -0.2860  1.0110  0.2780
    7MOL    C22 7753   7.189   3.880   7.310 -0.6056 -0.2339 -0.2668
    7MOL    C23 7754   7.133   3.803   7.188  0.1949  0.0711  0.1753
    7MOL    O24 7755   7.181   3.815   7.073  0.5556 -0.7914 -0.2594
    7MOL    N25 7756   7.027   3.729   7.208 -0.5985  0.1913 -0.1182
    7MOL    C26 7757   6.941   3.679   7.098  0.4341 -0.6309  0.6202
    7MOL    C27 7758   6.840   3.791   7.046  0.7065  0.2827 -0.3282
    7MOL    C28 7759   6.712   3.815   7.132 -0.2751  0.2016  0.1700
    7MOL    C29 7760   6.613   3.919   7.069 -0.0276 -0.5754 -0.0396
    7MOL    C30 7761   6.479   3.936   7.142 -0.3616 -0.3324  0.4124
    7MOL    C31 7762   6.370   4.018   7.062 -0.9106  0.1391 -0.3298
    7MOL    N32 7763   6.238   4.020   7.116 -0.0025 -0.1753 -0.7724
    7MOL    H33 7764   6.318   4.176   7.335 -0.4655  0.2205  1.4648
    7MOL    H34 7765   6.265   4.270   7.466 -0.4475  2.0123  0.5331
    7MOL    H35 7766   6.353   4.470   7.370 -2.8013  0.6542 -2.6471
    7MOL    H36 7767   6.371   4.384   7.210 -1.2874 -1.3673 -0.2447
    7MOL    H37 7768   6.543   4.227   7.316 -2.2651 -0.1512 -2.6672
    7MOL    H38 7769   6.553   4.353   7.444  1.1692  2.1336 -1.5418
    7MOL    H39 7770   6.610   4.412   7.164 -0.4090  1.8946 -0.4275
    7MOL    H40 7771   6.624   4.522   7.298 -0.6974  0.4729 -0.2447
    7MOL    H41 7772   6.854   4.455   7.278 -1.0757 -0.3527 -2.3622
    7MOL    H42 7773   6.784   4.382   7.418  1.0703  2.3453 -0.2209
    7MOL    H43 7774   6.771   4.176   7.326 -3.2752  1.5514 -0.9408
    7MOL    H44 7775   6.807   4.225   7.156 -1.6093 -2.2357  0.5399
    7MOL    H45 7776   7.026   4.274   7.206  3.9494  1.8200  2.3148
    7MOL    H46 7777   7.005   4.262   7.384  3.0286  2.1776 -2.4441
    7MOL    H47 7778   6.959   4.016   7.358  0.0089 -0.5252  0.0420
    7MOL    H48 7779   6.984   4.037   7.181  2.8139 -0.1016 -1.1386
    7MOL    H49 7780   7.169   4.077   7.411 -1.0165 -0.1351  0.8048
    7MOL    H50 7781   7.226   4.095   7.244  1.5586  1.1362  2.1051
    7MOL    H51 7782   7.295   3.855   7.320 -0.3667  0.3265 -1.3053
    7MOL    H52 7783   7.133   3.839   7.394 -0.1784  0.2784  0.2772
    7MOL    H53 7784   6.994   3.713   7.302  0.9738  2.2586  0.8179
    7MOL    H54 7785   6.890   3.589   7.133  2.0814 -0.8097  2.6699
    7MOL    H55 7786   7.007   3.634   7.025 -1.8751 -2.0418 -0.6400
    7MOL    H56 7787   6.810   3.756   6.947  1.7785 -0.2608 -0.4614
    7MOL    H57 7788   6.889   3.888   7.032  1.7036  0.0652  1.4730
    7MOL    H58 7789   6.736   3.859   7.228  1.5875 -0.2594 -0.0775
    7MOL    H59 7790   6.667   3.719   7.158 -0.5845  0.4848  0.6791
    7MOL    H60 7791   6.603   3.904   6.961  0.4912  1.4906 -0.3892
    7MOL    H61 7792   6.665   4.014   7.062 -0.4572 -0.3665 -0.4465
    7MOL    H62 7793   6.500   3.979   7.240  0.3033 -0.6729  0.4261
    7MOL    H63 7794   6.446   3.835   7.168 -0.3781 -0.4840 -0.1897
    7MOL    H64 7795   6.362   3.983   6.958  0.5652 -0.6456 -0.1911
    7MOL    H65 7796   6.405   4.121   7.060  0.2537 -0.1848  1.8220
    7MOL    H66 7797   6.197   4.113   7.120  1.2151  0.2961  1.3300
    7MOL    C67 7798   6.162   3.910   7.123  0.2249  0.1348  0.2715
    7MOL    O68 7799   6.207   3.797   7.112  0.7386  0.1513 -0.1162
    7MOL    C69 7800   6.017   3.929   7.150  0.1100 -0.0927 -0.7432
    7MOL    C70 7801   5.910   3.937   7.033  0.2991  0.7815  0.2000
    7MOL    C71 7802   5.901   4.083   6.982  0.0700 -0.4098  0.1067
    7MOL    C72 7803   5.820   4.102   6.847  0.3081 -0.6511 -0.3717
    7MOL    C73 7804   5.811   4.248   6.807 -0.4014  0.3744  0.0152
    7MOL    C74 7805   5.762   4.279   6.662  0.3303 -0.1719 -1.0695
    7MOL    C75 7806   5.811   4.186   6.556  0.0410 -0.6359  0.0578
    7MOL    C76 7807   5.962   4.204   6.507  0.2270  0.3248 -0.2594
    7MOL    C77 7808   6.060   4.125   6.590 -0.6444  0.0977  0.3957
    7MOL    C78 7809   6.209   4.147   6.547  0.1454  1.3392  0.4226
    7MOL    C79 7810   6.307   4.084   6.639  0.2746  0.3029  0.1427
    7MOL    O80 7811   6.277   3.983   6.707 -0.2093 -0.0443  0.0325
    7MOL    N81 7812   6.433   4.135   6.639  0.0903 -0.0435  0.0554
    7MOL    C82 7813   6.552   4.075   6.700 -0.0326  0.2290  0.0923
    7MOL    C83 7814   6.679   4.060   6.607  0.6318 -0.2949  0.0607
    7MOL    C84 7815   6.649   3.985   6.472  0.2662 -0.5559 -0.2977
    7MOL    C85 7816   6.771   3.973   6.382  0.9267  0.0356 -0.0131
    7MOL    C86 7817   6.750   3.852   6.282  0.5936 -0.3518  0.2998
    7MOL    C87 7818   6.649   3.874   6.172 -0.5795 -0.4346  0.7681
    7MOL    N88 7819   6.632   3.747   6.105  0.3645 -0.2907 -0.0978
    7MOL    H89 7820   6.008   4.008   7.224  1.5133  0.8301 -1.5235
    7MOL    H90 7821   5.986   3.846   7.214 -2.7259  2.5553  1.4713
    7MOL    H91 7822   5.961   3.874   6.960  2.5624  1.3732  1.2222
    7MOL    H92 7823   5.818   3.886   7.061  1.4287 -1.9490 -0.8841
    7MOL    H93 7824   5.849   4.143   7.057 -2.3641 -0.2002 -1.6592
    7MOL    H94 7825   6.002   4.123   6.974 -0.1345  0.0241 -0.3699
    7MOL    H95 7826   5.872   4.047   6.769 -0.6021 -2.7262  0.4580
    7MOL    H96 7827   5.725   4.050   6.844  0.7272 -1.3726 -1.2859
    7MOL    H97 7828   5.746   4.301   6.876  0.7543 -0.2242  1.5977
    7MOL    H98 7829   5.913   4.283   6.824 -0.8747  0.8764  1.8698
    7MOL    H99 7830   5.653   4.281   6.663  0.3018  1.0098 -3.6124
    7MOL   H100 7831   5.789   4.380   6.632  0.4391 -0.5250 -2.1548
    7MOL   H101 7832   5.751   4.214   6.469  1.1823 -2.6426 -1.4321
    7MOL   H102 7833   5.783   4.083   6.578 -1.2071 -0.6925 -1.6891
    7MOL   H103 7834   5.974   4.163   6.407 -1.6148  0.3071 -0.4946
    7MOL   H104 7835   5.988   4.309   6.503 -0.5976  0.7534  3.2569
    7MOL   H105 7836   6.036   4.019   6.580 -1.4609  0.3433 -0.2311
    7MOL   H106 7837   6.045   4.150   6.695 -0.1082 -1.3767  0.8419
    7MOL   H107 7838   6.221   4.113   6.444 -3.6249  3.0366 -0.6796
    7MOL   H108 7839   6.231   4.254   6.546 -1.4817  1.7054  1.5733
    7MOL   H109 7840   6.451   4.209   6.572  0.1999 -1.3243 -1.3800
    7MOL   H110 7841   6.537   3.973   6.733  2.2599 -0.3161 -0.4528
    7MOL   H111 7842   6.575   4.122   6.796 -0.6307  1.0319 -0.1499
    7MOL   H112 7843   6.747   4.001   6.669  0.8536  1.5912  1.6440
    7MOL   H113 7844   6.727   4.155   6.588  0.4286 -0.4040 -1.0376
    7MOL   H114 7845   6.557   4.018   6.423 -0.3572 -0.1733  1.0965
    7MOL   H115 7846   6.621   3.885   6.506 -1.0243 -0.4409 -0.9783
    7MOL   H116 7847   6.782   4.071   6.335 -0.1026  1.5046  2.6887
    7MOL   H117 7848   6.858   3.950   6.445  2.0112  1.9882 -0.7642
    7MOL   H118 7849   6.845   3.822   6.238  1.0565 -0.1275  1.1242
    7MOL   H119 7850   6.727   3.761   6.339  1.4039 -0.7854 -0.0576
    7MOL   H120 7851   6.560   3.906   6.225 -0.3660  1.7267 -0.1403
    7MOL   H121 7852   6.683   3.952   6.103  0.1901 -1.1296  0.3436
    7MOL   H122 7853   6.551   3.749   6.046 -0.9803  3.6043  1.7073
    7MOL   H123 7854   6.714   3.730   6.049  0.1164 -1.4409 -0.1250
    8MOL     C1 7855   5.901   4.420   1.989  1.0325 -0.5404  0.6476
    8MOL     O2 7856   5.815   4.467   2.070  0.5713  0.1102 -0.0653
    8MOL     C3 7857   5.858   4.338   1.871  0.3823 -0.2283  0.2319
    8MOL     C4 7858   5.730   4.253   1.901  0.4764 -0.6603 -0.1160
    8MOL     C5 7859   5.599   4.325   1.863  1.5111  0.5726 -0.5879
    8MOL     C6 7860   5.583   4.341   1.714 -0.0213  0.2945  0.5037
    8MOL     C7 7861   5.531   4.223   1.631  0.6068 -0.2020  0.8421
    8MOL     C8 7862   5.532   4.250   1.479 -0.3961 -0.0702 -0.0813
    8MOL     C9 7863   5.454   4.146   1.397  0.9499 -0.1318 -0.2655
    8MOL    C10 7864   5.497   4.124   1.251  0.0638 -0.1352 -0.2825
    8MOL    C11 7865   5.435   4.001   1.185 -0.3551 -0.4612  0.6911
    8MOL    C12 7866   5.478   3.970   1.038  0.2322  0.1072  0.5287
    8MOL    C13 7867   5.448   4.077   0.935  0.5886  0.2049 -0.6749
    8MOL    O14 7868   5.330   4.115   0.918 -0.3708 -0.0821  0.5196
    8MOL    N15 7869   5.543   4.121   0.852 -0.1951  0.3443  0.0689
    8MOL    C16 7870   5.526   4.205   0.734 -0.2283  0.1345 -0.1783
    8MOL    C17 7871   5.603   4.164   0.607 -0.3795  0.2995  0.1798
    8MOL    C18 7872   5.757   4.133   0.628  0.3837 -0.6802 -0.7368
    8MOL    C19 7873   5.816   4.089   0.494  0.3821 -0.0039 -0.2998
    8MOL    C20 7874   5.958   4.037   0.491  0.4852 -0.0202 -0.3675
    8MOL    C21 7875   6.056   4.158   0.491 -0.2265  0.1475  0.1029
    8MOL    N22 7876   6.195   4.108   0.486 -0.2446  0.2308  0.2334
    8MOL    H23 7877   5.946   4.279   1.846  1.5834  0.7213  2.0447
    8MOL    H24 7878   5.846   4.403   1.785 -1.7757 -1.1310 -0.1843
    8MOL    H25 7879   5.734   4.234   2.008 -0.1350  0.4296  0.1062
    8MOL    H26 7880   5.731   4.162   1.842 -0.6698  0.1921 -1.4960
    8MOL    H27 7881   5.593   4.422   1.912  0.4704 -0.3007  1.0692
    8MOL    H28 7882   5.517   4.269   1.908  1.5013  1.9406  1.1716
    8MOL    H29 7883   5.510   4.418   1.688 -0.6414 -0.9106 -1.4101
    8MOL    H30 7884   5.676   4.378   1.672 -0.0357  0.6843  0.8180
    8MOL    H31 7885   5.429   4.202   1.664  0.3065 -1.2602 -0.7184
    8MOL    H32 7886   5.587   4.131   1.649  1.4672  0.1637  0.0762
    8MOL    H33 7887   5.482   4.345   1.460 -0.1161 -0.2569 -1.8463
    8MOL    H34 7888   5.633   4.262   1.441 -1.4282  0.3414 -2.8173
    8MOL    H35 7889   5.445   4.045   1.438 -3.0863  0.2938  0.1631
    8MOL    H36 7890   5.351   4.181   1.405  2.0344  3.1939 -0.2317
    8MOL    H37 7891   5.470   4.201   1.179 -1.2854 -1.0608 -0.8008
    8MOL    H38 7892   5.606   4.122   1.248  0.1423  1.2507  1.0094
    8MOL    H39 7893   5.327   4.010   1.199 -0.4793  3.0430 -1.8320
    8MOL    H40 7894   5.454   3.905   1.231 -0.6818 -1.1215 -0.5127
    8MOL    H41 7895   5.586   3.954   1.037  0.5602  1.9710 -2.3229
    8MOL    H42 7896   5.436   3.873   1.013  1.3754 -0.0780 -0.7705
    8MOL    H43 7897   5.635   4.085   0.871 -1.0270 -1.6562  0.5201
    8MOL    H44 7898   5.565   4.300   0.770 -0.7936 -0.1110  1.1167
    8MOL    H45 7899   5.419   4.215   0.713 -0.3793 -1.4983 -0.3025
    8MOL    H46 7900   5.593   4.239   0.529 -0.7488 -0.9938 -1.0446
    8MOL    H47 7901   5.553   4.083   0.554 -1.4067  1.2617 -0.3442
    8MOL    H48 7902   5.817   4.219   0.658 -0.2459 -0.2966 -0.5834
    8MOL    H49 7903   5.774   4.061   0.708  0.2086 -0.0293 -0.1145
    8MOL    H50 7904   5.792   4.161   0.416 -0.4142  0.2002  0.1226
    8MOL    H51 7905   5.760   3.999   0.467  1.3077 -0.4763 -0.6702
    8MOL    H52 7906   5.982   3.993   0.588  0.5803  1.3638  0.2384
    8MOL    H53 7907   5.974   3.972   0.404 -0.6253 -1.2876  0.3653
    8MOL    H54 7908   6.028   4.222   0.408  0.6840  0.3549 -0.0434
    8MOL    H55 7909   6.054   4.229   0.573 -0.4560  0.4727 -0.1835
    8MOL    H56 7910   6.247   4.113   0.572 -1.7930  0.4774  1.1801
    8MOL    H57 7911   6.009   4.433   1.998  0.7418  0.8023  2.5474
    8MOL    C58 7912   6.252   4.045   0.380  0.1922 -0.1632  0.2136
    8MOL    O59 7913   6.205   4.065   0.266 -0.1276 -0.0607  0.7584
    8MOL    C60 7914   6.386   3.972   0.391 -0.9136  0.4883 -0.2760
    8MOL    C61 7915   6.395   3.854   0.291 -0.0680  0.5294 -0.0836
    8MOL    C62 7916   6.541   3.820   0.253 -0.0311  0.5395 -0.6749
    8MOL    C63 7917   6.625   3.739   0.359 -0.5152  0.6987 -1.1456
    8MOL    C64 7918   6.754   3.661   0.311 -0.2620 -0.0403  0.7388
    8MOL    C65 7919   6.815   3.574   0.434 -0.2257  0.5991 -0.3551
    8MOL    C66 7920   6.964   3.527   0.404 -0.3989 -0.0576  0.4595
    8MOL    C67 7921   7.017   3.439   0.516 -0.2450  0.6299  0.7039
    8MOL    C68 7922   7.174   3.411   0.505 -0.3903 -1.0134  0.0460
    8MOL    C69 7923   7.262   3.517   0.574 -0.8018  0.2263  0.0505
    8MOL    C70 7924   7.250   3.510   0.731  0.1287  0.4516 -0.7415
    8MOL    O71 7925   7.159   3.455   0.792  0.1220  0.1406  0.5033
    8MOL    N72 7926   7.342   3.577   0.796  0.5305 -0.5560 -0.6155
    8MOL    C73 7927   7.366   3.579   0.938  0.2352 -0.0026  0.2379
    8MOL    C74 7928   7.479   3.685   0.968  0.1805  0.2102  0.0991
    8MOL    C75 7929   7.517   3.706   1.117 -0.2105  0.1284 -0.3304
    8MOL    C76 7930   7.608   3.818   1.152 -0.7581 -0.0753  0.2453
    8MOL    C77 7931   0.059   3.795   1.109 -0.6057  0.4814  0.1583
    8MOL    C78 7932   0.148   3.914   1.098  0.8896  0.7655 -0.4053
    8MOL    N79 7933   0.276   3.868   1.107 -0.2231 -0.1431  0.9695
    8MOL    H80 7934   6.413   3.941   0.492 -1.6092  1.3174  0.1672
    8MOL    H81 7935   6.453   4.052   0.363 -0.0036 -0.5730 -1.1799
    8MOL    H82 7936   6.343   3.768   0.334  1.7174 -0.7816 -0.4735
    8MOL    H83 7937   6.348   3.881   0.197 -0.7575 -3.1295 -0.8660
    8MOL    H84 7938   6.602   3.907   0.230  1.8188 -0.3887  0.5259
    8MOL    H85 7939   6.543   3.763   0.161 -1.5398  0.8733 -0.9280
    8MOL    H86 7940   6.558   3.659   0.391 -1.1725  1.3531 -0.8890
    8MOL    H87 7941   6.644   3.803   0.445 -1.7527 -0.3297 -0.0773
    8MOL    H88 7942   6.725   3.591   0.233 -3.0531  3.3673 -1.4417
    8MOL    H89 7943   6.817   3.742   0.275  0.4774 -1.6905 -1.8091
    8MOL    H90 7944   6.744   3.494   0.453  0.1190  0.0811 -1.2282
    8MOL    H91 7945   6.823   3.633   0.525  1.7927 -1.7785  1.0920
    8MOL    H92 7946   7.029   3.613   0.389  1.4862 -1.2566  1.4639
    8MOL    H93 7947   6.965   3.472   0.309 -0.1180  1.3080 -0.3380
    8MOL    H94 7948   6.987   3.484   0.611 -2.3574  1.0566 -0.1400
    8MOL    H95 7949   6.963   3.345   0.510 -0.4083  0.8366 -1.3968
    8MOL    H96 7950   7.210   3.401   0.403 -0.9820  1.5233 -0.4622
    8MOL    H97 7951   7.195   3.317   0.556  0.5834 -0.5173  0.5686
    8MOL    H98 7952   7.368   3.499   0.561 -0.3464  2.3329  0.6469
    8MOL    H99 7953   7.244   3.616   0.532  3.8646  0.8061 -0.8053
    8MOL   H100 7954   7.404   3.633   0.739  0.3312 -1.8326 -2.1394
    8MOL   H101 7955   7.409   3.484   0.968  0.9449  0.5802  1.0964
    8MOL   H102 7956   7.277   3.614   0.992  1.1232  0.0518  1.7119
    8MOL   H103 7957   7.567   3.650   0.915 -0.3106 -0.9688  0.0444
    8MOL   H104 7958   7.447   3.784   0.937 -0.6200 -0.2068 -0.4280
    8MOL   H105 7959   7.543   3.613   1.168  0.4519  0.6207  0.2455
    8MOL   H106 7960   7.421   3.730   1.164 -0.7549  1.1162 -1.9232
    8MOL   H107 7961   7.567   3.906   1.101  1.7609  0.3899 -1.0721
    8MOL   H108 7962   7.604   3.844   1.257 -1.1145 -0.6917  0.3829
    8MOL   H109 7963   0.074   3.735   1.019  0.2366  1.0896 -0.1120
    8MOL   H110 7964   0.097   3.727   1.184 -0.1059  1.3017  0.6565
    8MOL   H111 7965   0.137   3.984   1.181  2.8488  1.2103 -0.4990
    8MOL   H112 7966   0.132   3.969   1.006 -1.0593  0.9761  0.0337
    8MOL   H113 7967   0.316   3.862   1.200  0.9167  0.5439  0.5322
    8MOL   C114 7968   0.362   3.865   1.006  0.5128 -1.1771  0.1380
    8MOL   O115 7969   0.327   3.903   0.895  0.0092  0.5583 -0.8866
    8MOL   C116 7970   0.508   3.810   1.037 -0.1448  0.4050 -0.7921
    8MOL   C117 7971   0.621   3.901   0.985 -0.2466 -0.3320  0.1879
    8MOL   C118 7972   0.748   3.881   1.068 -0.6327 -0.6523 -0.2868
    8MOL   C119 7973   0.869   3.960   1.012 -0.4333 -0.0760 -0.2090
    8MOL   C120 7974   0.997   3.952   1.103 -0.5832  0.2360  0.1700
    8MOL   C121 7975   1.109   4.046   1.050  0.2014 -0.2727  0.6566
    8MOL   C122 7976   1.100   4.198   1.079  0.0636  0.9638 -0.1903
    8MOL   C123 7977   1.212   4.269   1.009  0.3701 -0.2303 -0.9824
    8MOL   C124 7978   1.188   4.419   1.025  0.0797  0.0041  0.9123
    8MOL   C125 7979   1.306   4.514   0.994  0.2395 -0.3879  0.3608
    8MOL   C126 7980   1.320   4.558   0.850  0.4512  0.0913  0.4283
    8MOL   O127 7981   1.377   4.493   0.762  0.6511 -0.1065  0.3441
    8MOL   N128 7982   1.254   4.678   0.832  0.2081  0.0247  0.1528
    8MOL   C129 7983   1.201   4.723   0.705 -0.1804 -0.6124 -0.4747
    8MOL   C130 7984   1.050   4.706   0.705  0.5380 -0.6966 -0.3016
    8MOL   C131 7985   0.979   4.748   0.580 -0.1279  0.8188 -0.7440
    8MOL   C132 7986   0.826   4.715   0.586  0.6651  0.1336  0.4194
    8MOL   C133 7987   0.737   4.788   0.484  0.1364 -0.4370  0.0919
    8MOL   C134 7988   0.592   4.741   0.507  0.1991 -0.1886  1.0564
    8MOL   N135 7989   0.495   4.803   0.414 -0.1558 -0.2941 -0.1461
    8MOL   H136 7990   0.512   3.803   1.145 -0.5464 -0.5521 -0.8359
    8MOL   H137 7991   0.519   3.705   1.010  1.2409  0.3872 -0.2131
    8MOL   H138 7992   0.608   4.008   1.003 -1.9079 -0.4656 -0.1819
    8MOL   H139 7993   0.628   3.888   0.877 -0.0597  0.4617  0.0997
    8MOL   H140 7994   0.729   3.904   1.172  1.8851  0.3758 -0.0083
    8MOL   H141 7995   0.774   3.775   1.068  2.3944  0.0560  0.0051
    8MOL   H142 7996   0.891   3.926   0.911 -0.6362  1.7370 -0.8896
    8MOL   H143 7997   0.834   4.063   1.002 -1.8205 -0.7121 -2.1793
    8MOL   H144 7998   0.986   3.972   1.210  2.2974  1.1773  0.3251
    8MOL   H145 7999   1.041   3.853   1.094  0.0336  0.6023 -0.9739
    8MOL   H146 8000   1.112   4.021   0.944  0.6083  0.3517  0.5182
    8MOL   H147 8001   1.202   4.011   1.094 -0.4647 -2.3795  0.4218
    8MOL   H148 8002   1.004   4.236   1.045 -0.2613  2.7132  2.5029
    8MOL   H149 8003   1.086   4.211   1.187 -3.2190  1.0742 -0.5684
    8MOL   H150 8004   1.222   4.251   0.902 -1.7675  0.6393 -1.3309
    8MOL   H151 8005   1.306   4.229   1.048  1.1268  0.9395 -1.5920
    8MOL   H152 8006   1.150   4.444   1.125  2.2591 -0.2370  1.8298
    8MOL   H153 8007   1.115   4.445   0.949 -1.1170  0.2498  2.1193
    8MOL   H154 8008   1.398   4.463   1.024  0.3372 -1.5304 -1.7475
    8MOL   H155 8009   1.307   4.607   1.051  0.4997  2.7379 -4.4316
    8MOL   H156 8010   1.206   4.721   0.909  0.0005 -0.0764  0.0797
    8MOL   H157 8011   1.252   4.664   0.629  1.6563 -0.9620  0.9775
    8MOL   H158 8012   1.233   4.826   0.692 -2.5530  0.0606 -1.2969
    8MOL   H159 8013   1.003   4.763   0.786 -0.9679  0.4933 -1.9898
    8MOL   H160 8014   1.023   4.604   0.730  0.2742 -0.6931 -0.5778
    8MOL   H161 8015   0.996   4.855   0.578 -3.4998  1.3718 -1.7258
    8MOL   H162 8016   1.022   4.697   0.494 -0.5361 -1.4375  0.3526
    8MOL   H163 8017   0.803   4.610   0.570  1.2889  0.0170  0.2444
    8MOL   H164 8018   0.791   4.733   0.688 -1.4904  0.1369 -0.2964
    8MOL   H165 8019   0.768   4.762   0.382  2.0267  1.1785  0.2226
    8MOL   H166 8020   0.734   4.897   0.490 -0.7017 -0.4722  0.3822
    8MOL   H167 8021   0.567   4.635   0.505  0.0361 -0.1372  0.4252
    8MOL   H168 8022   0.569   4.761   0.612 -1.3489  0.5204  0.5832
    8MOL   H169 8023   0.468   4.744   0.336 -1.6510  0.6888 -0.3956
    8MOL   C170 8024   0.445   4.921   0.430 -0.5548  0.0882 -0.3308
    8MOL   O171 8025   0.476   4.991   0.523 -0.0430 -0.4410  0.7684
    8MOL   C172 8026   0.337   4.976   0.327  0.1623  0.0013 -0.6060
    8MOL   C173 8027   0.239   5.079   0.386  0.4429 -0.0216  0.1067
    8MOL   C174 8028   0.147   5.136   0.280  0.1131  0.0254  0.0512
    8MOL   C175 8029   0.056   5.248   0.327 -0.5285  0.4845 -0.2817
    8MOL   C176 8030   7.665   5.312   0.217 -0.3258  0.1064  0.2979
    8MOL   C177 8031   7.590   5.446   0.257  0.5482  0.6901 -0.5071
    8MOL   C178 8032   7.496   5.447   0.382 -0.1057  0.4317  0.3666
    8MOL   C179 8033   7.457   5.581   0.444 -0.4360  0.0777 -0.1036
    8MOL   C180 8034   7.395   5.555   0.583 -0.7229  0.0842  0.0620
    8MOL   C181 8035   7.372   5.676   0.682  0.2114  0.0071 -0.7794
    8MOL   C182 8036   7.500   5.760   0.703 -0.0164  0.4424 -0.0768
    8MOL   O183 8037   7.590   5.714   0.769 -0.3681  0.0935 -0.6795
    8MOL   N184 8038   7.513   5.882   0.651 -0.9537 -0.6083  0.1773
    8MOL   C185 8039   7.625   5.968   0.686  0.0922 -0.2262  0.2681
    8MOL   C186 8040   0.060   5.945   0.598  0.1566  0.1290  0.3318
    8MOL   C187 8041   0.047   5.988   0.452  0.2298 -0.4890  0.7064
    8MOL   C188 8042   7.666   5.890   0.351  0.7108 -0.6585  0.4134
    8MOL   C189 8043   7.637   5.958   0.211 -0.2864 -0.0229  0.4971
    8MOL   C190 8044   7.566   5.871   0.107 -0.2757 -0.2322  0.0116
    8MOL   N191 8045   7.538   5.950   7.680 -0.0166  0.2041 -0.9542
    8MOL   H192 8046   0.380   5.029   0.241  0.6090  0.6455  0.0031
    8MOL   H193 8047   0.278   4.888   0.303  0.2968 -0.4467  0.6478
    8MOL   H194 8048   0.292   5.165   0.429  1.7639 -1.9253  2.3723
    8MOL   H195 8049   0.182   5.041   0.470 -1.3068  4.7205  1.2691
    8MOL   H196 8050   0.087   5.062   0.228  0.9010  1.2303 -2.6423
    8MOL   H197 8051   0.218   5.173   0.206 -0.3188 -0.6906 -0.7295
    8MOL   H198 8052   7.681   5.206   0.402 -1.3513 -0.9924 -1.8136
    8MOL   H199 8053   0.122   5.323   0.369 -0.5384 -0.8696  2.2615
    8MOL   H200 8054   0.043   5.324   0.134 -0.5777 -1.7136 -0.2019
    8MOL   H201 8055   7.582   5.251   0.182 -0.8215  1.6983 -1.3371
    8MOL   H202 8056   7.530   5.477   0.171  1.0688 -1.3934 -1.6574
    8MOL   H203 8057   7.660   5.524   0.286  0.6631  0.2378  0.4465
    8MOL   H204 8058   7.414   5.379   0.359 -0.5588  0.2037  2.5374
    8MOL   H205 8059   7.563   5.403   0.456  1.2406 -0.1759 -1.1963
    8MOL   H206 8060   7.549   5.639   0.457  0.4358 -1.7272  2.0002
    8MOL   H207 8061   7.399   5.639   0.372 -0.5557 -0.0322 -0.0968
    8MOL   H208 8062   7.469   5.496   0.638 -0.8200  0.1483  0.2604
    8MOL   H209 8063   7.308   5.488   0.578 -0.8623  0.1351  1.5855
    8MOL   H210 8064   7.287   5.732   0.644  0.2744  0.5582 -0.1187
    8MOL   H211 8065   7.347   5.641   0.783 -0.7853  0.6525 -0.7943
    8MOL   H212 8066   7.442   5.929   0.598  1.4541  0.8059 -1.9342
    8MOL   H213 8067   7.639   5.960   0.794 -2.5154 -0.9478  0.5839
    8MOL   H214 8068   7.597   6.070   0.660 -1.3381 -0.5802  0.3470
    8MOL   H215 8069   0.132   6.016   0.638 -0.3988  0.8376  0.1075
    8MOL   H216 8070   0.105   5.846   0.602 -0.3798 -0.0976  0.8059
    8MOL   H217 8071   0.008   6.090   0.453 -0.3719 -0.6392 -2.2943
    8MOL   H218 8072   0.145   6.011   0.410  0.0643 -0.5287  0.2974
    8MOL   H219 8073   7.566   5.856   0.378  0.4966 -1.6099 -1.4986
    8MOL   H220 8074   0.040   5.803   0.349 -1.2341 -2.1376 -2.1723
    8MOL   H221 8075   0.040   5.996   0.172  0.4501 -0.9915  1.2858
    8MOL   H222 8076   7.570   6.044   0.211 -0.9931 -0.5730 -0.3731
    8MOL   H223 8077   7.469   5.848   0.150  0.0996 -1.7928  0.0774
    8MOL   H224 8078   7.631   5.785   0.091  1.3306  0.0735  4.3392
    8MOL   H225 8079   7.510   6.046   0.005  0.2939  0.1452 -0.0698
    8MOL   C226 8080   7.523   5.889   7.561  0.1887 -0.0378 -0.6561
    8MOL   O227 8081   7.543   5.767   7.538 -0.4543 -0.0777 -0.5188
    8MOL   C228 8082   7.490   5.984   7.448 -0.0665 -0.3330 -0.3143
    8MOL   C229 8083   7.353   6.051   7.461  0.3595  0.0998  0.3230
    8MOL   C230 8084   7.298   6.119   7.333  0.1786  0.6279 -0.3073
    8MOL   C231 8085   7.185   6.209   7.375  0.3249 -0.2272  0.0217
    8MOL   C232 8086   7.141   6.305   7.257  0.5300 -0.3509 -0.1886
    8MOL   C233 8087   7.023   6.398   7.275 -0.1463  0.3775  0.0076
    8MOL   C234 8088   7.036   6.530   7.194  0.3100 -0.2936 -0.7009
    8MOL   C235 8089   7.028   6.526   7.037  0.5495 -0.3002 -0.1482
    8MOL   C236 8090   6.876   6.518   6.998 -0.2614 -0.2715 -0.0381
    8MOL   C237 8091   6.846   6.527   6.848  0.6171  0.0890 -0.8471
    8MOL   C238 8092   6.899   6.401   6.774  0.8514 -0.8902  0.3172
    8MOL   O239 8093   7.018   6.387   6.751 -0.4333  0.4632  0.3180
    8MOL   N240 8094   6.806   6.323   6.714 -0.1263 -0.4852  0.2348
    8MOL   C241 8095   6.829   6.213   6.619 -0.6190  0.0695 -0.1395
    8MOL   C242 8096   6.721   6.109   6.615  0.2312  0.5459 -0.5707
    8MOL   C243 8097   6.688   6.029   6.738 -0.2129  0.2995 -0.9305
    8MOL   C244 8098   6.812   5.970   6.804 -0.2002  0.3100 -0.0141
    8MOL   C245 8099   6.796   5.921   6.952 -0.1026 -0.3219 -0.0511
    8MOL   C246 8100   6.932   5.891   7.021 -0.2635 -0.4060 -0.3148
    8MOL   N247 8101   6.915   5.817   7.147 -0.5829  0.1231  0.2827
    8MOL   H248 8102   7.498   5.932   7.353  1.3226 -1.8381  0.5969
    8MOL   H249 8103   7.576   6.051   7.453 -1.1307  1.0450 -0.4090
    8MOL   H250 8104   7.279   5.973   7.479  0.0032  0.9451  2.7117
    8MOL   H251 8105   7.354   6.108   7.554  2.4771  1.6422 -0.6081
    8MOL   H252 8106   7.367   6.184   7.279 -0.5338  1.0378 -0.7332
    8MOL   H253 8107   7.259   6.046   7.262  0.1590 -0.6804  1.0317
    8MOL   H254 8108   7.220   6.284   7.446 -2.8989  0.9758  0.4342
    8MOL   H255 8109   7.093   6.162   7.410 -0.4363  0.6929 -0.6962
    8MOL   H256 8110   7.130   6.254   7.161 -4.3992  1.0159 -0.4976
    8MOL   H257 8111   7.224   6.374   7.238 -1.2767  2.2777  1.1878
    8MOL   H258 8112   6.927   6.347   7.262  1.2814 -1.9131 -1.7578
    8MOL   H259 8113   7.008   6.416   7.381 -3.8886 -0.2250 -0.3288
    8MOL   H260 8114   7.129   6.582   7.217  0.3797 -0.7261  0.0114
    8MOL   H261 8115   6.957   6.595   7.232 -1.5909 -1.2464 -2.9096
    8MOL   H262 8116   7.055   6.620   6.990  2.8223 -0.8056  0.0953
    8MOL   H263 8117   7.083   6.439   7.000  0.3866  0.2487 -1.6860
    8MOL   H264 8118   6.835   6.422   7.031  0.2209 -1.8137 -3.7230
    8MOL   H265 8119   6.808   6.577   7.059  1.7972 -0.1027  2.2148
    8MOL   H266 8120   6.737   6.538   6.852  0.4343 -1.8425  0.2030
    8MOL   H267 8121   6.886   6.617   6.800  2.0614 -0.0816  0.0205
    8MOL   H268 8122   6.711   6.351   6.734 -0.1815 -1.5787  1.6252
    8MOL   H269 8123   6.924   6.166   6.646  0.0269  1.2941 -0.2395
    8MOL   H270 8124   6.840   6.252   6.518 -1.5290  1.6747  0.3545
    8MOL   H271 8125   6.777   6.047   6.545 -0.1812 -1.2597  0.6727
    8MOL   H272 8126   6.631   6.144   6.565 -1.3842  0.9524  2.5101
    8MOL   H273 8127   6.642   6.102   6.806 -0.6765  0.4191 -1.3754
    8MOL   H274 8128   6.618   5.951   6.709 -1.6496  1.4734 -0.7013
    8MOL   H275 8129   6.890   6.042   6.829  3.3021 -3.0074 -1.0382
    8MOL   H276 8130   6.855   5.887   6.748 -0.8060  0.6038 -0.9438
    8MOL   H277 8131   6.742   5.828   6.965 -1.0532  0.3535  0.8735
    8MOL   H278 8132   6.734   5.984   7.014 -0.8093  0.1955 -1.2642
    8MOL   H279 8133   6.986   5.984   7.037 -0.4578  0.2687 -3.1815
    8MOL   H280 8134   6.995   5.841   6.947 -0.3567 -0.6922 -0.2019
    8MOL   H281 8135   6.912   5.717   7.129  0.5238  0.3359 -1.1120
    8MOL   C282 8136   6.910   5.858   7.272  0.0220 -0.2361 -0.2511
    8MOL   O283 8137   6.912   5.977   7.303  0.4357 -0.1117 -0.4272
    8MOL   C284 8138   6.891   5.750   7.383 -0.1458  0.3187 -0.1873
    8MOL   C285 8139   7.023   5.708   7.444  0.1852 -0.0311 -0.6161
    8MOL   C286 8140   7.008   5.620   7.565 -0.2778 -0.8236  0.4577
    8MOL   C287 8141   7.135   5.586   7.631  0.2447 -0.5832 -0.0392
    8MOL   C288 8142   7.094   5.500   0.059 -0.3038 -0.3810 -0.6509
    8MOL   C289 8143   7.203   5.501   0.162  1.0340  0.2601 -1.5442
    8MOL   C290 8144   7.144   5.432   0.295  0.0213  0.0401  0.3333
    8MOL   C291 8145   7.149   5.279   0.296  0.1652  0.3568  0.5048
    8MOL   C292 8146   7.150   5.234   0.445  0.3354  0.6339  0.3643
    8MOL   C293 8147   7.112   5.087   0.487  0.1336 -0.6876  0.2662
    8MOL   C294 8148   6.966   5.051   0.478  0.0466 -0.3306  0.4584
    8MOL   O295 8149   6.878   5.132   0.511  0.1707 -0.2432 -0.1817
    8MOL   N296 8150   6.942   4.929   0.435 -0.4095  0.0722  0.1519
    8MOL   C297 8151   6.808   4.878   0.431 -0.1676  0.1722 -0.7470
    8MOL   C298 8152   6.794   4.752   0.522  0.0469 -0.1303 -0.0286
    8MOL   C299 8153   6.679   4.658   0.485 -0.6454 -0.2881 -0.1771
    8MOL   C300 8154   6.653   4.577   0.612 -0.1488 -0.0484 -0.1275
    8MOL   C301 8155   6.568   4.454   0.579  0.4440  1.2245 -0.0781
    8MOL   C302 8156   6.537   4.364   0.697 -0.0130  0.3812 -0.2126
    8MOL   N303 8157   6.440   4.433   0.781  0.0567  0.1071  0.9503
    8MOL   H304 8158   6.829   5.809   7.451  1.1692 -0.1414  1.4154
    8MOL   H305 8159   6.847   5.659   7.343 -1.9922  0.2342  1.9320
    8MOL   H306 8160   7.079   5.795   7.477  1.0165 -0.8154  0.0896
    8MOL   H307 8161   7.089   5.655   7.375 -2.2282 -0.7622 -2.4447
    8MOL   H308 8162   6.948   5.686   7.627 -1.4361 -1.2218 -0.2117
    8MOL   H309 8163   6.955   5.528   7.540 -1.3433  0.2934 -1.5871
    8MOL   H310 8164   7.180   5.678   7.667  0.3323  0.0180 -1.6414
    8MOL   H311 8165   7.208   5.547   7.559  1.5689  0.2938  0.8233
    8MOL   H312 8166   7.000   5.536   0.102  0.3584  0.8046 -0.1818
    8MOL   H313 8167   7.084   5.404   0.008 -0.0798 -0.4582 -0.5503
    8MOL   H314 8168   7.294   5.449   0.129  0.9547 -0.3558 -0.8086
    8MOL   H315 8169   7.224   5.606   0.179  1.7108  0.1895 -1.8962
    8MOL   H316 8170   7.042   5.469   0.311  0.5881  1.9613 -0.3199
    8MOL   H317 8171   7.201   5.472   0.379  0.3266  1.0228 -0.3276
    8MOL   H318 8172   7.234   5.235   0.243 -0.4777 -1.0515  0.6279
    8MOL   H319 8173   7.064   5.240   0.240  2.3003 -0.7502 -2.0535
    8MOL   H320 8174   7.249   5.259   0.483  0.5956 -0.7995  0.6574
    8MOL   H321 8175   7.087   5.300   0.505  3.9202  2.5233  2.2553
    8MOL   H322 8176   7.179   5.014   0.441 -0.3944 -0.3816 -0.9895
    8MOL   H323 8177   7.140   5.083   0.593 -0.0002 -0.8166  0.2974
    8MOL   H324 8178   7.017   4.872   0.399  1.2860  0.3765  3.1330
    8MOL   H325 8179   6.784   4.844   0.331  1.3830  0.7457 -1.3273
    8MOL   H326 8180   6.737   4.959   0.442  0.3855  0.6435 -0.6216
    8MOL   H327 8181   6.793   4.787   0.625  2.0833  3.4347 -1.1471
    8MOL   H328 8182   6.886   4.694   0.517  0.2055  0.1410 -0.2949
    8MOL   H329 8183   6.701   4.594   0.399  2.4983  0.2458  0.1641
    8MOL   H330 8184   6.593   4.720   0.463 -1.4351 -0.8991  1.1240
    8MOL   H331 8185   6.742   4.545   0.665 -0.6651  0.7427  1.2356
    8MOL   H332 8186   6.614   4.657   0.676  3.4009  1.2289  0.5424
    8MOL   H333 8187   6.609   4.395   0.498  0.5253  2.8793 -1.2523
    8MOL   H334 8188   6.474   4.492   0.538  0.2881  0.9135 -0.0155
    8MOL   H335 8189   6.487   4.277   0.656  0.9456 -0.5058  0.4575
    8MOL   H336 8190   6.619   4.327   0.760 -0.1077  3.0085  1.5739
    8MOL   H337 8191   6.344   4.441   0.752  0.6572  1.3176 -0.7915
    8MOL   C338 8192   6.467   4.517   0.886  0.6395  0.2507  0.3471
    8MOL   O339 8193   6.578   4.563   0.909 -0.3141 -0.0035 -0.7313
    8MOL   C340 8194   6.347   4.572   0.963  0.5252 -0.0424 -0.1046
    8MOL   C341 8195   6.345   4.724   0.984 -0.1483 -0.0767 -0.3882
    8MOL   C342 8196   6.242   4.751   1.089  0.4455 -0.1618 -0.4920
    8MOL   C343 8197   6.251   4.892   1.159 -0.8089  0.3507  0.5982
    8MOL   C344 8198   6.125   4.907   1.243 -0.7768  0.1765  0.5171
    8MOL   C345 8199   6.115   5.030   1.327 -0.1210 -0.0303 -0.3083
    8MOL   C346 8200   5.986   5.028   1.415 -0.3096  1.3001 -0.5437
    8MOL   C347 8201   5.973   5.163   1.488  0.6795 -0.4626 -0.5260
    8MOL   C348 8202   5.879   5.154   1.604 -0.0718  0.6346 -0.1340
    8MOL   C349 8203   5.729   5.132   1.581  0.0460  0.5508  0.1895
    8MOL   C350 8204   5.652   5.117   1.713  0.2894 -0.3750 -0.7817
    8MOL   O351 8205   5.634   5.206   1.796 -0.2971 -0.2670 -0.2454
    8MOL   N352 8206   5.598   4.998   1.745  0.4024  0.7979 -0.2032
    8MOL   C353 8207   5.535   4.959   1.867  0.0393 -0.4198  0.0494
    8MOL   C354 8208   5.589   4.819   1.909 -0.6289  0.1788 -0.8599
    8MOL   C355 8209   5.552   4.778   2.053  0.4860 -0.8471  0.4639
    8MOL   C356 8210   5.644   4.846   2.163  0.7368 -0.2441  0.3169
    8MOL   C357 8211   5.595   4.793   2.307  0.4009  0.0868  0.1456
    8MOL   C358 8212   5.652   4.877   2.422  0.3345  0.1866  0.4249
    8MOL   N359 8213   5.791   4.845   2.452  0.2805  0.0321 -0.2692
    8MOL   H360 8214   6.328   4.510   1.050 -0.3844 -2.6162 -2.0658
    8MOL   H361 8215   6.259   4.558   0.901  1.0749 -1.5175 -0.5715
    8MOL   H362 8216   6.444   4.754   1.020 -0.5272 -0.0351  0.6359
    8MOL   H363 8217   6.342   4.783   0.892  3.0064  2.9933  1.3518
    8MOL   H364 8218   6.246   4.676   1.168 -1.1273  0.5811  0.3326
    8MOL   H365 8219   6.142   4.749   1.045  0.3380  0.4152 -0.2927
    8MOL   H366 8220   6.345   4.900   1.214  0.5891  0.8621 -1.7697
    8MOL   H367 8221   6.259   4.975   1.089 -0.6671  0.3008  0.5562
    8MOL   H368 8222   6.038   4.896   1.178 -0.2531  2.8744 -0.6903
    8MOL   H369 8223   6.122   4.830   1.320  1.0764 -0.5398 -0.1000
    8MOL   H370 8224   6.200   5.049   1.393 -0.7661 -0.6761  0.7313
    8MOL   H371 8225   6.110   5.121   1.267 -1.8880  0.0832 -0.0069
    8MOL   H372 8226   5.892   5.019   1.360 -0.3035  1.8050 -0.6444
    8MOL   H373 8227   5.989   4.944   1.484 -0.4644  1.0143 -0.8846
    8MOL   H374 8228   6.073   5.197   1.518  0.7016 -1.2300  0.2889
    8MOL   H375 8229   5.934   5.242   1.424 -3.3668 -0.2174  2.0332
    8MOL   H376 8230   5.882   5.255   1.645  0.4942  0.7994 -0.5717
    8MOL   H377 8231   5.920   5.097   1.687 -1.0376  1.2399  0.7762
    8MOL   H378 8232   5.681   5.220   1.539 -1.2133 -0.3934 -0.4096
    8MOL   H379 8233   5.713   5.052   1.509 -2.8996  1.3259 -0.1048
    8MOL   H380 8234   5.621   4.925   1.678  1.4401 -0.4266  1.4368
    8MOL   H381 8235   5.427   4.963   1.851  0.0957  2.0878  0.0656
    8MOL   H382 8236   5.572   5.023   1.948  0.9924  0.7344 -1.2662
    8MOL   H383 8237   5.698   4.828   1.901 -0.4921 -0.3448  0.4399
    8MOL   H384 8238   5.556   4.745   1.837 -2.1549 -0.0882  0.0991
    8MOL   H385 8239   5.447   4.799   2.069  0.3601 -0.7553 -0.4402
    8MOL   H386 8240   5.571   4.671   2.065  2.7563 -0.2534  2.5321
    8MOL   H387 8241   5.750   4.835   2.141  0.7636  1.3853 -0.4739
    8MOL   H388 8242   5.631   4.954   2.174 -2.0831 -0.4313 -0.7217
    8MOL   H389 8243   5.616   4.687   2.320  0.8414  0.2072  0.4596
    8MOL   H390 8244   5.488   4.794   2.330  0.5894 -2.1033  1.3036
    8MOL   H391 8245   5.638   4.981   2.393 -2.2212 -0.5239 -1.0322
    8MOL   H392 8246   5.601   4.856   2.517 -2.4779 -2.2223 -1.5207
    8MOL   H393 8247   5.849   4.921   2.419  1.9606 -2.2479 -2.8968
    8MOL   C394 8248   5.846   4.738   2.507 -0.0505  0.1304  0.3899
    8MOL   O395 8249   5.769   4.637   2.526 -0.6675  0.2851  0.0037
    8MOL   C396 8250   5.995   4.725   2.527  0.4974  0.2399 -0.2515
    8MOL   C397 8251   6.080   4.631   2.438 -0.1653 -0.4818  0.9785
    8MOL   C398 8252   6.075   4.682   2.288 -0.7724 -0.7126  0.4016
    8MOL   C399 8253   6.181   4.792   2.254  0.2580  0.3669 -0.2853
    8MOL   C400 8254   6.166   4.835   2.107  0.4929 -0.4627  0.4919
    8MOL   C401 8255   6.274   4.928   2.048  0.0745  0.3014 -0.6171
    8MOL   C402 8256   6.280   4.931   1.892 -0.3405 -0.5603  0.3205
    8MOL   C403 8257   6.375   5.032   1.826  0.3803 -0.3610  0.3207
    8MOL   C404 8258   6.349   5.059   1.674 -0.6278  0.1308  0.2294
    8MOL   C405 8259   6.408   5.189   1.635  0.0627 -0.3278 -0.2886
    8MOL   C406 8260   6.328   5.318   1.665  0.1597  0.0594 -1.3273
    8MOL   O407 8261   6.211   5.313   1.702 -0.0432 -0.5353  0.3005
    8MOL   N408 8262   6.395   5.427   1.668  0.4231  0.0357  0.2876
    8MOL   C409 8263   6.344   5.559   1.692 -0.9381  0.6358 -0.2398
    8MOL   C410 8264   6.357   5.586   1.846  0.8714  0.2334 -0.2005
    8MOL   C411 8265   6.328   5.731   1.882  0.5271  0.2328  0.1169
    8MOL   C412 8266   6.184   5.789   1.860 -0.0397  0.3913  0.5131
    8MOL   C413 8267   6.075   5.699   1.915  0.0700 -0.5535 -0.3023
    8MOL   C414 8268   5.943   5.759   1.961  0.6337  0.2225  0.2121
    8MOL   N415 8269   5.854   5.667   2.023 -0.6022  0.2573  0.8713
    8MOL   H416 8270   6.019   4.688   2.627 -0.7085 -0.1934 -0.1196
    8MOL   H417 8271   6.039   4.825   2.525 -0.8353  0.8738  1.1458
    8MOL   H418 8272   6.026   4.537   2.442 -1.0279  0.0771  2.6731
    8MOL   H419 8273   6.179   4.610   2.477  1.4653  2.4055 -1.3693
    8MOL   H420 8274   5.974   4.706   2.255 -0.4570 -0.1382 -0.1467
    8MOL   H421 8275   6.115   4.598   2.230  0.3762  0.3935 -0.4397
    8MOL   H422 8276   6.284   4.762   2.275  0.3979  0.6057 -0.6305
    8MOL   H423 8277   6.163   4.869   2.329 -0.7540  1.3152 -1.4872
    8MOL   H424 8278   6.176   4.739   2.055  0.9335  0.5259 -1.3101
    8MOL   H425 8279   6.067   4.878   2.094 -0.7911 -3.2914  0.5983
    8MOL   H426 8280   6.256   5.026   2.092  2.7723  0.8534 -0.6941
    8MOL   H427 8281   6.369   4.899   2.092 -1.3400  0.1795  2.4347
    8MOL   H428 8282   6.327   4.836   1.866 -1.6951 -1.4213  0.9613
    8MOL   H429 8283   6.182   4.930   1.845 -0.8329 -2.4260  1.3417
    8MOL   H430 8284   6.358   5.127   1.878  1.7604 -0.9998  2.0134
    8MOL   H431 8285   6.478   5.005   1.852  0.6168  0.9211  0.7557
    8MOL   H432 8286   6.242   5.049   1.654 -0.2612  0.5396 -2.1622
    8MOL   H433 8287   6.391   4.985   1.606 -0.7729  0.0448  0.2349
    8MOL   H434 8288   6.501   5.204   1.689 -0.1157 -1.8107  0.4431
    8MOL   H435 8289   6.428   5.181   1.528 -0.2667  2.0712 -0.5474
    8MOL   H436 8290   6.493   5.427   1.647  0.4580 -2.7347  0.2550
    8MOL   H437 8291   6.237   5.571   1.676 -0.5676  1.0520 -2.4622
    8MOL   H438 8292   6.402   5.632   1.636  2.0801 -2.1011 -0.7958
    8MOL   H439 8293   6.455   5.557   1.884  1.8426  1.3862 -1.7589
    8MOL   H440 8294   6.281   5.526   1.896  0.2320  1.4783  0.3600
    8MOL   H441 8295   6.345   5.746   1.988 -1.0626 -0.1263  0.4328
    8MOL   H442 8296   6.382   5.795   1.812 -1.0849  1.9407  0.4024
    8MOL   H443 8297   6.172   5.886   1.907  0.7085  0.9420 -0.4127
    8MOL   H444 8298   6.158   5.810   1.756  0.3979 -0.8331  0.1487
    8MOL   H445 8299   6.055   5.623   1.839 -3.8095 -0.3821  0.4109
    8MOL   H446 8300   6.120   5.649   2.001  2.7960  1.2247 -0.6380
    8MOL   H447 8301   5.976   5.830   2.037 -0.3185 -0.3343  1.1595
    8MOL   H448 8302   5.892   5.807   1.878  1.7332 -0.0891 -0.6594
    8MOL   H449 8303   5.886   5.572   2.011  0.1778  0.7711 -1.3419
    8MOL   C450 8304   5.730   5.697   2.072  0.5844  0.2567 -0.0278
    8MOL   O451 8305   5.679   5.806   2.067  0.3996 -0.0372  0.2272
    8MOL   C452 8306   5.670   5.587   2.159 -0.5961 -0.7836 -0.1745
    8MOL   C453 8307   5.550   5.531   2.091  0.0772 -0.6463 -0.1717
    8MOL   C454 8308   5.483   5.419   2.172  0.1930  0.1317 -0.0736
    8MOL   C455 8309   5.419   5.306   2.093 -0.3447 -1.0856 -0.1567
    8MOL   C456 8310   5.364   5.195   2.183 -0.1376 -0.4483 -0.2244
    8MOL   C457 8311   5.294   5.077   2.112 -0.1685  0.2572  0.0479
    8MOL   C458 8312   5.223   4.984   2.212  0.1009  0.0342  0.7425
    8MOL   C459 8313   5.152   4.869   2.142  0.5289  0.3169  0.9133
    8MOL   C460 8314   5.030   4.810   2.217 -0.3403 -0.0149 -0.1001
    8MOL   C461 8315   4.940   4.739   2.117 -0.1987 -0.0039  0.9764
    8MOL   C462 8316   4.842   4.642   2.188  0.0042  0.5263 -0.3324
    8MOL   O463 8317   4.846   4.644   2.312  0.0199  0.1923  0.5078
    8MOL   N464 8318   4.762   4.556   2.122  0.2706 -0.0819  0.3917
    8MOL   C465 8319   4.693   4.448   2.192  0.1293  0.1803 -0.1182
    8MOL   C466 8320   4.738   4.310   2.139  0.6237 -0.2214 -0.0158
    8MOL   C467 8321   4.747   4.292   1.985  0.0821  0.0421 -0.5081
    8MOL   C468 8322   4.802   4.160   1.943  0.4987  0.4724 -0.8069
    8MOL   C469 8323   4.701   4.041   1.966 -1.0940 -0.0371  0.2335
    8MOL   C470 8324   4.751   3.907   1.923 -0.0033 -0.0791 -0.2470
    8MOL   N471 8325   4.879   3.888   1.975  0.2363  0.6802 -0.0792
    8MOL   H472 8326   5.745   5.507   2.158 -0.7728 -0.9590  0.5617
    8MOL   H473 8327   5.660   5.637   2.255  0.2412 -1.6184  0.3687
    8MOL   H474 8328   5.586   5.502   1.993  0.0328 -1.8072  0.1505
    8MOL   H475 8329   5.483   5.609   2.054 -0.1964 -0.4513  0.7161
    8MOL   H476 8330   5.400   5.469   2.223 -0.1339  0.7721 -1.2316
    8MOL   H477 8331   5.557   5.382   2.243  2.5117  2.0958 -1.4157
    8MOL   H478 8332   5.499   5.269   2.029 -0.7831 -0.2077 -1.2075
    8MOL   H479 8333   5.336   5.327   2.025 -1.6475 -1.1008  1.3806
    8MOL   H480 8334   5.293   5.238   2.254  0.8986 -0.4544  0.8394
    8MOL   H481 8335   5.445   5.149   2.240 -1.6660 -1.4035  1.2322
    8MOL   H482 8336   5.366   5.020   2.053  0.4550 -0.1165  1.1483
    8MOL   H483 8337   5.237   5.114   2.027  1.4133 -1.5340 -1.8200
    8MOL   H484 8338   5.289   4.934   2.284  2.0872  2.2185  0.4779
    8MOL   H485 8339   5.152   5.026   2.283 -0.0715 -1.2643  1.3696
    8MOL   H486 8340   5.110   4.912   2.051  0.0398  1.6737  1.7599
    8MOL   H487 8341   5.217   4.782   2.130 -0.0288 -0.0611  0.6005
    8MOL   H488 8342   4.979   4.892   2.268 -0.9342  0.0623 -0.8165
    8MOL   H489 8343   5.067   4.751   2.301  0.3918 -1.4810 -1.4266
    8MOL   H490 8344   4.880   4.821   2.078 -1.4161  0.3288  3.4434
    8MOL   H491 8345   5.001   4.694   2.038  0.5733  2.5003  0.0959
    8MOL   H492 8346   4.762   4.547   2.022  0.4364  1.2858  0.2671
    8MOL   H493 8347   4.585   4.452   2.176  0.1974 -1.0177 -0.9418
    8MOL   H494 8348   4.700   4.456   2.300 -0.2818 -0.0399 -0.0726
    8MOL   H495 8349   4.836   4.280   2.175 -0.4284 -1.9717  1.4716
    8MOL   H496 8350   4.671   4.226   2.159 -1.7731  1.2853 -1.5558
    8MOL   H497 8351   4.818   4.366   1.946  1.2568 -0.4849  0.5805
    8MOL   H498 8352   4.648   4.307   1.943 -1.3520  0.9382  2.9815
    8MOL   H499 8353   4.897   4.142   1.994  0.5757  1.9740 -0.4086
    8MOL   H500 8354   4.832   4.162   1.839  1.3745  1.9551 -0.5363
    8MOL   H501 8355   4.672   4.039   2.071 -1.5969  0.6917  0.1171
    8MOL   H502 8356   4.611   4.065   1.908  0.3267 -2.0126 -2.9161
    8MOL   H503 8357   4.689   3.832   1.972  1.7903 -0.9963  0.6440
    8MOL   H504 8358   4.750   3.899   1.814 -0.6472 -0.5822 -0.2064
    8MOL   H505 8359   4.888   3.890   2.075 -1.4421 -0.7749  0.1206
    8MOL   C506 8360   4.992   3.875   1.907 -0.2540 -0.3358  0.0055
    8MOL   O507 8361   4.996   3.857   1.785  0.0334  0.1090 -0.3279
    8MOL   C508 8362   5.120   3.881   1.993  0.6290  0.2972 -0.1177
    8MOL   C509 8363   5.252   3.823   1.917 -0.5785 -0.0385  0.0717
    8MOL   C510 8364   5.313   3.924   1.820 -0.3482  0.0903 -0.2455
    8MOL   C511 8365   5.390   3.872   1.699  0.2937  0.4850 -0.3596
    8MOL   C512 8366   5.525   3.800   1.737 -0.7172  0.5578 -0.7022
    8MOL   C513 8367   5.574   3.691   1.636 -0.7089 -0.1329 -0.8957
    8MOL   C514 8368   5.600   3.749   1.496 -0.0567  0.3589  0.1072
    8MOL   C515 8369   5.682   3.654   1.403 -0.1320  0.4734  0.1978
    8MOL   C516 8370   5.695   3.708   1.260  0.3055  0.3836  0.1605
    8MOL   C517 8371   5.817   3.657   1.180  0.0081  0.8951  0.6478
    8MOL   C518 8372   5.794   3.512   1.124 -0.2454  0.3723 -0.4012
    8MOL   O519 8373   5.804   3.416   1.202 -0.5174 -0.3273 -0.3478
    8MOL   N520 8374   5.769   3.504   0.996 -0.4202  0.4996  0.6759
    8MOL   C521 8375   5.736   3.389   0.917 -0.5868 -0.0564 -0.6900
    8MOL   C522 8376   5.589   3.346   0.937  0.3353 -0.3228  0.3917
    8MOL   C523 8377   5.480   3.443   0.956  0.1729  0.2557 -0.3920
    8MOL   C524 8378   5.344   3.403   0.894  0.4037 -0.5429  0.3356
    8MOL   C525 8379   5.286   3.262   0.939  0.1680  0.2840  0.3095
    8MOL   C526 8380   5.173   3.209   0.860 -0.0714 -0.0891 -0.2808
    8MOL   N527 8381   5.126   3.080   0.904  0.2011 -0.4143  0.1120
    8MOL   H528 8382   5.111   3.817   2.080 -0.0939 -0.9330 -1.0815
    8MOL   H529 8383   5.122   3.981   2.037 -2.2329  0.3458 -0.0188
    8MOL   H530 8384   5.221   3.731   1.868 -0.5092  0.3868 -0.7741
    8MOL   H531 8385   5.326   3.791   1.990 -1.2118  0.1043  0.7944
    8MOL   H532 8386   5.385   3.981   1.878  0.3622  0.8039 -1.7908
    8MOL   H533 8387   5.242   3.994   1.776 -0.6552 -1.2674 -1.9493
    8MOL   H534 8388   5.328   3.813   1.632  0.9247  2.1878 -2.4937
    8MOL   H535 8389   5.416   3.954   1.633  0.0807 -0.0012 -1.0511
    8MOL   H536 8390   5.604   3.871   1.762 -0.2309 -0.7961  1.6706
    8MOL   H537 8391   5.499   3.736   1.821 -2.0206 -1.7645 -2.8168
    8MOL   H538 8392   5.654   3.627   1.674 -1.3237  0.4823  1.4883
    8MOL   H539 8393   5.500   3.612   1.622 -0.3456 -0.3680 -1.5324
    8MOL   H540 8394   5.503   3.777   1.454  0.3826 -0.3845 -1.4670
    8MOL   H541 8395   5.647   3.846   1.511  1.0834 -0.3156  0.9506
    8MOL   H542 8396   5.779   3.628   1.446  0.4703 -0.5473 -1.7016
    8MOL   H543 8397   5.625   3.562   1.392 -2.2479  1.6280  1.2513
    8MOL   H544 8398   5.710   3.815   1.248 -0.4588  0.3437 -1.2603
    8MOL   H545 8399   5.597   3.683   1.220  0.9006 -0.8025 -0.5928
    8MOL   H546 8400   5.840   3.720   1.094  1.3896 -1.0620 -0.4670
    8MOL   H547 8401   5.899   3.649   1.252  0.6778 -1.7121 -0.3321
    8MOL   H548 8402   5.783   3.590   0.945  3.2431 -0.7834 -0.6284
    8MOL   H549 8403   5.808   3.315   0.954  0.1387 -0.0760 -2.0802
    8MOL   H550 8404   5.752   3.416   0.812 -1.0775 -1.2996 -1.0896
    8MOL   H551 8405   5.569   3.293   1.031 -0.3762 -0.7048  0.0338
    8MOL   H552 8406   5.561   3.279   0.856 -0.1033 -1.6701  1.6237
    8MOL   H553 8407   5.503   3.525   0.889  1.0284 -1.0017 -1.6688
    8MOL   H554 8408   5.469   3.471   1.061  0.7916 -0.8654 -0.0205
    8MOL   H555 8409   5.358   3.406   0.786 -0.6263 -1.7465  0.1583
    8MOL   H556 8410   5.269   3.480   0.910 -0.3152 -0.9807 -0.8650
    8MOL   H557 8411   5.359   3.182   0.942  0.9608  1.0441  1.4277
    8MOL   H558 8412   5.245   3.279   1.039 -1.2936  3.1917 -0.7232
    8MOL   H559 8413   5.090   3.280   0.864 -1.4769 -1.4837 -3.4366
    8MOL   H560 8414   5.192   3.212   0.752  0.0598 -0.0508 -0.2574
    8MOL   H561 8415   5.081   3.067   0.993 -2.5590  1.6445 -0.9113
    8MOL   C562 8416   5.134   2.964   0.835 -0.0070 -0.1552  0.1328
    8MOL   O563 8417   5.179   2.964   0.718  0.0195 -0.5951  0.0421
    8MOL   C564 8418   5.089   2.827   0.896 -0.3531 -0.1187  0.1030
    8MOL   C565 8419   5.208   2.723   0.890  0.0761  0.5146  0.3283
    8MOL   C566 8420   5.160   2.595   0.966 -0.3596 -0.3942 -0.3970
    8MOL   C567 8421   5.251   2.475   0.954 -0.9433 -0.4759 -0.3930
    8MOL   C568 8422   5.230   2.395   0.829  0.4530  0.1389 -0.5896
    8MOL   C569 8423   5.342   2.289   0.815 -0.6989 -0.2761  0.1531
    8MOL   C570 8424   5.323   2.214   0.681 -0.5141 -0.1228 -0.1332
    8MOL   C571 8425   5.395   2.082   0.668 -0.4156 -0.3055 -0.2713
    8MOL   C572 8426   5.389   2.032   0.524  0.5210 -0.0368  0.5022
    8MOL   C573 8427   5.453   1.901   0.500 -0.0048  0.0292 -0.0727
    8MOL   C574 8428   5.434   1.846   0.353 -0.7391  0.3722  0.3351
    8MOL   O575 8429   5.394   1.918   0.262 -0.3317  0.2428 -0.1441
    8MOL   N576 8430   5.454   1.714   0.340  0.1960  0.0149  0.1982
    8MOL   C577 8431   5.457   1.651   0.210 -0.2518  0.9541  0.4248
    8MOL   C578 8432   5.451   1.499   0.219  0.3269  0.2623  0.3718
    8MOL   C579 8433   5.328   1.437   0.281 -0.8210  0.5339  0.0593
    8MOL   C580 8434   5.345   1.279   0.268  0.1752 -0.1565  0.1217
    8MOL   C581 8435   5.323   1.232   0.121 -0.4685 -0.1218  0.0607
    8MOL   C582 8436   5.332   1.082   0.108 -0.6010  0.1511  0.3543
    8MOL   N583 8437   5.463   1.038   0.151 -0.3163 -0.0829  0.4552
    8MOL   H584 8438   5.062   2.851   0.999 -1.5021 -0.6356 -0.0712
    8MOL   H585 8439   5.003   2.782   0.847 -1.0839  0.3501  0.9232
    8MOL   H586 8440   5.225   2.687   0.788 -2.2926  1.5380 -0.4595
    8MOL   H587 8441   5.290   2.779   0.935  0.1356 -0.7993  1.9183
    8MOL   H588 8442   5.066   2.564   0.920 -1.9029  3.2133  0.1503
    8MOL   H589 8443   5.142   2.609   1.073  1.1981 -1.9151  0.0952
    8MOL   H590 8444   5.355   2.502   0.939 -1.2882  0.1272 -1.8297
    8MOL   H591 8445   5.248   2.412   1.043  0.8886 -1.9360 -1.3261
    8MOL   H592 8446   5.128   2.355   0.835 -0.7806  3.3322  0.9682
    8MOL   H593 8447   5.221   2.467   0.747  0.9437 -0.8697 -1.5376
    8MOL   H594 8448   5.441   2.335   0.807 -1.5843  1.8462  1.1884
    8MOL   H595 8449   5.341   2.228   0.905 -0.6527  1.0012  1.0289
    8MOL   H596 8450   5.219   2.179   0.681 -0.1643 -1.1950  1.3230
    8MOL   H597 8451   5.333   2.281   0.596  0.6101 -0.0898  0.0201
    8MOL   H598 8452   5.356   2.005   0.734  0.1818 -2.2320 -2.0946
    8MOL   H599 8453   5.497   2.106   0.696  0.2982 -1.9065 -1.4345
    8MOL   H600 8454   5.415   2.107   0.450  1.5297 -0.8988 -0.0363
    8MOL   H601 8455   5.282   2.023   0.508  0.1506  1.2389  2.0787
    8MOL   H602 8456   5.559   1.916   0.520 -0.1272 -0.5516  1.0638
    8MOL   H603 8457   5.427   1.828   0.577  1.4468  1.4649  1.8333
    8MOL   H604 8458   5.488   1.666   0.422  0.0264 -1.8391 -0.7822
    8MOL   H605 8459   5.541   1.682   0.149 -0.6855  0.7251 -0.2970
    8MOL   H606 8460   5.375   1.682   0.145  2.2223  2.1848 -2.2200
    8MOL   H607 8461   5.542   1.457   0.260 -0.0816 -0.3765  0.6282
    8MOL   H608 8462   5.444   1.472   0.114  0.8087  2.8929 -0.3787
    8MOL   H609 8463   5.227   1.466   0.251 -1.1260 -1.6599 -1.1277
    8MOL   H610 8464   5.335   1.447   0.389 -0.3871 -1.6804  0.2757
    8MOL   H611 8465   5.444   1.248   0.302  0.1338  0.6475  1.0033
    8MOL   H612 8466   5.269   1.236   0.334 -0.0806  2.3845  1.5284
    8MOL   H613 8467   5.395   1.285   0.058 -2.3812  0.4319 -1.7129
    8MOL   H614 8468   5.234   1.267   0.069  0.9100  1.3531 -1.3827
    8MOL   H615 8469   5.262   1.029   0.174 -0.8416 -1.3865 -1.1111
    8MOL   H616 8470   5.305   1.045   0.010  1.3220  0.1378 -0.1835
    8MOL   H617 8471   5.470   1.010   0.247 -3.2801 -0.2080  0.6766
    8MOL   C618 8472   5.565   1.042   0.065 -0.5777  0.6185  0.3758
    8MOL   O619 8473   5.562   1.052   7.635  0.2103  0.4767 -0.1771
    8MOL   C620 8474   5.700   1.024   0.139 -0.5204 -0.2075 -0.1642
    8MOL   C621 8475   5.753   1.152   0.218  0.1377 -0.1615  0.1565
    8MOL   C622 8476   5.769   1.275   0.128  0.3935  0.0170 -0.8125
    8MOL   C623 8477   5.891   1.275   0.039 -0.1808 -0.1935  0.1824
    8MOL   C624 8478   6.016   1.325   0.120 -0.2432  0.9575  0.5735
    8MOL   C625 8479   6.141   1.324   0.031 -0.5369 -0.5759  0.2929
    8MOL   C626 8480   6.245   1.418   0.068  0.2091  0.2897 -0.1863
    8MOL   C627 8481   6.385   1.392   7.687  0.4179 -0.0946 -0.2653
    8MOL   C628 8482   6.484   1.504   0.040 -0.0498  0.0119 -0.3097
    8MOL   C629 8483   6.599   1.535   7.636 -0.4698 -0.4056  0.4682
    8MOL   C630 8484   6.683   1.411   7.594 -0.7391  0.1305  0.1264
    8MOL   O631 8485   6.689   1.315   7.667  0.4223 -0.1205  0.2643
    8MOL   N632 8486   6.742   1.412   7.473  0.3334 -0.6747  1.1057
    8MOL   C633 8487   6.821   1.304   7.416  0.2588  0.7445 -0.9280
    8MOL   C634 8488   6.901   1.359   7.301  0.7764  0.7181  0.3278
    8MOL   C635 8489   7.002   1.266   7.230 -0.2914 -0.5660  0.1591
    8MOL   C636 8490   6.940   1.134   7.188 -0.2926 -0.8334  0.1469
    8MOL   C637 8491   7.034   1.030   7.116  0.8772 -0.3212 -0.7679
    8MOL   C638 8492   7.108   0.950   7.217  0.1294  0.9696  0.2604
    8MOL   N639 8493   7.209   0.864   7.147  0.0042 -0.3430  0.0193
    8MOL   H640 8494   5.774   0.984   0.070 -0.1047 -0.2230  0.2911
    8MOL   H641 8495   5.684   0.948   0.215 -0.0993 -0.4035 -0.2693
    8MOL   H642 8496   5.849   1.125   0.262  0.0158  1.4866  1.5018
    8MOL   H643 8497   5.686   1.182   0.299  0.7579  0.8160  0.3250
    8MOL   H644 8498   5.751   1.366   0.186  0.1653 -1.0443  0.8249
    8MOL   H645 8499   5.683   1.281   0.061 -0.4243 -2.7017 -0.0682
    8MOL   H646 8500   5.900   1.176   7.688 -0.1621 -0.0321 -0.1895
    8MOL   H647 8501   5.880   1.334   7.640  0.0977 -1.1058 -0.4495
    8MOL   H648 8502   5.994   1.426   0.152 -0.7180  0.1913  2.7853
    8MOL   H649 8503   6.029   1.266   0.211 -2.5593  0.7735  0.8078
    8MOL   H650 8504   6.109   1.355   7.623  0.8533 -1.2572 -0.3790
    8MOL   H651 8505   6.181   1.223   0.027 -0.8377 -0.6944  0.3442
    8MOL   H652 8506   6.198   1.515   0.051 -1.0844 -0.3670 -0.4625
    8MOL   H653 8507   6.247   1.409   0.176 -1.9922  1.9699  0.0276
    8MOL   H654 8508   6.416   1.289   0.013 -2.9316 -0.9457  1.0572
    8MOL   H655 8509   6.376   1.414   7.581  0.4911  0.6492 -0.1223
    8MOL   H656 8510   6.537   1.486   0.133 -1.0384 -0.6840  0.1263
    8MOL   H657 8511   6.428   1.594   0.064  1.0997  0.5240  0.4845
    8MOL   H658 8512   6.565   1.587   7.547 -2.8369  0.2860  1.7239
    8MOL   H659 8513   6.667   1.603   7.688 -1.2726 -0.3514  1.4620
    8MOL   H660 8514   6.723   1.483   7.403 -0.1244  0.1036  2.0111
    8MOL   H661 8515   6.883   1.259   7.494  0.9949 -0.6418 -2.2858
    8MOL   H662 8516   6.749   1.234   7.373  0.5309  0.4211 -0.8596
    8MOL   H663 8517   6.957   1.447   7.334  0.3488  0.8038  0.8356
    8MOL   H664 8518   6.832   1.396   7.226  1.7072  1.3706 -0.2164
    8MOL   H665 8519   7.036   1.319   7.141  1.6385 -1.0882  0.5560
    8MOL   H666 8520   7.087   1.240   7.293  0.1718  0.5998  0.0349
    8MOL   H667 8521   6.856   1.140   7.119 -0.8045 -1.9883  0.6542
    8MOL   H668 8522   6.884   1.086   7.268 -2.3774  0.9619 -0.1864
    8MOL   H669 8523   6.970   0.968   7.053 -1.4893  1.7065 -0.4568
    8MOL   H670 8524   7.100   1.089   7.052 -0.4261  0.0350 -1.8026
    8MOL   H671 8525   7.159   1.025   7.277  1.2118 -1.5986  2.6389
    8MOL   H672 8526   7.048   0.887   7.283 -0.5098  1.2356 -0.0633
    8MOL   H673 8527   7.307   0.884   7.157 -0.2481  0.8419  0.2676
    8MOL   C674 8528   7.182   0.754   7.076  0.6877  0.5005 -0.7324
    8MOL   O675 8529   7.070   0.698   7.080 -0.2027  0.1162  0.1840
    8MOL   C676 8530   7.283   0.692   6.986  0.0485  0.1493  0.2046
    8MOL   C677 8531   7.230   0.607   6.867  0.0926 -0.6074  0.1014
    8MOL   C678 8532   7.190   0.691   6.747 -0.8693 -0.2405  0.8102
    8MOL   C679 8533   7.044   0.737   6.737  0.4616 -0.1426  0.2641
    8MOL   C680 8534   7.022   0.833   6.616  0.3980 -0.0834  0.0763
    8MOL   C681 8535   6.888   0.905   6.602  0.6942 -0.1309  0.0924
    8MOL   C682 8536   6.843   0.963   6.740  0.5023 -0.8345 -0.0424
    8MOL   C683 8537   6.716   1.049   6.716  0.1684 -0.5637  0.0599
    8MOL   C684 8538   6.665   1.132   6.834 -0.0233  0.6708 -0.0598
    8MOL   C685 8539   6.617   1.044   6.948  0.1122  0.1216  0.0804
    8MOL   C686 8540   6.466   1.017   6.949  0.4631 -0.0791 -0.5808
    8MOL   O687 8541   6.385   1.105   6.956  0.4945 -0.7982 -0.4238
    8MOL   N688 8542   6.432   0.888   6.927  0.1540 -0.1349 -0.9834
    8MOL   C689 8543   6.297   0.830   6.953 -0.4993  0.0450 -1.2172
    8MOL   C690 8544   6.290   0.776   7.095  0.9407 -0.4512 -0.9443
    8MOL   C691 8545   6.191   0.670   7.129  0.2645 -0.1520  0.3455
    8MOL   C692 8546   6.220   0.604   7.267 -0.1976  0.6380 -0.4019
    8MOL   C693 8547   6.116   0.497   7.292 -0.2677  0.6580  0.2218
    8MOL   C694 8548   6.127   0.420   7.428  0.1356  0.4906  0.4826
    8MOL   N695 8549   6.108   0.518   7.526  0.9289  0.1989 -1.1541
    8MOL   H696 8550   7.330   0.617   7.050 -1.8679  0.4485  2.0318
    8MOL   H697 8551   7.345   0.775   6.952 -1.4164  1.2700  0.2319
    8MOL   H698 8552   7.141   0.554   6.900 -0.6405  0.4791 -0.0856
    8MOL   H699 8553   7.302   0.529   6.844 -0.8733 -1.7781  1.0102
    8MOL   H700 8554   7.253   0.778   6.733 -0.1601 -1.0522 -1.2768
    8MOL   H701 8555   7.210   0.630   6.658  0.8652  1.6950 -0.1684
    8MOL   H702 8556   6.997   0.782   6.824 -0.7725  1.0709 -1.0034
    8MOL   H703 8557   6.990   0.643   6.724  0.7972 -0.3908  0.6480
    8MOL   H704 8558   7.048   0.772   6.530 -0.4735 -1.3399  0.6834
    8MOL   H705 8559   7.090   0.916   6.631 -0.8766  0.6684  1.9076
    8MOL   H706 8560   6.901   0.980   6.524 -0.4434  0.2503  0.2669
    8MOL   H707 8561   6.813   0.832   6.571  0.9150  0.0079 -0.7786
    8MOL   H708 8562   6.808   0.879   6.800 -0.2455  0.0179  0.7282
    8MOL   H709 8563   6.921   1.020   6.790 -0.5424 -0.5519  1.2678
    8MOL   H710 8564   6.744   1.116   6.634 -0.1544 -0.8636 -0.2964
    8MOL   H711 8565   6.631   0.997   6.672  0.8671 -0.6183 -1.2367
    8MOL   H712 8566   6.599   1.212   6.802  0.1713  0.9092  0.1370
    8MOL   H713 8567   6.759   1.181   6.863  0.2147  0.4843 -0.5104
    8MOL   H714 8568   6.679   0.957   6.967 -0.0918 -0.4486 -1.8018
    8MOL   H715 8569   6.630   1.096   7.043  0.3770  1.5995 -0.7521
    8MOL   H716 8570   6.504   0.818   6.925 -1.7091 -2.1256 -0.4255
    8MOL   H717 8571   6.214   0.893   6.921 -0.4929  0.8033  0.2022
    8MOL   H718 8572   6.275   0.743   6.891  1.3231 -2.3855  1.4331
    8MOL   H719 8573   6.261   0.860   7.159 -0.6588 -0.5740 -1.4839
    8MOL   H720 8574   6.383   0.731   7.129  0.5594  0.0388  0.8172
    8MOL   H721 8575   6.095   0.721   7.138  0.5987  1.0022 -2.0690
    8MOL   H722 8576   6.173   0.597   7.050  3.6959  0.8280 -1.4403
    8MOL   H723 8577   6.217   0.671   7.352  0.5973  0.4021 -0.1846
    8MOL   H724 8578   6.316   0.554   7.256 -1.5247 -2.0767 -0.0652
    8MOL   H725 8579   6.119   0.424   7.211  3.7253 -0.8728  1.6224
    8MOL   H726 8580   6.014   0.535   7.286 -0.7755 -0.8485 -1.3967
    8MOL   H727 8581   6.041   0.354   7.441 -1.7262  2.6859 -0.4134
    8MOL   H728 8582   6.223   0.369   7.434 -0.1717  0.0762  2.0286
    8MOL   H729 8583   6.018   0.564   7.534  1.7019  1.3309  2.1231
    8MOL   C730 8584   6.205   0.561   7.608 -0.2056  0.2538 -0.0722
    8MOL   O731 8585   6.315   0.510   7.610 -0.5874  0.3375 -0.0421
    8MOL   C732 8586   6.178   0.688   7.685 -0.4244  0.6235 -0.3809
    8MOL   C733 8587   6.179   0.652   0.146 -0.3542  0.9971 -0.5500
    8MOL   C734 8588   6.162   0.765   0.247  0.1925 -0.3606 -0.0147
    8MOL   C735 8589   6.281   0.864   0.236  0.1287  0.2225 -0.7721
    8MOL   C736 8590   6.266   0.977   0.332 -0.3735 -0.4713 -0.2301
    8MOL   C737 8591   6.351   1.101   0.310 -0.1261  0.7609 -0.4294
    8MOL   C738 8592   6.496   1.062   0.355 -0.3506 -0.7443  0.1128
    8MOL   C739 8593   6.574   1.180   0.425  0.8042 -0.6979  0.2114
    8MOL   C740 8594   6.723   1.158   0.435 -0.8359  0.4821 -0.7152
    8MOL   C741 8595   6.799   1.192   0.304 -0.6794 -0.7507  0.3691
    8MOL   C742 8596   6.800   1.064   0.218 -0.4738  0.0515 -0.7281
    8MOL   O743 8597   6.824   0.954   0.270  0.0778  0.1118  1.1073
    8MOL   N744 8598   6.782   1.077   0.088 -0.4133 -0.1213 -0.0169
    8MOL   C745 8599   6.788   0.968   7.685  0.0748 -0.0677 -0.1521
    8MOL   C746 8600   6.651   0.898   7.669  0.7468 -0.6002 -0.1029
    8MOL   C747 8601   6.653   0.776   7.571 -0.0836  0.2771  0.1386
    8MOL   C748 8602   6.670   0.840   7.426  0.2501 -0.1262  0.4375
    8MOL   C749 8603   6.718   0.739   7.323  0.2048 -0.3120 -0.4814
    8MOL   C750 8604   6.721   0.805   7.183 -1.1242 -0.2083 -0.0202
    8MOL   N751 8605   6.781   0.716   7.088  0.0286  0.4096  0.0887
    8MOL   H752 8606   6.083   0.735   7.661  0.5720  2.3662 -1.0220
    8MOL   H753 8607   6.246   0.768   7.657  0.2460  0.3203  0.3760
    8MOL   H754 8608   6.274   0.605   0.174 -0.1456  1.3765 -0.6252
    8MOL   H755 8609   6.096   0.583   0.158 -0.6634  1.2844 -1.0428
    8MOL   H756 8610   6.143   0.732   0.349 -1.6267 -1.3088 -0.6411
    8MOL   H757 8611   6.082   0.832   0.214  1.0053  0.3986 -0.4933
    8MOL   H758 8612   6.300   0.894   0.133  1.9130 -0.3622 -0.6340
    8MOL   H759 8613   6.375   0.817   0.268 -0.3604  1.4628  2.6886
    8MOL   H760 8614   6.280   0.958   0.439  1.0610  0.9041 -0.1527
    8MOL   H761 8615   6.163   1.014   0.330  0.2795  1.5660  1.7475
    8MOL   H762 8616   6.353   1.125   0.204  0.0281  0.0645 -0.5852
    8MOL   H763 8617   6.320   1.172   0.387 -0.7893  0.8458 -0.7765
    8MOL   H764 8618   6.504   0.991   0.437  1.1035 -0.6862  0.0211
    8MOL   H765 8619   6.556   1.010   0.281  0.1199  1.5335 -1.1375
    8MOL   H766 8620   6.539   1.278   0.391 -0.6988 -0.3892  2.5494
    8MOL   H767 8621   6.525   1.178   0.522 -1.2215  0.0052 -0.7771
    8MOL   H768 8622   6.762   1.062   0.468 -1.8225  0.0956 -0.6367
    8MOL   H769 8623   6.751   1.237   0.505 -0.2494  0.1721 -0.6015
    8MOL   H770 8624   6.755   1.281   0.257 -1.3212 -0.1552  2.0331
    8MOL   H771 8625   6.906   1.209   0.318 -0.6305 -1.2299  0.5833
    8MOL   H772 8626   6.761   1.169   0.052  0.7970 -0.6477 -2.1589
    8MOL   H773 8627   6.865   0.896   0.020  0.3832  0.5220  0.5795
    8MOL   H774 8628   6.825   1.019   7.597 -1.3261 -0.5502 -1.0422
    8MOL   H775 8629   6.572   0.963   7.630  0.6148 -0.7072 -0.0147
    8MOL   H776 8630   6.619   0.860   0.074 -1.2830 -0.0066 -0.5156
    8MOL   H777 8631   6.571   0.706   7.586 -0.2138  0.3597 -0.1889
    8MOL   H778 8632   6.745   0.722   7.594 -0.9108 -1.1459  0.1550
    8MOL   H779 8633   6.574   0.884   7.400  0.7298  1.8130  1.8202
    8MOL   H780 8634   6.743   0.921   7.426  0.2759 -0.1364 -0.5706
    8MOL   H781 8635   6.652   0.653   7.336 -0.0347 -0.3186 -1.6411
    8MOL   H782 8636   6.819   0.717   7.358  0.6557 -0.3740 -1.7675
    8MOL   H783 8637   6.617   0.812   7.155 -1.1959 -1.7030 -0.1637
    8MOL   H784 8638   6.769   0.902   7.174 -0.8324 -0.2483  1.0297
    8MOL   H785 8639   6.882   0.715   7.094  0.0161 -0.9906  0.0803
    8MOL   C786 8640   6.726   0.619   7.016 -0.3236 -0.3211 -0.2635
    8MOL   O787 8641   6.606   0.608   6.999 -0.4647  0.4597  0.6045
    8MOL   C788 8642   6.827   0.514   6.978 -0.5354  0.0434 -0.3487
    8MOL   C789 8643   6.766   0.378   6.947  0.0938 -0.0971 -0.0032
    8MOL   C790 8644   6.855   0.291   6.853 -0.0203 -0.5912 -0.2749
    8MOL   C791 8645   6.993   0.266   6.910 -0.3992 -0.3367  0.3029
    8MOL   C792 8646   7.059   0.154   6.830 -0.5491  0.0157  0.5470
    8MOL   C793 8647   7.204   0.133   6.849  0.1565  0.2837  0.1305
    8MOL   C794 8648   7.258   0.037   6.747  0.5446 -0.1708 -0.2787
    8MOL   C795 8649   7.411   0.040   6.739 -0.1149  0.6867  0.1924
    8MOL   C796 8650   7.462   7.598   6.675 -0.6308  0.6136 -0.0475
    8MOL   C797 8651   7.427   7.583   6.525 -0.6294 -1.0831 -0.1914
    8MOL   C798 8652   7.470   0.012   6.440 -0.0655  0.0436 -0.1704
    8MOL   O799 8653   7.578   0.004   6.390  0.2233 -0.2162  0.0975
    8MOL   N800 8654   7.381   0.107   6.413 -0.3051  0.4634  0.0111
    8MOL   C801 8655   7.405   0.228   6.331 -0.2928  0.3487  0.1228
    8MOL   C802 8656   7.517   0.316   6.379  0.0161  0.1264 -0.3894
    8MOL   C803 8657   7.484   0.396   6.505  0.5368  0.3673  0.3581
    8MOL   C804 8658   7.599   0.475   6.567  1.1051 -0.0804  0.6223
    8MOL   C805 8659   0.019   0.378   6.608 -0.1406 -0.6145  0.0508
    8MOL   C806 8660   0.121   0.469   6.667  0.0540  0.6090 -0.0882
    8MOL   N807 8661   0.193   0.549   6.566  0.0573 -0.0477  0.0953
    8MOL   H808 8662   6.900   0.499   7.057 -1.9385 -0.3269  0.8940
    8MOL   H809 8663   6.884   0.545   6.891 -1.7343 -0.0610 -1.1892
    8MOL   H810 8664   6.756   0.326   7.043  2.6115  0.5354  0.6416
    8MOL   H811 8665   6.674   0.404   6.894  0.6481 -0.1697 -1.0110
    8MOL   H812 8666   6.868   0.335   6.754 -1.3649  0.5827  0.0394
    8MOL   H813 8667   6.812   0.192   6.840 -0.5999 -0.2516 -1.0329
    8MOL   H814 8668   7.049   0.359   6.913 -0.1273 -0.4366 -1.5411
    8MOL   H815 8669   6.990   0.222   7.010 -1.1836  1.7229  1.2136
    8MOL   H816 8670   7.008   0.060   6.853 -0.2266  0.1774  1.9430
    8MOL   H817 8671   7.052   0.175   6.723  1.2871 -1.9667  0.0091
    8MOL   H818 8672   7.233   0.237   6.836  1.9422 -0.3032 -0.7150
    8MOL   H819 8673   7.220   0.104   6.953  0.5327 -1.8714 -0.4930
    8MOL   H820 8674   7.219   7.631   6.776 -1.5103  0.4554 -0.7920
    8MOL   H821 8675   7.214   0.060   6.649  2.2535  2.8096 -0.4050
    8MOL   H822 8676   7.452   0.128   6.690  1.1178 -0.3798 -0.7520
    8MOL   H823 8677   7.452   0.049   6.839  0.1097 -0.0808  0.1795
    8MOL   H824 8678   7.432   7.505   6.724 -0.0815 -0.5664 -1.9099
    8MOL   H825 8679   7.570   7.610   6.679 -0.6850  2.0005 -1.9108
    8MOL   H826 8680   7.476   7.499   6.477 -0.0989 -0.7940 -0.1610
    8MOL   H827 8681   7.320   7.568   6.510 -0.8724  0.7335 -0.4570
    8MOL   H828 8682   7.291   0.106   6.459  0.0039 -0.1971  0.6107
    8MOL   H829 8683   7.315   0.289   6.332 -0.8685 -0.4942  0.8280
    8MOL   H830 8684   7.429   0.208   6.227  3.2842  2.5108  0.4919
    8MOL   H831 8685   7.532   0.399   6.309 -0.8154  1.1425  0.6126
    8MOL   H832 8686   7.609   0.258   6.381  0.4844  0.8879  1.3197
    8MOL   H833 8687   7.401   0.461   6.475 -0.4824 -1.8954 -1.8539
    8MOL   H834 8688   7.455   0.333   6.589  0.0836  0.4567  0.2687
    8MOL   H835 8689   7.571   0.537   6.652 -1.0174  0.3635 -0.3769
    8MOL   H836 8690   7.630   0.549   6.493 -2.0257  0.6700 -0.0179
    8MOL   H837 8691   0.060   0.327   6.521 -2.6571 -1.3912 -0.7188
    8MOL   H838 8692   7.667   0.309   6.679 -0.0608  1.2889  2.0032
    8MOL   H839 8693   0.187   0.409   6.730  0.2964  1.0024  0.0314
    8MOL   H840 8694   0.078   0.544   6.734  0.9768 -0.2932  1.5280
    8MOL   H841 8695   0.184   0.522   6.469 -2.4590  1.8861 -0.2434
    8MOL   C842 8696   0.271   0.660   6.586  1.1987  0.1353  0.3717
    8MOL   O843 8697   0.290   0.714   6.694 -0.4572  0.3154 -0.3327
    8MOL   C844 8698   0.338   0.729   6.464 -0.7437 -0.3036 -0.3749
    8MOL   C845 8699   0.268   0.854   6.419  0.8138 -0.3326 -0.1314
    8MOL   C846 8700   0.126   0.835   6.352  0.6340  0.2594 -0.3377
    8MOL   C847 8701   0.044   0.964   6.359 -0.2286  0.1410  0.0712
    8MOL   C848 8702   7.596   0.942   6.312 -0.6510  0.1351 -0.1262
    8MOL   C849 8703   7.507   1.071   6.319  0.2838 -0.2726  0.3076
    8MOL   C850 8704   7.367   1.059   6.258  0.7822  0.6912  0.3808
    8MOL   C851 8705   7.267   0.969   6.340 -0.0780 -0.3547  0.3481
    8MOL   C852 8706   7.130   0.969   6.276 -0.7249  0.5085 -0.2933
    8MOL   C853 8707   7.051   1.097   6.279 -0.6729 -0.4136 -0.2723
    8MOL   C854 8708   6.921   1.095   6.194  0.0286 -0.2374 -0.0394
    8MOL   O855 8709   6.841   1.008   6.215 -0.0336 -0.4135  0.0912
    8MOL   N856 8710   6.905   1.189   6.099  0.2642 -0.5524  0.3862
    8MOL   C857 8711   6.808   1.189   5.988  0.0020 -0.0878 -0.3339
    8MOL   C858 8712   6.710   1.302   6.009  0.1512 -0.9918  0.7109
    8MOL   C859 8713   6.595   1.290   5.905 -0.2610  0.5575  0.2864
    8MOL   C860 8714   6.501   1.174   5.929  0.6597  1.5701 -0.7552
    8MOL   C861 8715   6.373   1.188   5.835 -0.0930  0.2795  1.1128
    8MOL   C862 8716   6.249   1.100   5.871  0.2209  0.5031 -0.0655
    8MOL   N863 8717   6.263   0.955   5.862 -0.3475 -0.3160  0.8059
    8MOL   H864 8718   0.375   0.668   6.382  1.3011  0.9267 -0.4232
    8MOL   H865 8719   0.441   0.752   6.494 -0.6863 -1.7919  0.6276
    8MOL   H866 8720   0.337   0.897   6.346 -0.5125 -0.3234 -1.3945
    8MOL   H867 8721   0.250   0.924   6.501 -0.2789 -2.1220  1.1819
    8MOL   H868 8722   0.131   0.808   6.247  0.9278 -1.1048  0.0132
    8MOL   H869 8723   0.081   0.752   6.406  1.2528 -0.3541 -0.7582
    8MOL   H870 8724   0.107   1.033   6.305 -1.9452  0.2097 -1.9063
    8MOL   H871 8725   0.041   1.009   6.458  0.9500  1.0432 -0.3015
    8MOL   H872 8726   7.609   0.904   6.211  1.4264  3.2832 -1.1138
    8MOL   H873 8727   7.549   0.866   6.375 -0.4011  0.2176  0.1635
    8MOL   H874 8728   7.493   1.106   6.421  1.5406  0.2148  0.3184
    8MOL   H875 8729   7.555   1.160   6.276  0.5461 -1.1924 -1.3617
    8MOL   H876 8730   7.326   1.159   6.264 -0.0684  0.3192  0.8530
    8MOL   H877 8731   7.364   1.027   6.154  0.3583  1.4878  0.1438
    8MOL   H878 8732   7.253   1.011   6.440 -0.3930 -1.4987  0.7921
    8MOL   H879 8733   7.319   0.874   6.344  4.5342  1.9755 -0.6365
    8MOL   H880 8734   7.063   0.895   6.317  0.8391  0.5981  2.5141
    8MOL   H881 8735   7.153   0.927   6.178 -0.4647  0.5270 -0.2405
    8MOL   H882 8736   7.023   1.119   6.382 -0.3126  0.0031 -0.2642
    8MOL   H883 8737   7.108   1.183   6.245  1.7874 -2.5911 -1.8463
    8MOL   H884 8738   6.988   1.243   6.076 -1.0963  1.8333  0.8908
    8MOL   H885 8739   6.748   1.098   5.994 -0.2457  0.1187  0.4479
    8MOL   H886 8740   6.851   1.183   5.889  1.4652 -1.5080  0.3699
    8MOL   H887 8741   6.771   1.390   5.988  0.0135 -0.9993  0.2559
    8MOL   H888 8742   6.676   1.307   6.112 -2.1107  1.0941 -0.0866
    8MOL   H889 8743   6.626   1.289   5.800 -2.0801 -1.7597 -0.2570
    8MOL   H890 8744   6.543   1.385   5.901 -0.6694  0.3283  0.1319
    8MOL   H891 8745   6.467   1.176   6.033  2.4223  0.1272 -0.1197
    8MOL   H892 8746   6.557   1.084   5.903 -1.5977  0.1897 -1.0392
    8MOL   H893 8747   6.345   1.293   5.835  0.7134  0.4944  0.7765
    8MOL   H894 8748   6.397   1.175   5.729  1.4183 -0.5723  1.5557
    8MOL   H895 8749   6.222   1.130   5.973  1.8575  0.4499  0.3896
    8MOL   H896 8750   6.165   1.137   5.813  0.0411  1.8997  1.0514
    8MOL   H897 8751   6.306   0.912   5.781 -2.8250 -2.8850  0.7387
    8MOL   C898 8752   6.207   0.859   5.946 -0.0415  0.3648  0.1991
    8MOL   O899 8753   6.146   0.887   6.053 -0.4700 -0.4478  0.0742
    8MOL   C900 8754   6.235   0.708   5.906 -0.0138  0.0794  0.4268
    8MOL   C901 8755   6.105   0.645   5.846 -0.0219 -0.7141 -0.1003
    8MOL   C902 8756   6.129   0.500   5.822  0.2112 -0.2592 -0.2938
    8MOL   C903 8757   5.998   0.419   5.781 -0.6243  0.2663 -0.1524
    8MOL   C904 8758   6.015   0.263   5.792 -0.4656 -0.1827  0.5185
    8MOL   C905 8759   6.003   0.213   5.936  0.2293 -0.3522 -0.2294
    8MOL   C906 8760   5.991   0.067   5.956 -0.1542  0.0180 -0.0086
    8MOL   C907 8761   6.019   0.017   6.098 -0.6103 -0.6175 -0.0234
    8MOL   C908 8762   5.979   7.563   6.128  0.5538  0.6535 -0.7057
    8MOL   C909 8763   5.967   7.534   6.280 -0.3727 -0.3535 -0.0450
    8MOL   C910 8764   6.097   7.494   6.350  0.4261  0.6727  0.2958
    8MOL   O911 8765   6.134   7.374   6.356  0.3085  0.0951  0.1721
    8MOL   N912 8766   6.167   7.597   6.401 -0.3522  0.5886 -0.5737
    8MOL   C913 8767   6.293   7.583   6.477 -0.0892  0.3497 -0.1085
    8MOL   C914 8768   6.369   0.024   6.484 -0.4424  0.1903 -0.0164
    8MOL   C915 8769   6.483   0.015   6.597  0.0962 -0.8890  0.1434
    8MOL   C916 8770   6.605   0.111   6.580 -0.5679  0.5764 -0.4083
    8MOL   C917 8771   6.698   0.050   6.475 -0.4515 -0.3072 -0.3894
    8MOL   C918 8772   6.804   0.150   6.429  0.5163  0.6107 -0.2371
    8MOL   N919 8773   6.886   0.084   6.330 -0.4668  0.4724  0.0059
    8MOL   H920 8774   6.320   0.693   5.839 -0.0239  3.0563 -0.2863
    8MOL   H921 8775   6.268   0.666   6.002 -0.6745 -0.9970  0.1981
    8MOL   H922 8776   6.080   0.699   5.755  1.3978 -1.5411 -0.9933
    8MOL   H923 8777   6.025   0.644   5.920 -0.2753  0.1415 -0.3542
    8MOL   H924 8778   6.172   0.450   5.908  1.3156  1.2377  0.0488
    8MOL   H925 8779   6.205   0.492   5.744 -0.3164  1.9664 -1.0793
    8MOL   H926 8780   5.908   0.453   5.831  0.9983  4.2032  0.2755
    8MOL   H927 8781   5.987   0.438   5.674 -0.9432 -0.1671 -0.1976
    8MOL   H928 8782   6.102   0.217   5.744 -1.7635 -1.8396 -0.2975
    8MOL   H929 8783   5.927   0.229   5.738 -0.0897 -0.2921 -0.0358
    8MOL   H930 8784   6.099   0.238   5.980  0.7801 -1.1391 -0.9803
    8MOL   H931 8785   5.929   0.268   5.995 -0.1377 -1.6630  0.5482
    8MOL   H932 8786   6.058   0.020   5.884 -1.8220 -0.8852 -0.9943
    8MOL   H933 8787   5.887   0.044   5.933 -0.1039 -0.7162  0.4897
    8MOL   H934 8788   5.959   0.087   6.156 -1.6810 -0.2260 -1.5632
    8MOL   H935 8789   6.124   0.034   6.123 -0.4013  0.6135 -1.6100
    8MOL   H936 8790   5.880   7.541   6.087 -0.2743  1.3446  0.8660
    8MOL   H937 8791   6.049   7.490   6.087  0.5054  0.1168  0.1484
    8MOL   H938 8792   5.912   7.614   6.329  1.4306  1.1704 -0.4660
    8MOL   H939 8793   5.898   7.450   6.287 -0.1880 -0.5319 -0.3669
    8MOL   H940 8794   6.107   7.678   6.413 -0.6823  0.4367 -1.2081
    8MOL   H941 8795   6.361   7.505   6.441  0.7334  1.7140 -1.5603
    8MOL   H942 8796   6.264   7.554   6.578  0.0640 -0.5463 -0.3164
    8MOL   H943 8797   6.395   0.048   6.381 -2.4247  0.7838 -0.4042
    8MOL   H944 8798   6.300   0.106   6.505 -0.0330  0.3718  0.6067
    8MOL   H945 8799   6.436   0.029   6.694 -1.4733  1.5380 -0.9024
    8MOL   H946 8800   6.524   7.606   6.605  0.6590 -0.5645  1.4094
    8MOL   H947 8801   6.653   0.113   6.678 -0.8354 -1.6596 -0.2182
    8MOL   H948 8802   6.566   0.208   6.548 -1.7145 -0.0858 -1.0417
    8MOL   H949 8803   6.749   7.660   6.527 -0.5362  0.0467  0.2624
    8MOL   H950 8804   6.636   0.021   6.390 -1.9656 -0.9166  0.8745
    8MOL   H951 8805   6.861   0.195   6.510 -1.8262 -0.0406  1.8480
    8MOL   H952 8806   6.753   0.223   6.366  0.2996 -0.2508 -1.0765
    8MOL   H953 8807   6.838   0.030   6.259 -3.1915 -1.3256  3.0775
    8MOL   C954 8808   7.018   0.064   6.337 -0.4187 -0.7736  0.2729
    8MOL   O955 8809   7.091   0.098   6.431 -0.3225  0.0743  0.3117
    8MOL   C956 8810   7.069   0.004   6.211  0.3419  0.4236 -0.3025
    8MOL   C957 8811   7.134   7.558   6.222 -0.4523  0.1489  0.0797
    8MOL   C958 8812   7.236   7.522   6.113  0.1614  0.2536  0.1453
    8MOL   C959 8813   7.304   7.376   6.118 -1.0365  0.3227 -0.2775
    8MOL   C960 8814   7.453   7.391   6.168 -0.7186 -0.1297 -0.4716
    8MOL   C961 8815   7.506   7.246   6.195  0.4482  0.1272 -0.4293
    8MOL   C962 8816   7.649   7.243   6.237 -0.2453  0.1078 -0.1003
    8MOL   C963 8817   0.024   7.104   6.259  0.1170 -0.3372  0.5089
    8MOL   C964 8818   7.668   7.041   6.387 -0.3182 -0.2295  0.3157
    8MOL   C965 8819   0.053   6.914   6.420  0.2625  1.3031  0.4429
    8MOL   C966 8820   0.192   6.946   6.472  0.4581  0.4573 -0.0199
    8MOL   O967 8821   0.204   7.001   6.580  0.4270  0.1028 -0.2468
    8MOL   N968 8822   0.295   6.921   6.396 -0.7231 -0.4840 -0.0190
    8MOL   C969 8823   0.433   6.900   6.447 -0.5241  0.1072  0.2337
    8MOL   C970 8824   0.453   6.754   6.486  0.4608 -0.2945 -0.5572
    8MOL   C971 8825   0.390   6.719   6.623 -0.6374  0.2396  0.3683
    8MOL   C972 8826   0.392   6.567   6.661  0.3118  0.6262  0.2527
    8MOL   C973 8827   0.296   6.466   6.582 -0.1756  0.2620  0.4312
    8MOL   C974 8828   0.146   6.515   6.569 -0.5977  0.3951 -0.7248
    8MOL   N975 8829   0.070   6.443   6.466 -0.2338  0.1716  0.1260
    8MOL   H976 8830   6.992   0.009   6.134  1.1447  0.2421 -1.1149
    8MOL   H977 8831   7.145   0.076   6.182  0.7299 -0.0240 -0.4079
    8MOL   H978 8832   7.059   7.479   6.225  1.2357 -1.4005  2.4031
    8MOL   H979 8833   7.183   7.566   6.319 -0.2732  2.1524 -0.1390
    8MOL   H980 8834   7.188   7.514   6.015  1.8328  1.4481 -0.8153
    8MOL   H981 8835   7.316   7.596   6.106 -0.3833  0.7951 -0.4897
    8MOL   H982 8836   7.246   7.300   6.171 -1.0381 -0.8182 -1.8816
    8MOL   H983 8837   7.315   7.342   6.015  1.6915 -0.0930  0.1006
    8MOL   H984 8838   7.506   7.432   6.082  0.4674  1.7799  1.1389
    8MOL   H985 8839   7.466   7.458   6.253 -0.5825 -2.4658  1.3910
    8MOL   H986 8840   7.439   7.197   6.266  1.1044  0.7912  0.6537
    8MOL   H987 8841   7.509   7.184   6.105 -0.1408 -1.6998  0.7863
    8MOL   H988 8842   0.010   7.288   6.153  0.7515  1.4871  1.2379
    8MOL   H989 8843   7.666   7.304   6.326  1.4763 -1.1298  0.4332
    8MOL   H990 8844   7.690   7.035   6.178 -1.0598 -0.9437  1.3728
    8MOL   H991 8845   0.131   7.121   6.263 -0.0165  0.0820  2.8855
    8MOL   H992 8846   7.561   7.023   6.378 -0.1502 -1.9693  1.5621
    8MOL   H993 8847   7.684   7.110   6.470  0.3993 -1.2934  1.0846
    8MOL   H994 8848   7.683   6.864   6.495  1.0636  0.1332  0.3313
    8MOL   H995 8849   0.052   6.849   6.333  0.3482  0.3574  1.1418
    8MOL   H996 8850   0.273   6.888   6.303  0.9769 -0.4125 -0.4674
    8MOL   H997 8851   0.452   6.963   6.534 -2.1296  2.1496 -0.8574
    8MOL   H998 8852   0.482   6.929   6.354 -0.3341  0.1881  0.3608
    8MOL   H999 8853   0.558   6.732   6.470  0.0903 -1.1506 -1.9411
    8MOL     H1 8854   0.412   6.684   6.413 -0.3807 -1.5017  1.0258
    8MOL     H2 8855   0.288   6.758   6.627 -0.3184  1.5828 -2.9355
    8MOL     H3 8856   0.438   6.775   6.703 -1.5945 -0.6598  1.5940
    8MOL     H4 8857   0.495   6.532   6.669  0.0724 -0.4490 -1.2002
    8MOL     H5 8858   0.347   6.574   6.760  2.1917 -0.1824  1.2041
    8MOL     H6 8859   0.307   6.362   6.613  0.5529  0.2779  0.2380
    8MOL     H7 8860   0.330   6.456   6.479 -4.3628 -0.9653 -0.9230
    8MOL     H8 8861   0.106   6.510   6.670  0.7008  2.4237 -0.0805
    8MOL     H9 8862   0.127   6.621   6.557  1.3760  0.6167 -2.2235
    8MOL    H10 8863   0.048   6.492   6.380  2.7795 -1.1683 -1.5048
    8MOL    C11 8864   0.046   6.311   6.483 -0.4864  0.1237  0.7479
    8MOL    O12 8865   0.079   6.248   6.586  0.0219  0.0071  0.1684
    8MOL    C13 8866   7.658   6.257   6.360 -0.5071 -0.1294 -0.0644
    8MOL    C14 8867   7.667   6.105   6.353  0.7242  0.5033 -1.0231
    8MOL    C15 8868   7.674   6.062   6.205  0.3281 -0.2445  0.1409
    8MOL    C16 8869   0.029   5.916   6.194  0.1192  0.7263 -0.2598
    8MOL    C17 8870   7.608   5.820   6.232 -0.2993  0.1304 -1.3002
    8MOL    C18 8871   7.639   5.674   6.191 -0.2568 -0.3134 -0.5198
    8MOL    C19 8872   7.540   5.574   6.251  0.7617  0.4365 -0.2785
    8MOL    C20 8873   7.557   5.436   6.182  0.1567  0.1967  0.1469
    8MOL    C21 8874   7.482   5.325   6.254 -0.2193 -0.7062 -0.3752
    8MOL    C22 8875   7.487   5.201   6.163 -0.6965  0.6225 -0.1238
    8MOL    C23 8876   7.388   5.098   6.212  0.0456 -0.3109  0.2828
    8MOL    O24 8877   7.369   5.090   6.332 -0.0622  0.5049 -0.2647
    8MOL    N25 8878   7.334   5.018   6.121 -0.3086  0.1486  0.8553
    8MOL    C26 8879   7.264   4.894   6.137  0.1982 -0.0956 -0.2859
    8MOL    C27 8880   7.335   4.778   6.072 -0.4938  0.0040 -0.1768
    8MOL    C28 8881   7.257   4.646   6.083  0.3440  0.4442  0.1036
    8MOL    C29 8882   7.339   4.529   6.011  0.2856 -0.4947 -0.0949
    8MOL    C30 8883   7.338   4.535   5.852  0.2728  0.8023 -0.4789
    8MOL    C31 8884   7.383   4.397   5.800 -0.7318  0.4276  0.1713
    8MOL    N32 8885   7.395   4.401   5.655  0.6334 -0.4327  0.2423
    8MOL    H33 8886   0.024   6.299   6.277 -1.6376 -0.8345 -1.2137
    8MOL    H34 8887   7.555   6.291   6.356 -0.6679 -0.7077 -0.8384
    8MOL    H35 8888   7.580   6.060   6.402  0.9562 -1.4383 -2.3526
    8MOL    H36 8889   0.068   6.077   6.403  0.6036 -0.9278 -1.5776
    8MOL    H37 8890   0.060   6.128   6.167  2.5235 -2.9269 -0.1291
    8MOL    H38 8891   7.583   6.078   6.148  0.9156  4.3393  0.2834
    8MOL    H39 8892   0.055   5.896   6.090 -0.6528 -0.1693 -0.2821
    8MOL    H40 8893   0.114   5.897   6.259  0.9876  0.1873 -1.5247
    8MOL    H41 8894   7.587   5.808   6.338 -1.8200 -2.5345 -1.8450
    8MOL    H42 8895   7.509   5.854   6.198  0.0353  1.4013 -1.0320
    8MOL    H43 8896   7.640   5.663   6.082  2.6409 -0.6427 -0.4990
    8MOL    H44 8897   0.051   5.655   6.220 -1.0477 -0.7653  2.0671
    8MOL    H45 8898   7.546   5.566   6.360  2.2243 -0.7126 -0.4182
    8MOL    H46 8899   7.443   5.617   6.229 -0.1683 -1.1897  0.6179
    8MOL    H47 8900   7.520   5.447   6.080 -0.3765  3.4757  0.6568
    8MOL    H48 8901   7.660   5.405   6.164  0.4995  1.8920 -0.9515
    8MOL    H49 8902   7.374   5.339   6.251 -0.3302 -1.7239 -1.7391
    8MOL    H50 8903   7.515   5.309   6.357  1.3667  1.7215 -0.4714
    8MOL    H51 8904   7.466   5.233   6.061 -0.6045  1.2523  0.0531
    8MOL    H52 8905   7.587   5.156   6.162 -1.4253 -1.0381  0.2735
    8MOL    H53 8906   7.368   5.035   6.028 -1.8140 -1.0895  0.0613
    8MOL    H54 8907   7.168   4.909   6.087 -0.9848 -0.9615  1.6279
    8MOL    H55 8908   7.258   4.869   6.243  0.5600 -0.0719 -0.2621
    8MOL    H56 8909   7.421   4.762   6.138 -0.2197  0.4480 -0.4219
    8MOL    H57 8910   7.370   4.802   5.972  0.6104 -0.9955 -0.0389
    8MOL    H58 8911   7.157   4.646   6.039 -1.0534  2.1659  3.0833
    8MOL    H59 8912   7.245   4.612   6.186  2.5449  1.1681  0.6182
    8MOL    H60 8913   7.291   4.436   6.041 -3.6084  0.8974 -1.5789
    8MOL    H61 8914   7.438   4.514   6.054  0.7940 -1.0219 -1.4089
    8MOL    H62 8915   7.410   4.612   5.826  1.1419 -0.0912 -0.7445
    8MOL    H63 8916   7.239   4.565   5.819 -0.9375 -1.9869  0.4839
    8MOL    H64 8917   7.311   4.319   5.825 -0.1278 -0.1738  0.0490
    8MOL    H65 8918   7.478   4.368   5.844 -0.6842 -0.6400 -0.6003
    8MOL    H66 8919   7.366   4.485   5.608  0.9925  0.2909  1.2945
    8MOL    C67 8920   7.451   4.306   5.582  0.4711 -0.2865  0.3292
    8MOL    O68 8921   7.470   4.196   5.631 -0.0527  0.0521 -0.3178
    8MOL    C69 8922   7.468   4.321   5.427 -0.1842  0.4806 -0.0775
    8MOL    C70 8923   7.494   4.181   5.362  0.2589 -0.0837  0.6551
    8MOL    C71 8924   7.521   4.185   5.211  0.0786  0.8594  0.2376
    8MOL    C72 8925   7.560   4.041   5.181 -0.1508  0.3011  0.3682
    8MOL    C73 8926   7.615   4.015   5.041 -0.3040  0.8242  0.2586
    8MOL    C74 8927   0.041   4.103   4.990  0.1814  0.3122 -0.4445
    8MOL    C75 8928   0.077   4.066   4.846 -0.1703  0.7194 -0.1569
    8MOL    C76 8929   0.176   4.176   4.783  0.6471  0.4644 -0.0882
    8MOL    C77 8930   0.106   4.304   4.733 -0.4038  0.5786  0.1843
    8MOL    C78 8931   0.211   4.405   4.683 -0.0071  0.1649 -0.1096
    8MOL    C79 8932   0.152   4.541   4.651  0.2973  0.6223 -0.0601
    8MOL    O80 8933   0.035   4.562   4.692 -0.9042 -0.1466  0.6005
    8MOL    N81 8934   0.229   4.631   4.591 -0.1017  0.5615 -0.6755
    8MOL    C82 8935   0.195   4.776   4.574  0.3227  0.0626  0.9389
    8MOL    C83 8936   0.310   4.872   4.630 -0.1349 -0.5513 -0.5189
    8MOL    C84 8937   0.345   4.826   4.768 -0.5225  0.9751 -0.2045
    8MOL    C85 8938   0.426   4.920   4.858 -0.6658 -0.0743  0.3668
    8MOL    C86 8939   0.435   4.866   5.007  0.4344 -0.0742  0.2906
    8MOL    C87 8940   0.529   4.739   5.029 -0.1465  1.3806 -0.2910
    8MOL    N88 8941   0.552   4.699   5.166  0.5521 -0.2148 -0.5239
    8MOL    H89 8942   7.542   4.395   5.397  0.7017  0.0779  1.0710
    8MOL    H90 8943   7.371   4.355   5.390  0.5991  1.2266 -1.4518
    8MOL    H91 8944   7.586   4.142   5.406  1.8063  0.0928 -2.3340
    8MOL    H92 8945   7.413   4.108   5.376  0.0579 -0.5193 -2.4218
    8MOL    H93 8946   7.431   4.210   5.155 -0.1705  0.6400  0.5298
    8MOL    H94 8947   7.596   4.262   5.196  0.9547 -0.1788 -0.7670
    8MOL    H95 8948   7.637   4.008   5.251  0.8520 -0.5049 -1.0892
    8MOL    H96 8949   7.470   3.979   5.193  0.6145 -1.0137 -0.4646
    8MOL    H97 8950   7.656   3.915   5.025 -3.6020 -0.5526  0.2014
    8MOL    H98 8951   7.538   4.024   4.965  1.0698 -0.4744 -1.3585
    8MOL    H99 8952   0.004   4.205   5.002  1.1329  0.7606 -1.2941
    8MOL   H100 8953   0.129   4.108   5.054  0.2507 -3.6681 -0.0795
    8MOL   H101 8954   7.681   4.058   4.782  0.3065 -0.8631 -0.6267
    8MOL   H102 8955   0.124   3.967   4.847 -0.8182  0.3905 -1.3938
    8MOL   H103 8956   0.253   4.192   4.858  1.3671 -0.1286 -0.6930
    8MOL   H104 8957   0.229   4.124   4.704 -0.1553 -0.3534 -0.0954
    8MOL   H105 8958   0.058   4.366   4.808  1.1477  1.5656  0.3927
    8MOL   H106 8959   0.040   4.270   4.654 -1.7916  1.6676  0.8534
    8MOL   H107 8960   0.278   4.417   4.768 -2.7414 -1.3206  2.3933
    8MOL   H108 8961   0.259   4.370   4.592 -0.8033  0.4536 -0.6495
    8MOL   H109 8962   0.321   4.604   4.560  0.6829  2.1238  0.2636
    8MOL   H110 8963   0.102   4.795   4.627 -0.8497 -0.6078 -0.8552
    8MOL   H111 8964   0.173   4.805   4.471 -1.6958 -2.1948  0.6921
    8MOL   H112 8965   0.276   4.976   4.631  0.2747 -0.4159 -0.6221
    8MOL   H113 8966   0.402   4.871   4.571  1.2979 -0.2257  1.6764
    8MOL   H114 8967   0.394   4.729   4.759  0.2424  1.4467 -1.1365
    8MOL   H115 8968   0.249   4.802   4.815  0.0538 -0.3809  0.3181
    8MOL   H116 8969   0.523   4.931   4.809 -0.9181  0.5751  0.0219
    8MOL   H117 8970   0.387   5.021   4.866 -0.2002  0.1258  0.1338
    8MOL   H118 8971   0.464   4.945   5.077  1.2738  1.6812 -1.9774
    8MOL   H119 8972   0.334   4.844   5.042  0.9359  0.7640  2.3708
    8MOL   H120 8973   0.492   4.658   4.966  0.6907  1.0388 -0.3563
    8MOL   H121 8974   0.619   4.776   4.980  0.8465 -0.3629  0.1834
    8MOL   H122 8975   0.529   4.782   5.218 -1.3747 -0.6556 -0.6612
    8MOL   H123 8976   0.652   4.694   5.180  0.2729 -0.8992  1.4589
    9MOL     C1 8977   5.900   5.304   1.964 -0.5541 -0.2902  0.0322
    9MOL     O2 8978   5.942   5.403   2.023 -0.2974  0.5464  0.4057
    9MOL     C3 8979   5.870   5.178   2.038 -0.3828 -0.0200  0.2920
    9MOL     C4 8980   5.948   5.145   2.164 -0.2153  0.4159 -0.3721
    9MOL     C5 8981   5.912   5.234   2.286  0.1999 -0.1154  0.5694
    9MOL     C6 8982   5.967   5.180   2.419  0.2009 -0.0514  0.2155
    9MOL     C7 8983   6.119   5.174   2.429  0.3374 -0.1598 -0.4437
    9MOL     C8 8984   6.171   5.124   2.563 -0.7331 -0.2762  0.0793
    9MOL     C9 8985   6.324   5.097   2.571  0.1103 -0.5855  0.4013
    9MOL    C10 8986   6.369   4.975   2.487 -0.5075 -0.1932  0.0825
    9MOL    C11 8987   6.514   4.937   2.531 -0.2474  0.2591 -0.1901
    9MOL    C12 8988   6.564   4.814   2.456  0.4616  0.4025  0.2288
    9MOL    C13 8989   6.697   4.835   2.383  0.4701  0.1025 -0.3788
    9MOL    O14 8990   6.773   4.925   2.416  0.5797  0.4111 -0.1536
    9MOL    N15 8991   6.734   4.749   2.286  0.5908 -0.2280 -0.5582
    9MOL    C16 8992   6.854   4.754   2.208  0.2212 -0.0471 -0.3328
    9MOL    C17 8993   6.961   4.667   2.272  0.4201 -0.6230 -0.2017
    9MOL    C18 8994   6.930   4.520   2.239 -0.0568  0.2009  0.0369
    9MOL    C19 8995   7.035   4.428   2.308 -0.7995  0.2521  0.3453
    9MOL    C20 8996   7.027   4.281   2.262  0.7666 -0.1396 -0.0049
    9MOL    C21 8997   7.141   4.192   2.318 -1.3543 -0.0142 -0.5024
    9MOL    N22 8998   7.117   4.051   2.285 -0.3470  0.0905 -0.0811
    9MOL    H23 8999   5.891   5.103   1.962  0.6668  0.6715 -0.1118
    9MOL    H24 9000   5.762   5.171   2.052 -0.4315  0.0089 -0.0705
    9MOL    H25 9001   6.053   5.174   2.156 -0.3867  0.9346 -0.7833
    9MOL    H26 9002   5.932   5.041   2.192 -2.7584  0.5844 -1.0691
    9MOL    H27 9003   5.803   5.243   2.280  0.1059 -1.0472  0.8590
    9MOL    H28 9004   5.951   5.335   2.272  1.7054 -0.5876  1.3134
    9MOL    H29 9005   5.929   5.231   2.508 -0.1341 -1.9494  1.1879
    9MOL    H30 9006   5.932   5.079   2.441 -1.0064  0.3434  0.1723
    9MOL    H31 9007   6.169   5.270   2.410  2.0422 -0.9936 -0.2874
    9MOL    H32 9008   6.165   5.110   2.355  1.3041  1.1424 -0.9912
    9MOL    H33 9009   6.155   5.206   2.633  1.4944  1.0330 -0.9005
    9MOL    H34 9010   6.110   5.043   2.603 -1.2840 -0.2943 -0.7782
    9MOL    H35 9011   6.369   5.191   2.540 -2.6525  0.7539  0.3212
    9MOL    H36 9012   6.348   5.076   2.675  0.4098  0.3227  0.5166
    9MOL    H37 9013   6.301   4.892   2.507 -0.8479 -0.6641 -2.8488
    9MOL    H38 9014   6.366   4.992   2.380  0.5654 -2.0854 -0.2802
    9MOL    H39 9015   6.524   4.922   2.638 -0.1599 -1.5216 -0.4361
    9MOL    H40 9016   6.580   5.022   2.511  1.4893 -1.1730 -0.6226
    9MOL    H41 9017   6.565   4.731   2.526  1.2625 -1.2849 -1.7371
    9MOL    H42 9018   6.492   4.774   2.385  0.9132  0.1088 -0.0672
    9MOL    H43 9019   6.663   4.679   2.273 -0.6146  0.4106  2.3135
    9MOL    H44 9020   6.885   4.858   2.201  0.2302 -0.0103  0.2508
    9MOL    H45 9021   6.834   4.723   2.105 -0.9542 -0.8772  0.1306
    9MOL    H46 9022   6.947   4.682   2.379 -0.5839 -0.8901 -0.2864
    9MOL    H47 9023   7.059   4.698   2.237 -0.6525  0.2742 -2.4646
    9MOL    H48 9024   6.828   4.493   2.266  0.1772 -1.6617 -0.8500
    9MOL    H49 9025   6.941   4.511   2.131 -0.2872  2.5967 -0.2161
    9MOL    H50 9026   7.016   4.432   2.415 -0.8622  1.1738  0.3020
    9MOL    H51 9027   7.131   4.476   2.290 -0.6059 -0.8970 -1.7672
    9MOL    H52 9028   6.932   4.247   2.303  0.9226 -0.3634  0.1725
    9MOL    H53 9029   7.027   4.281   2.153  0.7305  1.5864 -0.0205
    9MOL    H54 9030   7.240   4.229   2.295 -1.7433  1.6995  0.4597
    9MOL    H55 9031   7.128   4.200   2.426  0.5101  0.6264 -0.3168
    9MOL    H56 9032   7.031   4.020   2.243  0.2086  1.0045 -1.9376
    9MOL    H57 9033   5.884   5.299   1.857 -1.2301  3.2786 -0.1211
    9MOL    C58 9034   7.211   3.960   2.271  0.3134  0.0918  0.2327
    9MOL    O59 9035   7.327   3.978   2.297 -0.5840  0.3528  0.0211
    9MOL    C60 9036   7.161   3.816   2.237  0.5745 -0.3224 -0.0819
    9MOL    C61 9037   7.275   3.730   2.187  0.2206  0.3308 -0.0191
    9MOL    C62 9038   7.242   3.632   2.077 -0.3499  0.6382 -0.6249
    9MOL    C63 9039   7.369   3.582   2.012 -0.5462  0.4467 -0.1504
    9MOL    C64 9040   7.357   3.440   1.956  0.1682  0.7180  0.8772
    9MOL    C65 9041   7.489   3.392   1.889 -0.1740  0.6920  0.7969
    9MOL    C66 9042   7.533   3.463   1.760 -0.1620  0.2981 -0.5448
    9MOL    C67 9043   7.425   3.454   1.654 -0.2851  0.5524  0.1162
    9MOL    C68 9044   7.486   3.478   1.516  0.6703  0.1474 -0.0686
    9MOL    C69 9045   7.551   3.620   1.491 -0.9829  0.2441 -0.4760
    9MOL    C70 9046   7.451   3.730   1.506  0.4099  0.4214  0.3578
    9MOL    O71 9047   7.351   3.731   1.435  0.1991 -0.1818 -0.0258
    9MOL    N72 9048   7.477   3.822   1.601  0.4362  0.9450 -0.3844
    9MOL    C73 9049   7.388   3.928   1.647 -0.5360 -0.0697  0.4878
    9MOL    C74 9050   7.330   3.892   1.786 -0.4238  0.8315 -0.0739
    9MOL    C75 9051   7.226   4.000   1.826  0.1436  0.2280 -0.4749
    9MOL    C76 9052   7.295   4.139   1.863  0.3638 -0.2024  0.3298
    9MOL    C77 9053   7.196   4.244   1.912 -0.7355 -1.0307  0.3186
    9MOL    C78 9054   7.242   4.383   1.933  0.1362 -0.0616  0.4962
    9MOL    N79 9055   7.290   4.443   1.810 -0.4063 -0.2126  1.0169
    9MOL    H80 9056   7.070   3.811   2.177  0.5196  0.7927 -0.1003
    9MOL    H81 9057   7.118   3.777   2.329 -0.4228  0.1863 -0.3279
    9MOL    H82 9058   7.355   3.793   2.146  0.7151 -0.2384  0.0610
    9MOL    H83 9059   7.326   3.684   2.272  0.9003  2.0248  0.5094
    9MOL    H84 9060   7.183   3.688   2.005 -2.6972 -1.1630 -0.1777
    9MOL    H85 9061   7.170   3.557   2.113  0.5939 -0.2135 -0.4957
    9MOL    H86 9062   7.457   3.579   2.076  0.1170 -0.0077 -1.0681
    9MOL    H87 9063   7.398   3.653   1.934 -0.1678 -0.0873 -0.5029
    9MOL    H88 9064   7.327   3.365   2.029 -0.2822 -1.2299 -1.2609
    9MOL    H89 9065   7.268   3.428   1.894 -1.1646 -1.0416  3.0141
    9MOL    H90 9066   7.484   3.285   1.866  0.3079  1.4094 -3.1262
    9MOL    H91 9067   7.573   3.385   1.958  1.3046 -0.7323 -1.0663
    9MOL    H92 9068   7.618   3.406   1.723  0.4969  0.6946  0.3559
    9MOL    H93 9069   7.553   3.569   1.781 -4.0952  1.1867 -0.9587
    9MOL    H94 9070   7.363   3.365   1.645 -0.6632  0.8004  0.2421
    9MOL    H95 9071   7.351   3.527   1.686 -0.5112 -0.3759  1.7601
    9MOL    H96 9072   7.410   3.454   1.441 -0.5453  2.3125  0.4451
    9MOL    H97 9073   7.548   3.389   1.507 -0.6049 -0.7054 -0.5890
    9MOL    H98 9074   7.629   3.631   1.567  0.4537 -1.0276 -1.7374
    9MOL    H99 9075   7.598   3.624   1.392  1.3737 -0.2281  0.5908
    9MOL   H100 9076   7.561   3.807   1.656  2.3183 -0.7882 -3.5453
    9MOL   H101 9077   7.310   3.957   1.577 -0.9077 -2.5934 -0.1750
    9MOL   H102 9078   7.447   4.020   1.657 -0.6458  0.0516  0.0399
    9MOL   H103 9079   7.298   3.787   1.782 -1.0350  1.0137  0.0282
    9MOL   H104 9080   7.417   3.893   1.850  0.0841 -2.4141 -0.5888
    9MOL   H105 9081   7.180   3.967   1.919  0.5997 -0.3735 -0.4577
    9MOL   H106 9082   7.139   4.012   1.763  0.0079 -3.5367 -1.0703
    9MOL   H107 9083   7.377   4.118   1.932  0.1380 -1.2549  0.2763
    9MOL   H108 9084   7.341   4.178   1.772 -0.7645 -1.5461 -0.8425
    9MOL   H109 9085   7.167   4.210   2.011 -2.2710  0.2612  0.3349
    9MOL   H110 9086   7.116   4.242   1.838  1.1911 -2.7401 -1.7912
    9MOL   H111 9087   7.331   4.367   1.993  0.1399 -0.1004  0.4810
    9MOL   H112 9088   7.170   4.448   1.983  2.9030  2.7820  0.9519
    9MOL   H113 9089   7.303   4.382   1.730  2.1389  1.6968 -0.0955
    9MOL   C114 9090   7.351   4.558   1.813  0.0248 -0.8751 -0.3333
    9MOL   O115 9091   7.336   4.642   1.908 -0.7754  0.5783  0.5661
    9MOL   C116 9092   7.447   4.598   1.692  0.1053 -0.7314 -0.1567
    9MOL   C117 9093   7.597   4.609   1.731  0.4021  0.4194 -0.5942
    9MOL   C118 9094   7.668   4.482   1.793  0.2600 -1.1200  0.1265
    9MOL   C119 9095   0.127   4.510   1.794 -0.5149 -0.7314 -0.3081
    9MOL   C120 9096   0.204   4.390   1.836  0.6175 -0.1461 -0.0647
    9MOL   C121 9097   0.356   4.414   1.861 -0.3293 -0.1041  0.4068
    9MOL   C122 9098   0.431   4.461   1.731  0.4960  0.1074 -1.1483
    9MOL   C123 9099   0.569   4.500   1.782  0.1687 -0.7282 -0.3590
    9MOL   C124 9100   0.658   4.559   1.669  0.0714 -0.1299 -0.0133
    9MOL   C125 9101   0.800   4.491   1.650  0.2160 -0.4091 -0.4519
    9MOL   C126 9102   0.805   4.347   1.594 -0.1582  0.7149  1.0032
    9MOL   O127 9103   0.708   4.277   1.578 -0.5843 -0.5055 -0.6392
    9MOL   N128 9104   0.929   4.297   1.572 -0.1943 -0.3703 -0.5630
    9MOL   C129 9105   1.049   4.347   1.609 -0.3218  0.4076  0.0315
    9MOL   C130 9106   1.121   4.403   1.499 -0.3043 -0.1330 -0.2975
    9MOL   C131 9107   1.260   4.466   1.537 -0.3167 -0.3212  1.1642
    9MOL   C132 9108   1.347   4.493   1.414 -0.3164 -0.1120  0.0484
    9MOL   C133 9109   1.478   4.554   1.461 -0.1659 -0.3208 -0.2069
    9MOL   C134 9110   1.559   4.587   1.338 -0.0552  0.1368 -0.5295
    9MOL   N135 9111   1.690   4.617   1.389  0.1003  0.7355 -0.3595
    9MOL   H136 9112   7.441   4.519   1.617 -3.0112 -1.6673  1.0041
    9MOL   H137 9113   7.418   4.693   1.649  1.3557 -1.0258 -1.7406
    9MOL   H138 9114   7.626   4.700   1.784  1.0148  0.8845 -1.6928
    9MOL   H139 9115   7.648   4.625   1.635 -0.3640  1.1480 -0.8834
    9MOL   H140 9116   7.627   4.462   1.893 -0.5417  0.1264  0.0579
    9MOL   H141 9117   7.654   4.404   1.718 -1.0155 -0.7291 -0.0536
    9MOL   H142 9118   0.161   4.546   1.697 -1.2708 -0.9431 -0.6585
    9MOL   H143 9119   0.137   4.595   1.861  0.9768 -0.7679 -0.4816
    9MOL   H144 9120   0.163   4.357   1.932 -1.0697  2.3718  0.1442
    9MOL   H145 9121   0.202   4.309   1.764 -0.8484 -0.7876  0.6783
    9MOL   H146 9122   0.398   4.319   1.894  0.0292 -0.1681 -0.2150
    9MOL   H147 9123   0.366   4.488   1.940  0.2403  1.0772 -0.7548
    9MOL   H148 9124   0.446   4.386   1.653  0.8914  0.5602 -1.5150
    9MOL   H149 9125   0.390   4.551   1.685 -0.2587  0.7974  0.8566
    9MOL   H150 9126   0.619   4.412   1.822  0.3800 -1.0098 -1.2459
    9MOL   H151 9127   0.553   4.564   1.869 -1.0299 -1.5658  0.0598
    9MOL   H152 9128   0.663   4.664   1.694  0.4334  0.9862 -4.3220
    9MOL   H153 9129   0.611   4.573   1.572 -0.7720 -0.8953  0.2768
    9MOL   H154 9130   0.841   4.493   1.751 -2.0105 -3.4093  0.5998
    9MOL   H155 9131   0.871   4.546   1.588 -1.0771  0.0567 -1.5305
    9MOL   H156 9132   0.919   4.197   1.576  0.7879 -0.6195 -3.1416
    9MOL   H157 9133   1.108   4.261   1.643  1.0835  1.9936  1.7136
    9MOL   H158 9134   1.052   4.415   1.694 -0.3379  0.7232 -0.2251
    9MOL   H159 9135   1.064   4.474   1.439 -0.5323 -0.0396  0.0334
    9MOL   H160 9136   1.151   4.326   1.428 -0.6407  0.3092 -0.9297
    9MOL   H161 9137   1.256   4.558   1.596  1.0927  0.5962 -0.1330
    9MOL   H162 9138   1.320   4.394   1.592  0.3248  1.0652  2.3003
    9MOL   H163 9139   1.355   4.398   1.361 -3.1508 -0.7659  0.6954
    9MOL   H164 9140   1.297   4.567   1.353  1.6183 -0.7057 -2.3498
    9MOL   H165 9141   1.539   4.485   1.519  1.6179  2.1718  1.0253
    9MOL   H166 9142   1.463   4.647   1.517 -3.1460  0.2882 -1.9042
    9MOL   H167 9143   1.582   4.506   1.270  2.1403  0.8519 -0.6609
    9MOL   H168 9144   1.518   4.679   1.297 -0.8729  0.7784  1.6090
    9MOL   H169 9145   1.709   4.572   1.477  3.7636  1.9131 -0.4829
    9MOL   C170 9146   1.783   4.688   1.322  0.0670 -0.3312 -0.3895
    9MOL   O171 9147   1.764   4.760   1.221  0.5671 -0.7842  0.1016
    9MOL   C172 9148   1.924   4.652   1.383 -0.0709 -0.0786  0.2302
    9MOL   C173 9149   1.997   4.545   1.302  0.5927 -0.3177  0.0295
    9MOL   C174 9150   1.947   4.405   1.308 -0.3336 -0.1827 -0.1404
    9MOL   C175 9151   2.017   4.322   1.202  0.0840 -0.1599 -0.3301
    9MOL   C176 9152   1.952   4.185   1.193 -0.1757  0.3144 -0.3583
    9MOL   C177 9153   1.964   4.116   1.060  0.2151  0.1455 -0.8689
    9MOL   C178 9154   1.881   3.982   1.039  0.1635 -0.6651  0.1181
    9MOL   C179 9155   1.957   3.885   0.949  0.1307 -0.5893  0.3044
    9MOL   C180 9156   1.881   3.764   0.904  0.4055 -0.3213  0.3995
    9MOL   C181 9157   1.951   3.691   0.791 -0.2112 -0.2523  0.5738
    9MOL   C182 9158   2.063   3.607   0.831  0.1022 -0.3551 -0.2074
    9MOL   O183 9159   2.085   3.587   0.951 -0.8755  0.8510  0.2433
    9MOL   N184 9160   2.127   3.537   0.738  0.0792  0.0676 -0.3324
    9MOL   C185 9161   2.252   3.464   0.772 -0.0544  0.1685  0.7088
    9MOL   C186 9162   2.224   3.319   0.825 -0.1169  1.1736  0.4335
    9MOL   C187 9163   2.130   3.242   0.730 -0.0841  0.0013 -0.0935
    9MOL   C188 9164   2.091   3.096   0.763  0.5573  0.3470  0.5460
    9MOL   C189 9165   2.032   3.066   0.899  0.1077  0.0553 -0.0371
    9MOL   C190 9166   2.022   2.921   0.935 -0.5424  0.0615 -0.4978
    9MOL   N191 9167   1.952   2.911   1.065 -0.0209 -0.0011  0.1109
    9MOL   H192 9168   1.978   4.747   1.392  1.7263 -0.9542 -1.0754
    9MOL   H193 9169   1.909   4.619   1.486  1.1223 -0.5570  0.2487
    9MOL   H194 9170   2.104   4.544   1.319  0.6740  0.3199 -0.4402
    9MOL   H195 9171   1.989   4.579   1.198  3.4920  0.0492 -0.1040
    9MOL   H196 9172   1.840   4.404   1.287 -1.0327 -0.5007  3.1172
    9MOL   H197 9173   1.961   4.361   1.407  0.6092  1.5717  0.5443
    9MOL   H198 9174   2.013   4.369   1.104 -2.4640 -0.5090 -0.4291
    9MOL   H199 9175   2.124   4.310   1.215 -0.0951 -2.0470 -0.5306
    9MOL   H200 9176   1.988   4.124   1.276 -0.5550 -0.1491 -0.5332
    9MOL   H201 9177   1.846   4.185   1.218  0.5940  0.2428  3.2540
    9MOL   H202 9178   2.068   4.093   1.039  0.0369 -0.3954 -1.1719
    9MOL   H203 9179   1.935   4.187   0.983 -0.2335 -1.3556 -2.1146
    9MOL   H204 9180   1.869   3.926   1.132 -2.3138  0.5318  0.5618
    9MOL   H205 9181   1.781   3.991   0.997  0.8079  0.5157 -1.1917
    9MOL   H206 9182   2.011   3.944   0.875  0.8729 -0.9329  0.5644
    9MOL   H207 9183   2.041   3.848   1.009  0.7581  1.7194  0.9343
    9MOL   H208 9184   1.784   3.784   0.858  0.8217 -1.3516 -0.9726
    9MOL   H209 9185   1.868   3.705   0.995 -0.7427 -0.7543 -0.0428
    9MOL   H210 9186   1.875   3.639   0.733  0.7718 -1.5623  0.4374
    9MOL   H211 9187   1.988   3.764   0.719  1.0543 -1.7446 -0.3247
    9MOL   H212 9188   2.117   3.564   0.641 -1.4229  1.8434  0.2829
    9MOL   H213 9189   2.315   3.513   0.846 -1.1146 -2.0232  3.1104
    9MOL   H214 9190   2.310   3.458   0.680  0.0931  0.0653  0.8091
    9MOL   H215 9191   2.322   3.276   0.844 -0.3109  0.6274  0.1999
    9MOL   H216 9192   2.173   3.323   0.921 -0.4181  2.2830  0.2403
    9MOL   H217 9193   2.033   3.292   0.728 -0.5023 -0.7697  0.4452
    9MOL   H218 9194   2.166   3.252   0.628  1.3781  1.7718  0.5859
    9MOL   H219 9195   2.177   3.031   0.755 -1.2466 -2.2383  1.3375
    9MOL   H220 9196   2.014   3.071   0.690 -0.1619  2.7664  0.4286
    9MOL   H221 9197   1.935   3.114   0.899 -0.7844 -1.6692  1.6459
    9MOL   H222 9198   2.090   3.116   0.976 -1.3153 -1.6994  2.2181
    9MOL   H223 9199   2.122   2.880   0.942 -0.1762  1.2000  1.4382
    9MOL   H224 9200   1.958   2.868   0.865  1.1774 -0.8469 -1.4181
    9MOL   H225 9201   1.856   2.941   1.064  0.4129  1.4274  0.3643
    9MOL   C226 9202   1.983   2.815   1.151 -0.5359 -0.2306  0.4411
    9MOL   O227 9203   2.089   2.752   1.139  0.1504  0.9686 -0.1050
    9MOL   C228 9204   1.887   2.780   1.266 -0.1525 -0.2257 -0.1742
    9MOL   C229 9205   1.809   2.643   1.234 -0.2168 -0.9748  0.1378
    9MOL   C230 9206   1.699   2.624   1.339 -0.1637 -0.2934  0.0824
    9MOL   C231 9207   1.601   2.508   1.295 -0.2004  0.1565 -0.5590
    9MOL   C232 9208   1.482   2.523   1.386  0.1323  0.0730 -0.6704
    9MOL   C233 9209   1.372   2.427   1.342 -0.0137 -0.2061  0.3491
    9MOL   C234 9210   1.225   2.470   1.393  0.9605 -0.1403  0.7530
    9MOL   C235 9211   1.163   2.593   1.328  0.2824  0.6427 -0.0738
    9MOL   C236 9212   1.116   2.563   1.183 -0.1825  0.3805 -0.6232
    9MOL   C237 9213   1.002   2.462   1.159  0.1215 -0.8597  0.1434
    9MOL   C238 9214   1.032   2.313   1.168 -0.3070  0.2451 -0.0476
    9MOL   O239 9215   1.140   2.269   1.124 -0.5074  0.0224 -0.2364
    9MOL   N240 9216   0.935   2.240   1.223  0.0864  0.2571  0.0664
    9MOL   C241 9217   0.949   2.094   1.253 -0.5323 -0.2779  0.4425
    9MOL   C242 9218   0.952   2.009   1.130  0.6139  0.7773  0.0290
    9MOL   C243 9219   0.886   1.873   1.163 -0.4573 -0.2767  0.5724
    9MOL   C244 9220   0.853   1.784   1.042  0.0836  0.1790 -0.1110
    9MOL   C245 9221   0.808   1.637   1.061  0.1862  0.4916  0.3690
    9MOL   C246 9222   0.807   1.556   0.929  0.5387  0.0411 -0.2679
    9MOL   N247 9223   0.749   1.426   0.951 -0.0754 -0.4313  0.6191
    9MOL   H248 9224   1.819   2.860   1.294 -1.4370 -0.6822 -1.9720
    9MOL   H249 9225   1.952   2.768   1.353 -0.7996 -2.0659  0.0717
    9MOL   H250 9226   1.762   2.635   1.136 -0.6148  4.4291 -0.2661
    9MOL   H251 9227   1.883   2.563   1.236  0.7387 -0.1144 -0.0522
    9MOL   H252 9228   1.739   2.613   1.440 -3.0419 -0.5518  1.2359
    9MOL   H253 9229   1.639   2.715   1.344 -0.9799 -0.7852 -0.6679
    9MOL   H254 9230   1.648   2.410   1.306 -0.5803 -0.1103 -1.2988
    9MOL   H255 9231   1.572   2.526   1.191  0.8645  3.5870 -0.3264
    9MOL   H256 9232   1.450   2.627   1.383  2.2602  0.6919 -3.4285
    9MOL   H257 9233   1.507   2.496   1.489  1.1332  1.0345 -0.6606
    9MOL   H258 9234   1.360   2.421   1.234 -1.4921 -2.1049  0.5960
    9MOL   H259 9235   1.396   2.324   1.369 -0.5032  0.3473  3.0680
    9MOL   H260 9236   1.232   2.508   1.495 -2.6532 -1.4687  1.5576
    9MOL   H261 9237   1.158   2.384   1.401 -0.7312  0.8871 -1.9151
    9MOL   H262 9238   1.082   2.625   1.392 -0.6218 -1.4173 -0.1674
    9MOL   H263 9239   1.227   2.681   1.330 -1.8334  2.2233 -0.2240
    9MOL   H264 9240   1.097   2.660   1.137  2.6740  1.3843  0.1683
    9MOL   H265 9241   1.208   2.538   1.129  0.9929 -0.1229  1.5707
    9MOL   H266 9242   0.913   2.480   1.219 -0.5445  1.4097 -1.5059
    9MOL   H267 9243   0.971   2.479   1.056 -0.8225  2.1117  0.8823
    9MOL   H268 9244   0.850   2.292   1.240  0.9326  1.3101  1.2637
    9MOL   H269 9245   0.863   2.083   1.319 -0.6303 -0.4321  0.2919
    9MOL   H270 9246   1.038   2.079   1.313  0.1136 -0.6652 -0.6139
    9MOL   H271 9247   1.052   1.992   1.091  0.9251  1.7238  0.4105
    9MOL   H272 9248   0.902   2.056   1.045 -1.2301 -1.7822 -0.3773
    9MOL   H273 9249   0.941   1.825   1.243  0.2297 -1.9393 -0.8486
    9MOL   H274 9250   0.790   1.898   1.208 -0.6774  1.1715 -0.6381
    9MOL   H275 9251   0.930   1.785   0.966  1.7700 -0.7340  1.5371
    9MOL   H276 9252   0.773   1.835   0.989  0.1059  0.2269 -0.0984
    9MOL   H277 9253   0.709   1.646   1.107 -1.1738  0.3148 -2.4511
    9MOL   H278 9254   0.872   1.585   1.132 -1.4232  0.1192  1.5916
    9MOL   H279 9255   0.913   1.542   0.905  0.7933 -0.5673  1.1279
    9MOL   H280 9256   0.751   1.593   0.844 -1.9758  0.1307  1.3902
    9MOL   H281 9257   0.659   1.417   0.996 -0.8230 -1.2898 -0.9738
    9MOL   C282 9258   0.816   1.311   0.939  0.5559 -0.4294 -0.5883
    9MOL   O283 9259   0.924   1.289   0.889  0.0205  0.3042  0.2253
    9MOL   C284 9260   0.747   1.196   1.015  0.6104  0.8667 -0.2318
    9MOL   C285 9261   0.673   1.104   0.913 -0.0142 -0.0036  0.3504
    9MOL   C286 9262   0.528   1.070   0.959  0.0270 -0.8963  0.0145
    9MOL   C287 9263   0.450   1.019   0.834  1.1386 -0.7664 -0.1840
    9MOL   C288 9264   0.312   0.979   0.883  0.0357  0.3713 -0.0886
    9MOL   C289 9265   0.232   0.915   0.769  0.1237  0.5854 -0.4788
    9MOL   C290 9266   0.142   1.020   0.697  0.0124  0.0278  1.1163
    9MOL   C291 9267   0.036   1.076   0.788  0.4593 -0.1983  0.0784
    9MOL   C292 9268   7.615   1.153   0.716  0.1973  0.6409  0.3576
    9MOL   C293 9269   7.498   1.192   0.811  0.2597  0.3172 -0.3360
    9MOL   C294 9270   7.420   1.074   0.858  1.0046 -0.6311  0.4595
    9MOL   O295 9271   7.402   0.978   0.787 -0.2682  0.2979  0.5618
    9MOL   N296 9272   7.358   1.082   0.978  0.8013 -0.2580  0.8411
    9MOL   C297 9273   7.279   0.989   1.048 -0.0290  0.1086 -0.4198
    9MOL   C298 9274   7.129   1.046   1.065  0.2738  0.0822  0.3967
    9MOL   C299 9275   7.060   1.098   0.934 -0.6899  0.1202  0.0169
    9MOL   C300 9276   7.048   0.984   0.827  0.4877  0.5689  0.7078
    9MOL   C301 9277   7.019   1.041   0.686 -0.4512 -1.1137 -0.0609
    9MOL   C302 9278   7.054   0.927   0.588  0.5143  0.2580 -0.3193
    9MOL   N303 9279   7.053   0.968   0.444  0.1472 -0.2996  0.5761
    9MOL   H304 9280   0.822   1.136   1.067 -1.1629 -1.9746 -0.7863
    9MOL   H305 9281   0.680   1.231   1.094  0.9440  1.0988 -0.0521
    9MOL   H306 9282   0.731   1.012   0.920  0.3723  0.0975 -1.2347
    9MOL   H307 9283   0.674   1.131   0.807 -1.5740 -1.3163 -0.0225
    9MOL   H308 9284   0.534   1.001   1.044  0.9188 -0.8653 -0.0167
    9MOL   H309 9285   0.482   1.163   0.990  1.7073  0.0277 -0.1629
    9MOL   H310 9286   0.505   0.941   0.783 -0.2762 -2.1169  0.3254
    9MOL   H311 9287   0.436   1.100   0.762  3.1467 -0.2469 -0.0338
    9MOL   H312 9288   0.318   0.906   0.964  0.5881 -0.1286 -0.5699
    9MOL   H313 9289   0.257   1.066   0.918 -1.6018 -1.0852  1.0538
    9MOL   H314 9290   0.291   0.863   0.693  0.8947 -0.0026  0.5037
    9MOL   H315 9291   0.162   0.837   0.798  0.0615  0.3059 -1.3456
    9MOL   H316 9292   0.094   0.983   0.607  0.9821 -1.4529  1.1908
    9MOL   H317 9293   0.202   1.106   0.667 -0.5818  0.5547  1.4484
    9MOL   H318 9294   0.071   1.154   0.856 -0.5026  0.7406 -0.4951
    9MOL   H319 9295   7.689   1.002   0.858 -1.8731  0.9306  0.0258
    9MOL   H320 9296   7.657   1.233   0.655  3.2099 -0.2721  1.1328
    9MOL   H321 9297   7.573   1.093   0.635  1.0542  0.9149 -0.3107
    9MOL   H322 9298   7.543   1.240   0.898 -0.5281  1.3320 -0.4851
    9MOL   H323 9299   7.433   1.257   0.753 -2.2067 -0.4874  1.4641
    9MOL   H324 9300   7.363   1.174   1.019  0.8149 -0.5569  1.5070
    9MOL   H325 9301   7.328   0.974   1.144  3.0448  0.9343 -1.7759
    9MOL   H326 9302   7.279   0.893   0.997  0.3269  0.4997 -1.1697
    9MOL   H327 9303   7.134   1.133   1.131  2.0560 -0.1716  0.6224
    9MOL   H328 9304   7.068   0.963   1.100 -1.4465 -0.1220 -2.8574
    9MOL   H329 9305   7.115   1.184   0.898  0.2032  0.1562  1.4461
    9MOL   H330 9306   6.963   1.142   0.960 -0.0140  1.5207  0.1757
    9MOL   H331 9307   7.128   0.910   0.819  0.5085  0.7976 -1.7276
    9MOL   H332 9308   6.964   0.918   0.849 -0.6423  2.2525  1.5676
    9MOL   H333 9309   7.075   1.132   0.666  0.0424 -1.0165  1.6163
    9MOL   H334 9310   6.916   1.076   0.681  0.1798  1.0379  1.1591
    9MOL   H335 9311   7.152   0.883   0.608 -0.5997 -2.7540 -1.1796
    9MOL   H336 9312   6.983   0.844   0.599  0.8820 -0.1834 -1.2086
    9MOL   H337 9313   6.973   0.953   0.383 -0.3386  0.9949  0.8885
    9MOL   C338 9314   7.157   1.016   0.377 -0.3728 -0.4219 -0.0275
    9MOL   O339 9315   7.139   1.043   0.252  0.2980 -0.1744 -0.8185
    9MOL   C340 9316   7.296   1.048   0.438  0.3666 -0.4762  1.0256
    9MOL   C341 9317   7.365   1.168   0.383  0.5862  0.8714  0.2740
    9MOL   C342 9318   7.286   1.306   0.392  0.0059  0.0851  0.4001
    9MOL   C343 9319   7.295   1.368   0.537  0.3146  0.0845 -0.0119
    9MOL   C344 9320   7.175   1.463   0.563  1.1184 -0.0348  0.5999
    9MOL   C345 9321   7.193   1.529   0.702 -0.7183 -0.5153  0.1156
    9MOL   C346 9322   7.084   1.632   0.742 -0.5321  0.0480 -0.3085
    9MOL   C347 9323   7.093   1.765   0.659 -0.3352  0.1264  0.1305
    9MOL   C348 9324   7.226   1.839   0.677  0.8171 -0.0669  0.4212
    9MOL   C349 9325   7.219   1.976   0.598 -0.2849 -0.3309 -0.3379
    9MOL   C350 9326   7.350   2.063   0.622  0.1457  0.1112  0.3411
    9MOL   O351 9327   7.341   2.183   0.667 -0.2381  0.6236  0.0007
    9MOL   N352 9328   7.472   2.009   0.591  0.4789 -0.2535  0.2277
    9MOL   C353 9329   7.601   2.075   0.626  0.2495  0.0458  0.4411
    9MOL   C354 9330   7.656   2.012   0.759  0.1271  0.1753 -0.1264
    9MOL   C355 9331   7.565   2.038   0.876 -0.2692 -0.3474  0.1177
    9MOL   C356 9332   7.629   1.999   1.006  0.0758 -0.1976 -0.2477
    9MOL   C357 9333   7.556   2.056   1.126 -0.3218 -0.1991 -0.1632
    9MOL   C358 9334   7.609   1.988   1.252  0.2716  0.2436 -0.2260
    9MOL   N359 9335   0.062   2.025   1.264 -0.2191 -0.4058  0.6534
    9MOL   H360 9336   7.363   0.963   0.429  1.5199  0.4927  0.4645
    9MOL   H361 9337   7.289   1.055   0.547 -1.9931  1.3921  0.7890
    9MOL   H362 9338   7.467   1.175   0.419  1.3249 -2.7261 -0.9251
    9MOL   H363 9339   7.392   1.143   0.280 -0.7386 -0.0730  0.1431
    9MOL   H364 9340   7.187   1.284   0.352  0.1063 -0.2235  0.3160
    9MOL   H365 9341   7.332   1.373   0.320  1.2473  0.0320  1.1238
    9MOL   H366 9342   7.295   1.291   0.615  3.0306  0.6677  0.6286
    9MOL   H367 9343   7.391   1.420   0.541 -0.3995  1.3202  2.1417
    9MOL   H368 9344   7.172   1.553   0.503 -1.2673 -0.0353  0.6566
    9MOL   H369 9345   7.078   1.412   0.562 -0.0148  2.0540 -3.2568
    9MOL   H370 9346   7.190   1.451   0.779  1.6499 -0.8817 -0.1119
    9MOL   H371 9347   7.294   1.571   0.709 -0.5876 -0.6953 -0.6191
    9MOL   H372 9348   6.987   1.590   0.717  0.1841 -1.5555 -0.4859
    9MOL   H373 9349   7.089   1.650   0.849  2.6052 -2.0346 -0.0189
    9MOL   H374 9350   7.087   1.758   0.551 -0.7421  2.5880 -0.0280
    9MOL   H375 9351   7.018   1.839   0.688  0.3360  1.8047 -2.2567
    9MOL   H376 9352   7.314   1.791   0.633  0.3424 -0.2485 -0.3493
    9MOL   H377 9353   7.256   1.849   0.781 -1.7884  1.4950  1.0635
    9MOL   H378 9354   7.227   1.957   0.491  0.6459 -0.4573 -0.2493
    9MOL   H379 9355   7.134   2.037   0.629  0.2018  1.3477 -2.2807
    9MOL   H380 9356   7.475   1.922   0.541  2.0600 -0.8946  1.4106
    9MOL   H381 9357   7.601   2.182   0.644  0.3390  0.0563  0.3789
    9MOL   H382 9358   7.664   2.055   0.539 -2.8196 -0.9486 -1.6244
    9MOL   H383 9359   0.053   2.068   0.788  0.5474 -0.0950 -0.8840
    9MOL   H384 9360   7.682   1.907   0.740  1.3496  0.6691 -1.2478
    9MOL   H385 9361   7.535   2.142   0.886 -0.4843 -0.3240 -0.6901
    9MOL   H386 9362   7.474   1.979   0.873  0.5006 -1.5327 -0.2738
    9MOL   H387 9363   7.637   1.890   1.012 -1.0538 -0.4038 -1.8384
    9MOL   H388 9364   0.041   2.028   0.996  0.1924 -0.9731 -1.4666
    9MOL   H389 9365   7.448   2.050   1.120 -0.2610  0.1283 -1.8578
    9MOL   H390 9366   7.575   2.164   1.134  0.7610 -0.0473 -3.8878
    9MOL   H391 9367   7.551   2.023   1.337 -0.2370 -2.5273  0.6173
    9MOL   H392 9368   7.594   1.880   1.250 -2.9489  0.6528 -0.5194
    9MOL   H393 9369   0.106   2.068   1.184 -0.9359  2.0255  1.5367
    9MOL   C394 9370   0.137   1.985   1.367 -0.3462  0.5497 -0.2404
    9MOL   O395 9371   0.257   2.016   1.368  0.8588 -0.1866  0.0327
    9MOL   C396 9372   0.077   1.899   1.478 -0.1095  0.0752  0.3908
    9MOL   C397 9373   0.094   1.754   1.449 -0.4939 -0.2426 -0.0244
    9MOL   C398 9374   0.002   1.662   1.537  0.2676 -0.1277  0.0193
    9MOL   C399 9375   0.039   1.659   1.687  0.7162 -0.0743 -0.0070
    9MOL   C400 9376   7.650   1.542   1.753 -0.3913 -0.4917  0.1808
    9MOL   C401 9377   7.676   1.534   1.901 -0.4006  0.0393  0.3912
    9MOL   C402 9378   7.587   1.434   1.969  0.4742 -0.8311 -0.1551
    9MOL   C403 9379   7.438   1.447   1.943 -0.3256  0.4252  0.8832
    9MOL   C404 9380   7.357   1.342   2.023  0.2647  0.1718 -0.0957
    9MOL   C405 9381   7.196   1.353   1.987  0.0541  0.1791  0.3512
    9MOL   C406 9382   7.117   1.461   2.065  0.9590  0.7571  0.2702
    9MOL   O407 9383   7.174   1.544   2.130  0.1771  0.1572  0.9959
    9MOL   N408 9384   6.986   1.462   2.056  0.3223 -0.4296 -0.4718
    9MOL   C409 9385   6.891   1.550   2.114  0.6415  0.1595  0.2787
    9MOL   C410 9386   6.881   1.529   2.267  0.3796 -0.1259  0.0884
    9MOL   C411 9387   6.792   1.626   2.340 -0.3792 -0.2301 -0.5435
    9MOL   C412 9388   6.640   1.600   2.319  0.7288 -0.3315 -0.4797
    9MOL   C413 9389   6.550   1.716   2.371 -0.1740  0.1271 -0.3120
    9MOL   C414 9390   6.399   1.673   2.366 -0.3531  0.1727  0.4183
    9MOL   N415 9391   6.371   1.575   2.466 -0.0359 -0.2898  0.3330
    9MOL   H416 9392   7.669   1.933   1.504 -0.3892 -1.5297  1.4800
    9MOL   H417 9393   0.136   1.922   1.567  0.2588  3.2931 -0.6311
    9MOL   H418 9394   0.198   1.725   1.460 -1.1983 -2.2468  1.6798
    9MOL   H419 9395   0.080   1.735   1.342  0.6656 -1.0773 -0.0339
    9MOL   H420 9396   0.014   1.563   1.494 -2.5950  0.0501 -1.3424
    9MOL   H421 9397   7.589   1.693   1.528  0.8762  1.4426 -2.1638
    9MOL   H422 9398   0.026   1.753   1.740 -2.0551 -0.2427 -0.3207
    9MOL   H423 9399   0.146   1.637   1.687  0.2752 -2.4189 -1.4689
    9MOL   H424 9400   7.545   1.571   1.751 -0.7958 -1.9419  0.1368
    9MOL   H425 9401   7.670   1.448   1.702  0.2332 -0.3754  0.2053
    9MOL   H426 9402   0.091   1.510   1.910 -0.5657 -1.6264 -1.6487
    9MOL   H427 9403   7.673   1.631   1.950  1.0681  1.5432 -2.3231
    9MOL   H428 9404   7.618   1.330   1.964 -0.2968 -1.0731  0.0121
    9MOL   H429 9405   7.598   1.454   2.076 -1.3169  1.1762 -0.3178
    9MOL   H430 9406   7.399   1.549   1.954 -1.2710  0.3159 -1.1861
    9MOL   H431 9407   7.421   1.420   1.839  1.5140 -0.4735  0.7942
    9MOL   H432 9408   7.354   1.357   2.131 -1.1564 -0.4615 -0.0484
    9MOL   H433 9409   7.384   1.240   2.000  0.2056 -0.0522  0.7872
    9MOL   H434 9410   7.177   1.361   1.880 -0.9930  2.4669  0.6680
    9MOL   H435 9411   7.139   1.267   2.021  1.4409 -0.9997 -0.2603
    9MOL   H436 9412   6.958   1.399   1.982 -2.5239  0.3816 -0.1315
    9MOL   H437 9413   6.792   1.530   2.073  1.8217 -2.8184 -1.2611
    9MOL   H438 9414   6.920   1.654   2.099  0.0419  0.0028 -2.1900
    9MOL   H439 9415   6.980   1.523   2.312 -0.5883 -1.3877  2.1390
    9MOL   H440 9416   6.843   1.427   2.281 -1.3427  0.2557 -1.4687
    9MOL   H441 9417   6.807   1.623   2.448 -0.3981  0.0349 -0.5327
    9MOL   H442 9418   6.816   1.729   2.313 -1.9380  0.4146  0.4131
    9MOL   H443 9419   6.610   1.567   2.220  0.6837  1.9555 -1.2635
    9MOL   H444 9420   6.608   1.516   2.381 -2.8142  0.4450 -1.1612
    9MOL   H445 9421   6.587   1.746   2.468  0.1189 -2.0310  0.2587
    9MOL   H446 9422   6.566   1.794   2.297  0.3809  1.1864  0.9161
    9MOL   H447 9423   6.324   1.752   2.372 -0.4164  0.3032 -1.7302
    9MOL   H448 9424   6.384   1.634   2.266 -0.1814 -0.8255  0.7725
    9MOL   H449 9425   6.451   1.545   2.520 -0.7773 -0.1554  1.5318
    9MOL   C450 9426   6.256   1.529   2.513 -0.7490 -0.2603  0.2014
    9MOL   O451 9427   6.151   1.570   2.473  0.0790  1.1067  0.3501
    9MOL   C452 9428   6.261   1.407   2.598  0.3977 -0.6136  0.2687
    9MOL   C453 9429   6.270   1.436   2.754  0.0194 -0.2939  0.0130
    9MOL   C454 9430   6.413   1.473   2.796  0.5931 -0.5515 -0.1117
    9MOL   C455 9431   6.401   1.564   2.925 -0.3014 -0.0524 -0.1471
    9MOL   C456 9432   6.540   1.576   2.998 -0.1968  0.1438  0.0979
    9MOL   C457 9433   6.653   1.651   2.927 -0.1710  0.3612  0.3435
    9MOL   C458 9434   6.621   1.799   2.878 -0.3057 -0.6267  0.5693
    9MOL   C459 9435   6.755   1.863   2.843  1.0215 -0.1665 -0.2399
    9MOL   C460 9436   6.744   1.994   2.768 -0.1053 -0.3505  0.2964
    9MOL   C461 9437   6.875   2.059   2.750 -0.6269  0.2251  0.5997
    9MOL   C462 9438   6.944   2.021   2.621  0.4144 -0.4371  0.0403
    9MOL   O463 9439   6.892   2.056   2.516 -0.3339  0.1170 -0.5176
    9MOL   N464 9440   7.056   1.944   2.639 -0.0134 -0.2710  0.0925
    9MOL   C465 9441   7.132   1.881   2.539  0.4886  0.0240  0.0390
    9MOL   C466 9442   7.141   1.734   2.553 -0.4098  0.9419  0.0110
    9MOL   C467 9443   7.248   1.685   2.465  0.3345 -0.0832  0.5222
    9MOL   C468 9444   7.276   1.533   2.480  0.3157 -0.6011 -0.2532
    9MOL   C469 9445   7.392   1.472   2.390  0.3423  0.0481 -0.9897
    9MOL   C470 9446   7.536   1.488   2.440 -0.5773  0.2287 -0.1403
    9MOL   N471 9447   7.628   1.416   2.354 -0.4835  0.3753  0.0766
    9MOL   H472 9448   6.166   1.358   2.575  0.2599 -0.3410  0.2492
    9MOL   H473 9449   6.343   1.347   2.557  0.0015 -0.6324 -0.5103
    9MOL   H474 9450   6.236   1.343   2.799  0.4863 -1.3350 -1.7060
    9MOL   H475 9451   6.208   1.523   2.776  0.3635 -0.1649  0.4649
    9MOL   H476 9452   6.460   1.536   2.720 -1.7799  0.7705 -0.5355
    9MOL   H477 9453   6.459   1.376   2.811  2.0436  0.0206 -0.6850
    9MOL   H478 9454   6.339   1.515   3.001  0.2001  0.3581  0.5305
    9MOL   H479 9455   6.347   1.657   2.910 -0.9808 -0.6931 -1.6994
    9MOL   H480 9456   6.570   1.473   3.021 -1.9110 -0.4149 -0.0841
    9MOL   H481 9457   6.521   1.631   3.091  1.2910 -0.7203  0.9409
    9MOL   H482 9458   6.676   1.597   2.835 -1.2570 -2.5616  1.7501
    9MOL   H483 9459   6.741   1.631   2.988 -1.8447  2.0226  3.4274
    9MOL   H484 9460   6.558   1.782   2.790 -2.6373 -1.0604  2.2793
    9MOL   H485 9461   6.575   1.854   2.960  2.4370  0.6997  1.2703
    9MOL   H486 9462   6.806   1.896   2.933 -0.9116  0.5377  0.6207
    9MOL   H487 9463   6.816   1.796   2.783  0.5993 -1.5141  0.8091
    9MOL   H488 9464   6.667   2.061   2.804  1.6371  2.6792 -1.3559
    9MOL   H489 9465   6.709   1.967   2.668  2.1177 -1.2075 -0.2876
    9MOL   H490 9466   6.853   2.166   2.748 -0.7299  0.1986 -1.3217
    9MOL   H491 9467   6.941   2.051   2.836  1.3580  1.4299 -0.7368
    9MOL   H492 9468   7.086   1.929   2.735  0.7389 -0.9879 -0.2554
    9MOL   H493 9469   7.225   1.937   2.540 -0.5490  1.8409 -0.8610
    9MOL   H494 9470   7.092   1.905   2.440 -2.1797 -1.9537  0.5709
    9MOL   H495 9471   7.175   1.712   2.654 -1.6177 -0.1574  0.1999
    9MOL   H496 9472   7.050   1.681   2.524  1.2488 -1.3064 -1.2919
    9MOL   H497 9473   7.336   1.742   2.497  2.2543 -1.8880 -1.3892
    9MOL   H498 9474   7.235   1.706   2.359 -1.2050 -1.5283  0.4093
    9MOL   H499 9475   7.184   1.482   2.450 -0.5121  1.0135 -0.5403
    9MOL   H500 9476   7.294   1.513   2.585 -0.6117  0.0193  0.0332
    9MOL   H501 9477   7.364   1.368   2.375 -2.7674  0.7842 -0.7182
    9MOL   H502 9478   7.392   1.515   2.290 -0.0639  0.4646 -0.8134
    9MOL   H503 9479   7.550   1.596   2.445 -2.8957  0.5118  0.5308
    9MOL   H504 9480   7.556   1.465   2.544  0.4983 -0.5416 -0.4989
    9MOL   H505 9481   7.683   1.482   2.300 -0.5046  1.8352  1.7882
    9MOL   C506 9482   7.651   1.285   2.367  0.1091 -0.4226 -0.4497
    9MOL   O507 9483   7.588   1.208   2.438  0.1865 -0.3407 -0.1636
    9MOL   C508 9484   0.079   1.234   2.286  0.2087  0.0396  0.1073
    9MOL   C509 9485   0.075   1.085   2.236  0.4133 -0.8654  0.4179
    9MOL   C510 9486   0.092   0.977   2.340 -0.2726 -0.2627 -0.1240
    9MOL   C511 9487   0.122   0.838   2.283 -0.5027 -0.2851 -0.2342
    9MOL   C512 9488   0.136   0.733   2.400 -0.1248 -0.0347 -0.1733
    9MOL   C513 9489   0.204   0.606   2.355 -0.2574  0.1934  0.1252
    9MOL   C514 9490   0.208   0.503   2.472  0.1294  0.4343 -0.8502
    9MOL   C515 9491   0.274   0.370   2.438  0.2241 -0.2121 -0.2673
    9MOL   C516 9492   0.290   0.281   2.564 -0.1055  1.0334 -0.1736
    9MOL   C517 9493   0.400   0.175   2.549  0.8260  0.6621 -0.5854
    9MOL   C518 9494   0.404   0.090   2.680 -0.1940 -0.2108 -0.0797
    9MOL   O519 9495   0.391   0.146   2.791  0.0464  0.3843 -0.0250
    9MOL   N520 9496   0.430   7.652   2.665 -0.2288  0.7299 -0.2448
    9MOL   C521 9497   0.444   7.560   2.765 -0.0945 -0.0305 -0.2937
    9MOL   C522 9498   0.498   7.434   2.701 -0.1047  0.4242 -0.2970
    9MOL   C523 9499   0.551   7.334   2.807 -0.1769  0.5916 -0.3416
    9MOL   C524 9500   0.649   7.232   2.746  0.0640  0.0931 -0.1889
    9MOL   C525 9501   0.575   7.135   2.648 -0.2709  0.0744 -0.6247
    9MOL   C526 9502   0.677   7.047   2.569  0.2591 -0.3923 -0.7686
    9MOL   N527 9503   0.609   6.960   2.466  0.1373 -0.3945 -0.2851
    9MOL   H528 9504   0.167   1.253   2.347 -0.6418  1.9647  0.7798
    9MOL   H529 9505   0.096   1.292   2.195  0.8585  0.3246  0.4055
    9MOL   H530 9506   0.147   1.067   2.156  0.4110 -0.2268  0.2714
    9MOL   H531 9507   7.668   1.056   2.199 -0.1921 -0.0703  1.3993
    9MOL   H532 9508   0.009   0.975   2.411 -1.3675 -0.6468 -1.4004
    9MOL   H533 9509   0.183   1.014   2.386  0.5538 -0.9255 -1.2218
    9MOL   H534 9510   0.043   0.813   2.213 -0.1655  3.6305 -2.1813
    9MOL   H535 9511   0.211   0.839   2.219 -1.0582  0.5972 -1.0100
    9MOL   H536 9512   0.203   0.771   2.477  0.6470 -1.7997  0.0488
    9MOL   H537 9513   0.042   0.721   2.453  0.4551  0.9557  1.0916
    9MOL   H538 9514   0.156   0.571   2.263  2.4666  1.5672 -1.8997
    9MOL   H539 9515   0.305   0.632   2.324 -0.8078  0.4300 -1.5131
    9MOL   H540 9516   0.273   0.549   2.546 -1.1408  1.2045 -0.1949
    9MOL   H541 9517   0.108   0.491   2.515  0.3063 -0.0126 -0.5668
    9MOL   H542 9518   0.217   0.317   2.362  1.4548 -0.9593 -0.6796
    9MOL   H543 9519   0.368   0.390   2.387 -1.2144 -0.3260 -2.9972
    9MOL   H544 9520   0.200   0.228   2.596 -0.7572  2.7679  0.8820
    9MOL   H545 9521   0.319   0.337   2.653  1.7963 -2.9559  1.8564
    9MOL   H546 9522   0.375   0.108   2.467  2.4154  0.4974 -0.9538
    9MOL   H547 9523   0.495   0.222   2.526  1.2480 -0.2887 -0.8253
    9MOL   H548 9524   0.458   7.617   2.575  0.3820 -3.0031  1.2880
    9MOL   H549 9525   0.350   7.542   2.817  0.2730 -1.0590  0.0403
    9MOL   H550 9526   0.521   7.608   2.824  1.7375 -0.0899 -2.5706
    9MOL   H551 9527   0.583   7.464   2.641 -0.1449 -0.4618 -0.8199
    9MOL   H552 9528   0.426   7.391   2.632 -1.2319 -0.4904  1.3979
    9MOL   H553 9529   0.471   7.282   2.859 -1.2296  2.5015  0.0095
    9MOL   H554 9530   0.607   7.381   2.888 -1.0226 -2.8459  2.3802
    9MOL   H555 9531   0.701   7.177   2.825 -3.2884 -1.4848  1.0119
    9MOL   H556 9532   0.733   7.279   2.695 -0.3265 -0.7760 -1.6606
    9MOL   H557 9533   0.509   7.067   2.704  2.4790 -0.5023  2.0447
    9MOL   H558 9534   0.510   7.185   2.576 -0.1358  0.9289 -0.1612
    9MOL   H559 9535   0.740   7.113   2.510  0.1731  0.4251  0.0361
    9MOL   H560 9536   0.753   6.992   2.626 -1.8265 -0.3442  2.1902
    9MOL   H561 9537   0.508   6.951   2.463 -0.1822  1.7358  2.2834
    9MOL   C562 9538   0.678   6.893   2.381  0.2214  0.1370  0.4238
    9MOL   O563 9539   0.804   6.891   2.378  0.0492 -0.5787  0.3470
    9MOL   C564 9540   0.600   6.803   2.289 -0.3634  0.1848 -0.5467
    9MOL   C565 9541   0.689   6.709   2.205  0.1128 -0.0130  0.9845
    9MOL   C566 9542   0.761   6.599   2.285 -0.5724 -0.1567 -0.1034
    9MOL   C567 9543   0.852   6.525   2.185 -0.6724  0.6228 -0.5077
    9MOL   C568 9544   0.917   6.398   2.245  0.3794 -0.2132  0.1426
    9MOL   C569 9545   1.029   6.430   2.354  0.1043  0.1900  0.1689
    9MOL   C570 9546   1.079   6.307   2.441 -0.4165 -0.3951  0.7600
    9MOL   C571 9547   0.981   6.254   2.550  0.3983  0.4329  0.6773
    9MOL   C572 9548   1.066   6.174   2.654 -0.8286 -0.0756  0.2190
    9MOL   C573 9549   0.975   6.126   2.774 -0.0613 -0.1936  0.2820
    9MOL   C574 9550   1.049   6.030   2.868 -0.0918  1.0787  0.1996
    9MOL   O575 9551   1.155   5.981   2.836 -0.0155  0.5469 -0.2534
    9MOL   N576 9552   0.981   5.999   2.980 -0.0629  0.0077  0.4306
    9MOL   C577 9553   1.034   5.901   3.074 -0.3425  0.8175  0.8150
    9MOL   C578 9554   0.988   5.750   3.045 -0.3253 -0.1908 -0.6583
    9MOL   C579 9555   1.063   5.660   3.141  0.6287 -0.2885  0.1787
    9MOL   C580 9556   1.030   5.508   3.135  0.1361 -0.2499 -0.2149
    9MOL   C581 9557   0.894   5.470   3.188  0.3008 -0.0263  0.2395
    9MOL   C582 9558   0.851   5.326   3.137  0.2765  0.7555  0.2493
    9MOL   N583 9559   0.715   5.281   3.180 -0.5605 -0.0084 -0.1930
    9MOL   H584 9560   0.534   6.735   2.343 -0.5996  0.2287 -0.7782
    9MOL   H585 9561   0.527   6.858   2.228  0.8668 -0.8706 -3.0484
    9MOL   H586 9562   0.630   6.672   2.121  2.4532 -2.0566  0.1581
    9MOL   H587 9563   0.765   6.771   2.158 -0.2278  0.1292  0.6232
    9MOL   H588 9564   0.683   6.534   2.324 -0.0475  0.3162  1.7679
    9MOL   H589 9565   0.819   6.642   2.367  0.1832 -0.3456 -0.5283
    9MOL   H590 9566   0.784   6.493   2.106  0.6448 -0.4223 -1.2311
    9MOL   H591 9567   0.924   6.595   2.143 -1.8421  3.8781  2.6850
    9MOL   H592 9568   0.837   6.339   2.289  1.2438 -1.4587  0.0808
    9MOL   H593 9569   0.953   6.333   2.166  1.9156 -0.8150  1.3231
    9MOL   H594 9570   1.121   6.455   2.301  0.2693 -1.8493 -0.5346
    9MOL   H595 9571   1.004   6.518   2.414 -2.7663  0.9111 -1.9750
    9MOL   H596 9572   1.104   6.234   2.364 -0.7907  1.5620 -1.2748
    9MOL   H597 9573   1.179   6.320   2.482  0.4574 -0.3987 -1.3043
    9MOL   H598 9574   0.896   6.202   2.505  0.1749  1.3785  0.0003
    9MOL   H599 9575   0.941   6.337   2.608  1.1264  1.9095 -0.9003
    9MOL   H600 9576   1.140   6.246   2.689 -0.4425 -0.5176  0.3185
    9MOL   H601 9577   1.115   6.087   2.611  1.0415 -0.0224  2.1409
    9MOL   H602 9578   0.957   6.217   2.831  1.2899 -1.2810  2.5228
    9MOL   H603 9579   0.881   6.089   2.734 -0.1730  0.3364  0.0558
    9MOL   H604 9580   0.898   6.047   3.010 -0.4611  0.5962 -1.5424
    9MOL   H605 9581   1.005   5.932   3.174 -0.5211 -0.4514  1.1638
    9MOL   H606 9582   1.143   5.907   3.080 -0.2862 -0.1398  0.8694
    9MOL   H607 9583   1.008   5.718   2.942  0.6646 -1.6434 -0.0205
    9MOL   H608 9584   0.881   5.734   3.054 -0.7933 -0.1347 -4.9732
    9MOL   H609 9585   1.047   5.689   3.245 -1.7232 -0.5579 -0.0884
    9MOL   H610 9586   1.171   5.671   3.133  0.7115 -1.3056 -0.1802
    9MOL   H611 9587   1.051   5.468   3.036 -0.5283 -2.1414  0.3949
    9MOL   H612 9588   1.109   5.455   3.188  1.5537  1.6326 -0.3645
    9MOL   H613 9589   0.817   5.541   3.160 -0.9665 -0.8274  1.6271
    9MOL   H614 9590   0.890   5.467   3.296  1.2052 -2.7386  0.2558
    9MOL   H615 9591   0.858   5.325   3.029 -1.0657  0.7792  0.1556
    9MOL   H616 9592   0.918   5.251   3.181 -0.8156  1.1137  2.6396
    9MOL   H617 9593   0.718   5.225   3.264  2.0513 -1.2333 -1.0628
    9MOL   C618 9594   0.607   5.286   3.103 -0.1642 -0.3622 -0.6309
    9MOL   O619 9595   0.603   5.348   2.996  0.3980  0.6369 -0.1544
    9MOL   C620 9596   0.475   5.226   3.153  0.2102 -0.2948 -0.5232
    9MOL   C621 9597   0.367   5.197   3.044  0.3630  0.2735 -0.3123
    9MOL   C622 9598   0.414   5.099   2.930 -0.2480 -0.2537 -0.0346
    9MOL   C623 9599   0.306   5.090   2.819  0.2038  0.2829 -0.2576
    9MOL   C624 9600   0.332   5.200   2.716 -0.4618 -0.5214 -0.4832
    9MOL   C625 9601   0.192   5.217   2.647 -0.1725 -0.0435 -0.2743
    9MOL   C626 9602   0.205   5.334   2.535 -0.5557  0.1464 -0.1807
    9MOL   C627 9603   0.313   5.298   2.428 -0.2404 -0.6525 -0.4812
    9MOL   C628 9604   0.307   5.406   2.323 -0.4619  0.3533 -0.5379
    9MOL   C629 9605   0.387   5.370   2.206  0.3015 -0.0985 -0.4002
    9MOL   C630 9606   0.541   5.391   2.227 -0.1620  0.0931  0.0194
    9MOL   O631 9607   0.579   5.497   2.265 -0.4918  0.4912  0.3272
    9MOL   N632 9608   0.626   5.282   2.221 -0.5151  0.3527 -0.1969
    9MOL   C633 9609   0.768   5.282   2.230  0.0350 -0.0256  0.5304
    9MOL   C634 9610   0.825   5.170   2.148  0.5730 -0.1830 -0.9867
    9MOL   C635 9611   0.779   5.179   2.000 -0.4121 -0.6357 -0.7839
    9MOL   C636 9612   0.835   5.064   1.920 -0.1263 -0.1560  0.9915
    9MOL   C637 9613   0.793   5.083   1.774 -0.0773  0.3629  0.5927
    9MOL   C638 9614   0.835   4.976   1.673  0.2485  0.5265 -0.0825
    9MOL   N639 9615   0.769   4.990   1.549 -0.4453 -0.3818 -0.1973
    9MOL   H640 9616   0.429   5.302   3.217  2.3602 -0.1700  0.9264
    9MOL   H641 9617   0.500   5.141   3.217  1.3414 -2.3407 -3.5821
    9MOL   H642 9618   0.323   5.288   3.003 -1.2148 -0.8566 -1.2170
    9MOL   H643 9619   0.291   5.138   3.096  0.4632  0.7123  0.3401
    9MOL   H644 9620   0.428   5.004   2.982  0.6252 -0.7700 -1.2139
    9MOL   H645 9621   0.511   5.130   2.892  0.0452 -2.4212 -1.1317
    9MOL   H646 9622   0.306   4.990   2.776  1.6723 -0.4847  1.4870
    9MOL   H647 9623   0.215   5.102   2.877  0.6728  1.5139  0.2564
    9MOL   H648 9624   0.360   5.294   2.764  1.3498 -0.3728 -1.7774
    9MOL   H649 9625   0.408   5.162   2.648 -0.7788 -0.5677 -0.8146
    9MOL   H650 9626   0.118   5.249   2.720  0.8394 -1.9423  1.6193
    9MOL   H651 9627   0.164   5.127   2.592  1.5449 -0.1338 -1.0183
    9MOL   H652 9628   0.106   5.347   2.491 -0.3316 -0.4222 -0.8638
    9MOL   H653 9629   0.225   5.410   2.611  0.6480 -0.1856 -0.1476
    9MOL   H654 9630   0.413   5.292   2.469 -0.7319 -0.4062  0.7881
    9MOL   H655 9631   0.298   5.200   2.384 -0.8808  0.6718 -3.3721
    9MOL   H656 9632   0.349   5.499   2.362 -0.0407  1.2381 -3.0185
    9MOL   H657 9633   0.206   5.417   2.284 -1.1473 -2.2962  0.3961
    9MOL   H658 9634   0.361   5.268   2.179  2.9417 -0.5333 -1.4730
    9MOL   H659 9635   0.359   5.435   2.124  0.0228 -1.4494 -1.3978
    9MOL   H660 9636   0.592   5.188   2.204  0.0760  0.1634 -0.3721
    9MOL   H661 9637   0.813   5.376   2.199 -0.2547  0.1452  0.6223
    9MOL   H662 9638   0.784   5.268   2.337  0.1749 -0.8199  0.4060
    9MOL   H663 9639   0.802   5.074   2.195  0.8960  0.1282 -0.2004
    9MOL   H664 9640   0.934   5.175   2.148  0.5761 -0.2052 -0.0063
    9MOL   H665 9641   0.671   5.192   1.995 -0.5811  0.0820  2.8139
    9MOL   H666 9642   0.826   5.270   1.965  2.0709 -1.4777  0.2185
    9MOL   H667 9643   0.807   4.965   1.957 -0.0224 -0.2959  0.6942
    9MOL   H668 9644   0.943   5.067   1.907 -0.2132 -1.4321 -0.0979
    9MOL   H669 9645   0.685   5.094   1.768  0.0603  0.5329 -2.2342
    9MOL   H670 9646   0.843   5.172   1.737  0.6497 -0.9820 -1.7534
    9MOL   H671 9647   0.943   4.962   1.668  0.3211  0.8780  0.4544
    9MOL   H672 9648   0.803   4.882   1.718  0.3536  0.0047 -1.0979
    9MOL   H673 9649   0.698   5.062   1.549  2.1397  2.2856 -1.3613
    9MOL   C674 9650   0.774   4.899   1.453  1.1612 -0.4618 -0.3872
    9MOL   O675 9651   0.858   4.805   1.442  0.2779 -0.6320 -0.1973
    9MOL   C676 9652   0.654   4.915   1.354 -0.3861 -0.1718  0.3745
    9MOL   C677 9653   0.572   4.786   1.339  0.4909  0.2881 -0.2028
    9MOL   C678 9654   0.439   4.805   1.267  0.5492 -0.4559 -0.0281
    9MOL   C679 9655   0.353   4.679   1.254 -0.1606  0.1032 -0.3849
    9MOL   C680 9656   0.313   4.606   1.383  0.3236  0.3757 -0.0241
    9MOL   C681 9657   0.218   4.487   1.341  0.5126  0.3563  0.7331
    9MOL   C682 9658   0.219   4.366   1.438  0.4461  0.9273 -0.1397
    9MOL   C683 9659   0.139   4.234   1.406 -0.3906  0.2504  0.1863
    9MOL   C684 9660   0.163   4.128   1.519  0.2619 -0.2553 -0.3122
    9MOL   C685 9661   0.296   4.068   1.556  0.2652  0.6492  0.1113
    9MOL   C686 9662   0.387   4.041   1.433  0.5920  0.3150 -0.3391
    9MOL   O687 9663   0.351   3.957   1.351 -0.0759  0.4441  0.7126
    9MOL   N688 9664   0.483   4.130   1.415  0.2012 -0.1491 -0.0042
    9MOL   C689 9665   0.579   4.131   1.304  0.2506 -0.6582  0.1009
    9MOL   C690 9666   0.577   4.272   1.239 -0.5673  0.0956 -0.2559
    9MOL   C691 9667   0.683   4.282   1.133 -0.4090 -0.6321  0.2934
    9MOL   C692 9668   0.705   4.424   1.078  0.3012  0.7797 -0.4738
    9MOL   C693 9669   0.806   4.511   1.150 -0.7370  0.5991 -0.0308
    9MOL   C694 9670   0.840   4.653   1.094 -0.1024 -0.5041 -0.1140
    9MOL   N695 9671   0.923   4.709   1.198 -0.2884  0.2822  0.6131
    9MOL   H696 9672   0.685   4.955   1.257  1.3997 -0.1853  0.9308
    9MOL   H697 9673   0.581   4.983   1.399  1.7958  2.0393  0.6802
    9MOL   H698 9674   0.554   4.769   1.445  1.3102 -0.5497 -0.1927
    9MOL   H699 9675   0.627   4.709   1.283  1.2082  1.4739 -1.1503
    9MOL   H700 9676   0.382   4.885   1.316 -0.8289 -1.3626 -0.1147
    9MOL   H701 9677   0.468   4.841   1.168  2.9353  0.7808  1.0894
    9MOL   H702 9678   0.405   4.610   1.188  0.4459 -2.2013  2.4083
    9MOL   H703 9679   0.261   4.713   1.205 -1.9302 -0.4303  2.4425
    9MOL   H704 9680   0.264   4.670   1.456  0.5729  0.0566  0.4238
    9MOL   H705 9681   0.413   4.570   1.406  1.0345  1.8320 -0.7812
    9MOL   H706 9682   0.113   4.514   1.327  0.7322  0.2827 -1.2147
    9MOL   H707 9683   0.253   4.440   1.249 -0.1806 -2.7599  2.0262
    9MOL   H708 9684   0.324   4.340   1.441  0.3197  0.3352 -0.6919
    9MOL   H709 9685   0.179   4.402   1.533 -1.8262  0.2729 -0.8100
    9MOL   H710 9686   0.034   4.261   1.419 -0.8532 -0.4022 -1.9389
    9MOL   H711 9687   0.151   4.195   1.305 -0.7148 -2.5219  1.1734
    9MOL   H712 9688   0.102   4.043   1.489 -1.0951 -0.4678  2.8175
    9MOL   H713 9689   0.117   4.158   1.614 -0.1464 -0.3199 -0.4890
    9MOL   H714 9690   0.343   4.143   1.619  0.8675  0.2310  0.1578
    9MOL   H715 9691   0.291   3.972   1.608  0.1863 -0.9618 -2.7240
    9MOL   H716 9692   0.511   4.198   1.484 -1.4259 -0.9250  1.4628
    9MOL   H717 9693   0.674   4.110   1.354  0.7454  1.7081  0.2258
    9MOL   H718 9694   0.564   4.055   1.228  0.4329 -0.9679  0.3736
    9MOL   H719 9695   0.571   4.360   1.303  0.7112  0.5602 -0.7618
    9MOL   H720 9696   0.480   4.272   1.190 -0.9681  1.8279  0.4889
    9MOL   H721 9697   0.776   4.238   1.168  0.3367 -0.0082 -0.8999
    9MOL   H722 9698   0.651   4.224   1.047 -1.9933  0.8076 -0.1097
    9MOL   H723 9699   0.609   4.475   1.074 -0.3732 -0.4739 -0.6009
    9MOL   H724 9700   0.746   4.415   0.977  3.0811  0.2115  0.6472
    9MOL   H725 9701   0.896   4.449   1.149 -0.2794  1.2538  0.2347
    9MOL   H726 9702   0.775   4.502   1.253 -1.3415 -0.4695 -0.2927
    9MOL   H727 9703   0.879   4.625   0.996 -0.4832  0.5107 -0.5566
    9MOL   H728 9704   0.754   4.719   1.084  0.0454 -0.3223 -0.1789
    9MOL   H729 9705   0.884   4.722   1.291 -0.5463 -2.2400  0.8826
    9MOL   C730 9706   1.038   4.764   1.164 -0.1687 -0.8647  0.9238
    9MOL   O731 9707   1.087   4.755   1.050  0.3821  0.1027 -0.3237
    9MOL   C732 9708   1.116   4.841   1.273  0.2929  0.0360  0.1244
    9MOL   C733 9709   1.251   4.908   1.229 -0.6450  0.1174 -0.4466
    9MOL   C734 9710   1.311   4.985   1.354  0.6638 -0.5174  0.2320
    9MOL   C735 9711   1.443   5.068   1.317 -0.3408  0.7175  0.8690
    9MOL   C736 9712   1.502   5.157   1.428 -0.0200  0.9123  0.0101
    9MOL   C737 9713   1.569   5.080   1.543 -0.0500  0.1892  0.7391
    9MOL   C738 9714   1.701   5.016   1.511  0.1294  0.4283 -0.7847
    9MOL   C739 9715   1.777   4.947   1.624  0.3465 -0.3764  0.3709
    9MOL   C740 9716   1.702   4.828   1.682  0.1662 -0.3478  0.4901
    9MOL   C741 9717   1.773   4.754   1.791  0.0742 -0.1140  0.7372
    9MOL   C742 9718   1.805   4.607   1.757 -0.5773 -0.3382  0.5428
    9MOL   O743 9719   1.752   4.547   1.660 -0.4158  0.4099  0.1672
    9MOL   N744 9720   1.891   4.538   1.833 -0.4536 -0.6819 -0.4058
    9MOL   C745 9721   1.927   4.402   1.794 -0.1911  0.0148  0.2877
    9MOL   C746 9722   1.984   4.316   1.912 -0.0254  0.7258 -0.2315
    9MOL   C747 9723   1.870   4.283   2.009  0.6789  0.1228 -0.5004
    9MOL   C748 9724   1.914   4.184   2.119 -0.7364 -0.8008 -0.4433
    9MOL   C749 9725   1.806   4.161   2.224  0.0823  0.0417  0.8318
    9MOL   C750 9726   1.669   4.107   2.181 -0.2085 -0.1342 -0.4790
    9MOL   N751 9727   1.581   4.110   2.296  0.2888  0.0941  0.1740
    9MOL   H752 9728   1.108   4.778   1.362 -2.7590 -1.3611 -1.0657
    9MOL   H753 9729   1.047   4.924   1.292 -0.6683 -1.3715  3.2943
    9MOL   H754 9730   1.232   4.984   1.152  1.5190 -0.4107 -1.5219
    9MOL   H755 9731   1.315   4.832   1.186 -1.1975  0.1825 -1.3923
    9MOL   H756 9732   1.317   4.921   1.442 -1.6909  1.1121  1.6376
    9MOL   H757 9733   1.248   5.069   1.385  2.2628  0.6708  0.3610
    9MOL   H758 9734   1.429   5.136   1.234 -0.8196 -0.8966 -0.4036
    9MOL   H759 9735   1.530   5.018   1.275 -0.2655  1.9855 -0.4938
    9MOL   H760 9736   1.417   5.198   1.483  1.7500  0.8759  2.8824
    9MOL   H761 9737   1.557   5.242   1.388  0.3715 -0.4395 -2.3912
    9MOL   H762 9738   1.591   5.136   1.634  0.7549 -1.1040  1.3552
    9MOL   H763 9739   1.501   5.006   1.586  2.8905 -2.4760  0.9745
    9MOL   H764 9740   1.694   4.935   1.438 -2.5274 -2.5578  2.6396
    9MOL   H765 9741   1.765   5.096   1.473  1.0070  0.7352  1.2745
    9MOL   H766 9742   1.869   4.909   1.580  0.1871 -0.5760  0.2109
    9MOL   H767 9743   1.807   5.030   1.688  0.9712 -0.9371  0.8178
    9MOL   H768 9744   1.682   4.765   1.595  3.0686 -1.0905  0.3175
    9MOL   H769 9745   1.608   4.860   1.726  0.2267  1.4082 -0.6073
    9MOL   H770 9746   1.872   4.801   1.798  0.4888 -0.5647 -1.5282
    9MOL   H771 9747   1.716   4.764   1.883 -0.2220  2.2253  0.3279
    9MOL   H772 9748   1.928   4.586   1.914 -0.8621 -2.3502  0.7858
    9MOL   H773 9749   1.997   4.415   1.711 -0.6616 -3.2264 -0.6794
    9MOL   H774 9750   1.848   4.341   1.749  0.6514 -1.0751  0.2514
    9MOL   H775 9751   2.056   4.378   1.967  0.0219  1.2653 -0.8953
    9MOL   H776 9752   2.036   4.230   1.872  0.7670  0.9670  0.2564
    9MOL   H777 9753   1.786   4.244   1.952  0.8807 -0.8644 -0.1289
    9MOL   H778 9754   1.824   4.374   2.049 -2.7185 -1.3791 -0.8469
    9MOL   H779 9755   1.943   4.089   2.073  2.7291 -0.7290  1.4427
    9MOL   H780 9756   2.004   4.223   2.165 -0.2919 -1.0831 -1.0722
    9MOL   H781 9757   1.789   4.259   2.268  0.6618 -0.2398  1.7035
    9MOL   H782 9758   1.851   4.097   2.300 -0.8640  0.9956  2.2261
    9MOL   H783 9759   1.626   4.157   2.094  1.3863  2.4522  0.1643
    9MOL   H784 9760   1.681   4.000   2.161 -0.5827 -0.3415  0.3777
    9MOL   H785 9761   1.589   4.030   2.358 -1.0484 -0.2900 -0.1358
    9MOL   C786 9762   1.475   4.190   2.312  0.5732 -0.3913 -0.2336
    9MOL   O787 9763   1.445   4.279   2.231 -0.3100  0.2083  0.4454
    9MOL   C788 9764   1.397   4.173   2.437 -0.3610  0.7505  0.0758
    9MOL   C789 9765   1.238   4.187   2.422  0.5974  0.8928  0.0726
    9MOL   C790 9766   1.175   4.055   2.366 -0.0834 -0.0240  0.0195
    9MOL   C791 9767   1.172   3.938   2.467 -0.3736 -0.5916 -0.2741
    9MOL   C792 9768   1.073   3.836   2.413  0.1575 -0.4843 -0.4924
    9MOL   C793 9769   1.048   3.722   2.509 -0.7237 -0.3528  0.4018
    9MOL   C794 9770   0.926   3.635   2.463 -1.0029 -0.2405  0.1781
    9MOL   C795 9771   0.874   3.540   2.564  0.2022 -0.4220  0.1622
    9MOL   C796 9772   0.960   3.413   2.581 -0.0113 -0.2693 -0.2520
    9MOL   C797 9773   0.883   3.306   2.661  0.0848 -0.0991 -0.7905
    9MOL   C798 9774   0.979   3.207   2.723  0.6835  0.0925  0.0651
    9MOL   O799 9775   0.974   3.191   2.841  0.5086  0.3346  0.5751
    9MOL   N800 9776   1.064   3.131   2.643  0.3898 -0.1301  0.2278
    9MOL   C801 9777   1.168   3.028   2.680  0.6045  0.2668 -0.1842
    9MOL   C802 9778   1.098   2.900   2.725  0.2555  0.4486  0.0893
    9MOL   C803 9779   1.033   2.824   2.616  1.1087 -0.3548  0.2172
    9MOL   C804 9780   0.951   2.703   2.669  0.2265  0.7095 -0.3194
    9MOL   C805 9781   0.888   2.632   2.548  0.5920 -0.6009  0.2052
    9MOL   C806 9782   0.792   2.515   2.584 -0.1125 -0.2810 -0.3834
    9MOL   N807 9783   0.682   2.570   2.664  0.4289 -0.3385 -0.2196
    9MOL   H808 9784   1.443   4.246   2.504 -0.7173  1.7174 -0.7255
    9MOL   H809 9785   1.425   4.072   2.467 -3.9660 -0.7533 -1.3688
    9MOL   H810 9786   1.201   4.195   2.524 -2.0278 -0.6374 -0.7180
    9MOL   H811 9787   1.213   4.284   2.380  0.1192  1.3456  1.3860
    9MOL   H812 9788   1.224   4.023   2.274 -0.5978 -0.0680 -0.2426
    9MOL   H813 9789   1.078   4.085   2.326  1.5628  3.3591 -1.6282
    9MOL   H814 9790   1.267   3.904   2.508 -0.6771 -0.3459  0.6494
    9MOL   H815 9791   1.136   3.984   2.559  0.7489 -2.1693  0.9947
    9MOL   H816 9792   0.976   3.874   2.380  1.3844  2.3884 -0.8984
    9MOL   H817 9793   1.118   3.805   2.318  2.4677 -0.7781  0.6713
    9MOL   H818 9794   1.131   3.655   2.534 -1.9695 -1.9838  0.1892
    9MOL   H819 9795   1.022   3.770   2.603 -2.3460 -0.3772 -0.0225
    9MOL   H820 9796   0.853   3.710   2.434 -0.0893  0.0639 -1.4000
    9MOL   H821 9797   0.943   3.578   2.371  1.8427  0.4370  0.2240
    9MOL   H822 9798   0.866   3.603   2.652 -1.2449 -0.7663  0.2791
    9MOL   H823 9799   0.777   3.504   2.530  0.1041 -2.0463  2.0802
    9MOL   H824 9800   1.044   3.459   2.633  0.7778  0.0318 -1.7857
    9MOL   H825 9801   1.000   3.358   2.496 -0.2969 -0.1440 -0.4672
    9MOL   H826 9802   0.827   3.352   2.742  0.4611  2.6043 -2.0170
    9MOL   H827 9803   0.811   3.250   2.602 -0.1942  0.3439 -0.8676
    9MOL   H828 9804   1.053   3.147   2.544 -2.1773 -2.5560  0.0746
    9MOL   H829 9805   1.234   3.057   2.762  1.1837 -2.3124  0.3126
    9MOL   H830 9806   1.227   3.009   2.591  2.4587 -0.6495  1.2112
    9MOL   H831 9807   1.023   2.911   2.803 -3.4317 -1.3503 -3.0132
    9MOL   H832 9808   1.176   2.842   2.775 -0.1002 -0.0043  0.1222
    9MOL   H833 9809   0.958   2.884   2.566  0.4090 -1.3993 -0.0039
    9MOL   H834 9810   1.105   2.803   2.537  0.8689 -3.4318  0.7294
    9MOL   H835 9811   0.875   2.741   2.736 -0.4101 -0.8154 -0.1622
    9MOL   H836 9812   1.009   2.622   2.715 -1.5711  0.3916  1.4489
    9MOL   H837 9813   0.970   2.583   2.496 -0.3398  0.1797 -2.0641
    9MOL   H838 9814   0.855   2.705   2.474 -0.0241 -0.5310  0.5420
    9MOL   H839 9815   0.842   2.445   2.652 -1.1186 -0.9637 -0.3488
    9MOL   H840 9816   0.757   2.465   2.495  0.1552 -2.1817  0.5579
    9MOL   H841 9817   0.668   2.552   2.762 -0.2229 -0.7629 -0.3860
    9MOL   C842 9818   0.562   2.610   2.611 -0.2264  0.9671 -0.2290
    9MOL   O843 9819   0.546   2.611   2.490  0.5904 -0.2901  0.2677
    9MOL   C844 9820   0.449   2.640   2.709 -1.2677 -0.5409  0.8629
    9MOL   C845 9821   0.450   2.793   2.729  0.6262 -0.2469 -0.0198
    9MOL   C846 9822   0.335   2.828   2.822 -0.3350 -0.2819  0.5379
    9MOL   C847 9823   0.317   2.980   2.837 -0.2665 -0.3219 -0.0176
    9MOL   C848 9824   0.193   3.040   2.772 -0.4313  0.1281 -0.0852
    9MOL   C849 9825   0.184   3.038   2.617 -0.0109  0.4784 -0.1458
    9MOL   C850 9826   0.048   3.090   2.564 -0.3988 -1.1321 -0.2431
    9MOL   C851 9827   0.011   3.026   2.429 -0.5949  0.4629 -0.1951
    9MOL   C852 9828   7.567   3.075   2.361 -0.2030  1.0145 -1.3477
    9MOL   C853 9829   7.562   3.053   2.208  0.0711  0.3418  0.3150
    9MOL   C854 9830   7.650   3.162   2.132  0.0676 -0.1710 -0.0352
    9MOL   O855 9831   7.643   3.279   2.167 -0.1489 -0.2203 -0.1348
    9MOL   N856 9832   0.031   3.115   2.025 -0.3334  0.1224  0.4149
    9MOL   C857 9833   0.121   3.184   1.931  0.0799 -0.0759 -0.0380
    9MOL   C858 9834   0.246   3.097   1.915  0.1884 -0.1160 -0.1098
    9MOL   C859 9835   0.363   3.151   1.825  0.7390 -0.4889  0.6518
    9MOL   C860 9836   0.498   3.077   1.834  0.2416 -0.0895 -0.5962
    9MOL   C861 9837   0.559   3.047   1.968  0.5549  0.6628 -0.0232
    9MOL   C862 9838   0.695   2.985   1.961  0.4452 -0.0566  0.3899
    9MOL   N863 9839   0.708   2.842   1.931  0.6526  0.3614  0.3866
    9MOL   H864 9840   0.455   2.588   2.804  1.1156 -1.0388  0.4658
    9MOL   H865 9841   0.360   2.604   2.657 -0.8290  1.2289 -1.2138
    9MOL   H866 9842   0.438   2.846   2.635 -0.0168  1.3832  0.9690
    9MOL   H867 9843   0.546   2.835   2.759  1.8203 -3.2279  0.4992
    9MOL   H868 9844   0.243   2.795   2.774  0.5553 -2.5789  0.3414
    9MOL   H869 9845   0.336   2.785   2.922 -0.9632  2.6339  1.8489
    9MOL   H870 9846   0.410   3.031   2.813  0.9304 -1.8241  1.3292
    9MOL   H871 9847   0.308   2.991   2.945  0.8436 -0.7568  0.1270
    9MOL   H872 9848   0.113   2.972   2.802 -0.5002  0.2667  0.0410
    9MOL   H873 9849   0.170   3.136   2.818  1.6277  0.6285 -0.0548
    9MOL   H874 9850   0.268   3.096   2.579 -0.6160  0.4325 -1.6195
    9MOL   H875 9851   0.183   2.932   2.591  0.2061  0.4875 -0.1894
    9MOL   H876 9852   7.660   3.070   2.636  0.7183  1.2550  1.7132
    9MOL   H877 9853   0.048   3.198   2.568 -0.3153 -1.0495 -2.0953
    9MOL   H878 9854   7.690   2.919   2.444 -1.8090  0.4477 -1.2702
    9MOL   H879 9855   0.088   3.033   2.352 -1.0721  1.0547 -0.6214
    9MOL   H880 9856   7.546   3.176   2.395  1.4230  1.0811 -0.4656
    9MOL   H881 9857   7.488   3.009   2.395  0.4024  1.4020  0.8624
    9MOL   H882 9858   7.603   2.953   2.195  0.0691  0.2597  0.9307
    9MOL   H883 9859   7.459   3.054   2.172  0.7502 -0.2566 -1.7451
    9MOL   H884 9860   0.023   3.015   2.009  2.3157  0.0450 -0.6189
    9MOL   H885 9861   0.143   3.284   1.969 -2.3661  0.0209  1.2135
    9MOL   H886 9862   0.080   3.190   1.830 -0.3705 -1.1860  0.0713
    9MOL   H887 9863   0.221   2.994   1.888 -0.0596 -0.0919  0.0279
    9MOL   H888 9864   0.295   3.088   2.012  0.1619  1.0404  0.0126
    9MOL   H889 9865   0.378   3.252   1.865 -0.7176  0.1786 -0.4587
    9MOL   H890 9866   0.333   3.157   1.721 -0.0462 -0.8353  0.8596
    9MOL   H891 9867   0.568   3.130   1.770  1.9471 -0.8357  0.6295
    9MOL   H892 9868   0.479   2.987   1.776 -1.7887  0.6309 -1.0990
    9MOL   H893 9869   0.578   3.146   2.011  0.3814  1.0030 -0.7152
    9MOL   H894 9870   0.490   2.996   2.035  0.6730  0.1648 -0.2779
    9MOL   H895 9871   0.752   3.036   1.883  0.7916  1.1819  1.4273
    9MOL   H896 9872   0.753   3.013   2.050  0.1294 -0.0487  0.5931
    9MOL   H897 9873   0.726   2.808   1.838 -1.0161  0.1387  0.1413
    9MOL   C898 9874   0.712   2.751   2.032  0.2377 -0.2441 -0.1753
    9MOL   O899 9875   0.687   2.774   2.148  0.3879  0.3352  0.4731
    9MOL   C900 9876   0.731   2.603   1.995  0.1356 -1.2769  0.7536
    9MOL   C901 9877   0.832   2.524   2.070  0.7912 -0.3190 -0.4303
    9MOL   C902 9878   0.975   2.567   2.059 -0.2978  0.1768 -0.4966
    9MOL   C903 9879   1.077   2.485   2.142 -1.0764  0.3540  0.7720
    9MOL   C904 9880   1.057   2.332   2.109 -0.0459  0.1766 -0.7870
    9MOL   C905 9881   1.173   2.241   2.161  0.0605  0.4422  0.2275
    9MOL   C906 9882   1.167   2.094   2.116 -0.0406  0.6310 -0.1913
    9MOL   C907 9883   1.290   2.012   2.174 -0.3286  0.5451  0.1239
    9MOL   C908 9884   1.270   1.854   2.159  0.1205  0.3515  0.1588
    9MOL   C909 9885   1.374   1.761   2.233 -0.3480  0.7844  0.6384
    9MOL   C910 9886   1.341   1.609   2.195  0.0293 -0.1438 -0.7027
    9MOL   O911 9887   1.240   1.554   2.238  0.1532 -0.3974 -0.1035
    9MOL   N912 9888   1.427   1.558   2.106 -0.3765  0.4625  0.0895
    9MOL   C913 9889   1.411   1.427   2.057 -0.4727  0.7825 -0.0583
    9MOL   C914 9890   1.548   1.394   2.001  0.3370  0.1610 -0.7677
    9MOL   C915 9891   1.593   1.474   1.881 -0.2689  0.0957  0.7988
    9MOL   C916 9892   1.746   1.463   1.862 -0.0615 -0.5097  0.5868
    9MOL   C917 9893   1.829   1.530   1.978 -0.1651 -0.7001  0.1411
    9MOL   C918 9894   1.791   1.674   2.008  0.2563 -0.0428 -0.9354
    9MOL   N919 9895   1.900   1.746   2.070 -0.3717  0.4789  0.1348
    9MOL   H920 9896   0.633   2.556   2.005 -0.5682  0.1112  0.4941
    9MOL   H921 9897   0.766   2.605   1.891  1.2713  0.0090  1.1360
    9MOL   H922 9898   0.823   2.426   2.024  1.5407  0.2957 -1.9117
    9MOL   H923 9899   0.805   2.509   2.175  1.3568 -0.2308 -0.2673
    9MOL   H924 9900   0.986   2.671   2.091 -1.0835 -0.2799  1.2890
    9MOL   H925 9901   1.002   2.566   1.953 -0.4023  1.4248 -0.5389
    9MOL   H926 9902   1.179   2.523   2.131 -1.0562  0.5156  1.5385
    9MOL   H927 9903   1.067   2.518   2.245  2.3358  0.8753  1.0239
    9MOL   H928 9904   1.048   2.315   2.002  1.4168 -0.5460 -0.8094
    9MOL   H929 9905   0.964   2.301   2.156  1.4253 -0.0395  2.1287
    9MOL   H930 9906   1.264   2.284   2.119 -0.4178  0.2961 -1.0015
    9MOL   H931 9907   1.191   2.254   2.267  0.3591 -1.9811  0.4972
    9MOL   H932 9908   1.151   2.071   2.011 -0.9334  1.0223 -0.1514
    9MOL   H933 9909   1.082   2.042   2.161 -0.3726  0.7483 -0.6877
    9MOL   H934 9910   1.299   2.039   2.279  0.3353  1.7182 -0.2247
    9MOL   H935 9911   1.380   2.054   2.127  0.3155  0.1341  0.9716
    9MOL   H936 9912   1.176   1.823   2.204 -1.0705  0.1511 -2.4201
    9MOL   H937 9913   1.265   1.832   2.052 -3.8186 -0.5985  0.4723
    9MOL   H938 9914   1.466   1.804   2.192 -1.3830  1.2402 -1.2762
    9MOL   H939 9915   1.372   1.767   2.342 -2.3847 -0.5775  0.6904
    9MOL   H940 9916   1.489   1.621   2.058 -1.2772  1.7526  0.5919
    9MOL   H941 9917   1.345   1.431   1.971 -0.9070 -2.4703  0.0540
    9MOL   H942 9918   1.375   1.362   2.136  0.4701  0.3427  0.0247
    9MOL   H943 9919   1.613   1.402   2.087  0.6362  1.8719 -1.1405
    9MOL   H944 9920   1.547   1.288   1.974  1.6042 -0.3388  1.1084
    9MOL   H945 9921   1.546   1.449   1.785 -0.7326  0.4252  0.9407
    9MOL   H946 9922   1.588   1.582   1.882  0.5055  0.2473 -2.7260
    9MOL   H947 9923   1.774   1.503   1.765 -1.7800  0.9488  0.6470
    9MOL   H948 9924   1.771   1.357   1.863 -0.1504 -0.5583 -1.5382
    9MOL   H949 9925   1.832   1.475   2.072  0.4733 -1.6254 -0.4160
    9MOL   H950 9926   1.932   1.523   1.943  0.1541 -0.0297  0.9335
    9MOL   H951 9927   1.700   1.679   2.067  1.2239 -0.0349  0.5914
    9MOL   H952 9928   1.781   1.741   1.922  2.3188  0.9863 -0.4074
    9MOL   H953 9929   1.992   1.704   2.066 -0.1614  1.0619 -1.4959
    9MOL   C954 9930   1.886   1.855   2.150  0.6694  0.1793 -0.0441
    9MOL   O955 9931   1.786   1.915   2.184 -0.2044  0.4706  0.3239
    9MOL   C956 9932   2.026   1.902   2.205  0.8605  0.1007  0.7842
    9MOL   C957 9933   2.017   2.058   2.232 -0.5446  0.1617 -0.5002
    9MOL   C958 9934   2.160   2.115   2.253  0.4000 -0.5453  0.0770
    9MOL   C959 9935   2.159   2.261   2.278  0.0903 -0.4176  0.7491
    9MOL   C960 9936   2.308   2.309   2.265  0.1964 -0.2779 -0.0405
    9MOL   C961 9937   2.322   2.465   2.284  0.6428  0.1875 -0.3585
    9MOL   C962 9938   2.465   2.508   2.297 -0.7130  0.3173  0.2334
    9MOL   C963 9939   2.520   2.482   2.438  0.9764 -0.0977  0.5647
    9MOL   C964 9940   2.666   2.535   2.446  0.3074  0.6168  0.1414
    9MOL   C965 9941   2.721   2.529   2.593  0.0232 -0.4805  0.0396
    9MOL   C966 9942   2.870   2.537   2.598  0.6488 -0.1004  0.0263
    9MOL   O967 9943   2.944   2.506   2.501 -0.0130  0.2077 -0.1570
    9MOL   N968 9944   2.911   2.583   2.714 -0.2377 -0.0575  0.0587
    9MOL   C969 9945   3.048   2.595   2.752 -0.7030 -0.7877 -0.0780
    9MOL   C970 9946   3.087   2.518   2.888 -1.2943 -0.2287 -0.1052
    9MOL   C971 9947   3.236   2.513   2.928  0.0387  0.2108  0.2530
    9MOL   C972 9948   3.309   2.644   2.972 -0.1566 -0.1607  0.5411
    9MOL   C973 9949   3.255   2.723   3.084 -1.2029 -0.3670 -0.3340
    9MOL   C974 9950   3.309   2.861   3.085  0.2291 -0.0360 -0.9666
    9MOL   N975 9951   3.289   2.919   3.219  0.4004  0.1895 -0.4547
    9MOL   H976 9952   2.053   1.842   2.292 -0.6575 -0.6545  0.7493
    9MOL   H977 9953   2.111   1.881   2.140 -0.7725  0.5872 -1.5882
    9MOL   H978 9954   1.954   2.087   2.316  0.2636 -0.4024  0.3122
    9MOL   H979 9955   1.969   2.099   2.143 -0.4639  0.1671 -0.5413
    9MOL   H980 9956   2.218   2.063   2.329  1.3760 -1.0876 -1.0303
    9MOL   H981 9957   2.217   2.097   2.162  0.9628 -3.1119  0.8968
    9MOL   H982 9958   2.105   2.317   2.202  0.8308  0.3772  0.7894
    9MOL   H983 9959   2.126   2.285   2.379  3.1720 -1.2386  2.0251
    9MOL   H984 9960   2.373   2.254   2.333  1.5682 -2.2151 -2.8455
    9MOL   H985 9961   2.347   2.279   2.168  1.8325 -0.4188  0.6433
    9MOL   H986 9962   2.273   2.525   2.208 -1.6519  2.1540  2.5669
    9MOL   H987 9963   2.273   2.483   2.380  0.6670 -3.8274  0.5051
    9MOL   H988 9964   2.531   2.444   2.239  0.0809  2.0302 -0.7955
    9MOL   H989 9965   2.489   2.612   2.277  0.9581  0.3105  1.9948
    9MOL   H990 9966   2.450   2.524   2.510 -0.4330 -1.1357 -0.1667
    9MOL   H991 9967   2.513   2.376   2.460 -1.0402 -0.2774 -0.8644
    9MOL   H992 9968   2.673   2.635   2.403 -0.5198  1.1574  1.2557
    9MOL   H993 9969   2.725   2.466   2.385  1.8963  0.9940  1.2185
    9MOL   H994 9970   2.683   2.614   2.651  1.4518 -0.3836  0.8651
    9MOL   H995 9971   2.702   2.432   2.640 -0.2457 -2.2121 -3.5034
    9MOL   H996 9972   2.839   2.622   2.774 -0.1096  3.1624 -1.8121
    9MOL   H997 9973   3.058   2.703   2.763 -0.2783 -0.6775 -1.5265
    9MOL   H998 9974   3.121   2.560   2.679 -0.3877 -0.9343  0.3036
    9MOL   H999 9975   3.056   2.415   2.868  2.4486 -0.9891 -2.6383
    9MOL     H1 9976   3.032   2.547   2.977 -0.6143  2.1994 -0.4426
    9MOL     H2 9977   3.293   2.464   2.849  1.2214  0.7505  0.7637
    9MOL     H3 9978   3.241   2.446   3.014  0.0206  0.3824  0.3863
    9MOL     H4 9979   3.413   2.616   2.986  0.0644  0.7556  0.7237
    9MOL     H5 9980   3.301   2.719   2.894  0.7846  0.1106  0.7015
    9MOL     H6 9981   3.265   2.675   3.182  1.5705  0.1267 -0.3358
    9MOL     H7 9982   3.151   2.745   3.059 -1.2030 -1.3192 -1.2019
    9MOL     H8 9983   3.415   2.853   3.060  0.0478 -0.6725 -1.5509
    9MOL     H9 9984   3.262   2.926   3.011 -1.3309  1.9161  1.6665
    9MOL    H10 9985   3.280   2.860   3.300  1.3404 -0.5256 -0.8579
    9MOL    C11 9986   3.310   3.045   3.244  0.1167 -0.8921 -0.4855
    9MOL    O12 9987   3.330   3.131   3.154 -0.2796 -0.5628  0.0735
    9MOL    C13 9988   3.307   3.081   3.390  0.3768  0.8844  0.2913
    9MOL    C14 9989   3.425   3.167   3.432 -0.0718 -0.2080  0.6405
    9MOL    C15 9990   3.407   3.213   3.577  0.1984  0.3159  0.1335
    9MOL    C16 9991   3.456   3.102   3.675 -0.7296  0.5069 -0.1950
    9MOL    C17 9992   3.604   3.063   3.669 -0.6704  0.1096  0.3534
    9MOL    C18 9993   3.705   3.173   3.689  0.3527 -0.3263 -0.0578
    9MOL    C19 9994   3.851   3.132   3.665 -0.4446 -0.4831  0.2559
    9MOL    C20 9995   3.950   3.242   3.704  0.2860  0.2278 -0.7724
    9MOL    C21 9996   4.095   3.188   3.708  0.1676 -0.3113 -0.1217
    9MOL    C22 9997   4.212   3.289   3.725 -0.3243 -0.1927  0.3478
    9MOL    C23 9998   4.225   3.399   3.617  0.3016  0.1756  0.0296
    9MOL    O24 9999   4.211   3.388   3.494 -0.1500  0.0217  0.2578
    9MOL    N2510000   4.250   3.520   3.668 -0.0983  0.2020  0.0058
    9MOL    C2610001   4.242   3.646   3.597  0.2868 -0.0137 -0.3011
    9MOL    C2710002   4.249   3.757   3.697  0.5332 -0.2747  0.2838
    9MOL    C2810003   4.110   3.787   3.756  0.4922 -0.4317  0.5585
    9MOL    C2910004   4.125   3.880   3.875 -0.0646  0.1875  0.6067
    9MOL    C3010005   3.991   3.911   3.943  0.0263 -0.2109  0.8180
    9MOL    C3110006   3.997   3.923   4.097 -0.2456 -0.0999  0.6741
    9MOL    N3210007   3.864   3.943   4.148 -0.1793  0.2296  0.9960
    9MOL    H3310008   3.303   2.997   3.459  2.1223  3.7499  4.0773
    9MOL    H3410009   3.217   3.142   3.396  0.2095  0.8578 -1.6637
    9MOL    H3510010   3.442   3.258   3.374 -0.6952 -0.3451  0.2378
    9MOL    H3610011   3.523   3.121   3.423  0.3602  0.3783  2.1698
    9MOL    H3710012   3.305   3.248   3.588  0.4487  1.2395 -0.4413
    9MOL    H3810013   3.465   3.305   3.582 -0.9547  0.9055  3.4698
    9MOL    H3910014   3.428   3.143   3.772 -0.9493  0.0135 -0.0498
    9MOL    H4010015   3.399   3.010   3.668 -0.2833  0.1214  1.0362
    9MOL    H4110016   3.624   3.000   3.756  1.8319  0.8360  0.3316
    9MOL    H4210017   3.624   2.998   3.584 -3.7923 -2.3442  1.3939
    9MOL    H4310018   3.682   3.254   3.621 -1.0504  0.7527  1.6439
    9MOL    H4410019   3.694   3.211   3.791 -0.4405 -0.8432  0.0517
    9MOL    H4510020   3.872   3.047   3.730  1.6096 -0.4454 -0.3124
    9MOL    H4610021   3.852   3.103   3.560 -2.5699 -1.0984  0.3808
    9MOL    H4710022   3.942   3.334   3.646 -0.3633  1.5631  1.3755
    9MOL    H4810023   3.921   3.278   3.802 -0.3640  0.8819 -1.2045
    9MOL    H4910024   4.107   3.117   3.625 -2.3925  0.1336 -0.9435
    9MOL    H5010025   4.108   3.119   3.791  0.6837 -0.3528 -0.2349
    9MOL    H5110026   4.219   3.337   3.823 -0.9572 -2.0926  1.3474
    9MOL    H5210027   4.300   3.226   3.721 -0.1548 -0.1721  2.8105
    9MOL    H5310028   4.252   3.534   3.769 -0.3685 -0.1815  0.0666
    9MOL    H5410029   4.153   3.661   3.535 -0.1456 -1.3589 -0.0260
    9MOL    H5510030   4.329   3.647   3.531  0.0404 -1.4286 -0.6557
    9MOL    H5610031   4.295   3.847   3.656  1.4030 -0.3743  1.0162
    9MOL    H5710032   4.321   3.735   3.776  2.4626  0.0435 -1.3269
    9MOL    H5810033   4.062   3.692   3.778 -1.6752  0.4933 -0.0093
    9MOL    H5910034   4.040   3.834   3.687  1.1629 -0.2043  0.0191
    9MOL    H6010035   4.176   3.968   3.836  1.5321 -1.1988 -0.5083
    9MOL    H6110036   4.200   3.846   3.947 -1.0107 -4.8065 -0.5733
    9MOL    H6210037   3.926   3.824   3.930  0.5385 -0.4997  0.1669
    9MOL    H6310038   3.941   3.999   3.902  2.1032  0.4712 -0.3164
    9MOL    H6410039   4.061   3.999   4.142  1.2874  0.8741 -2.9246
    9MOL    H6510040   4.030   3.827   4.138  1.9091  0.6712  0.7887
    9MOL    H6610041   3.837   4.038   4.169 -1.1925  0.1380  0.0962
    9MOL    C6710042   3.761   3.858   4.160  0.4785 -0.0367 -0.0892
    9MOL    O6810043   3.772   3.734   4.138 -0.1957  0.8662  0.0783
    9MOL    C6910044   3.620   3.915   4.207 -0.7796 -0.2845  0.2520
    9MOL    C7010045   3.536   3.931   4.085  0.1918  0.6481  0.0074
    9MOL    C7110046   3.567   4.057   4.004  0.1092  0.0265  0.3103
    9MOL    C7210047   3.471   4.063   3.881  0.0489 -0.6421  0.0538
    9MOL    C7310048   3.502   4.188   3.803 -0.4733  0.7257  0.0790
    9MOL    C7410049   3.418   4.192   3.671 -0.4489  0.3277 -0.9675
    9MOL    C7510050   3.435   4.321   3.591  0.5927 -0.0239 -0.3577
    9MOL    C7610051   3.330   4.343   3.482 -0.0048  0.3784  0.5433
    9MOL    C7710052   3.340   4.246   3.371  0.5990  0.5453  0.1192
    9MOL    C7810053   3.267   4.112   3.370 -0.4445 -0.3006 -0.2753
    9MOL    C7910054   3.309   4.020   3.257 -0.0038 -0.5389 -0.3873
    9MOL    O8010055   3.348   4.074   3.156  0.1063  0.3036  0.6067
    9MOL    N8110056   3.300   3.889   3.275  0.0159  0.3625  0.2321
    9MOL    C8210057   3.363   3.793   3.182 -0.0050  0.3296  0.6635
    9MOL    C8310058   3.480   3.723   3.249  0.6025  0.1728  0.4104
    9MOL    C8410059   3.517   3.589   3.173  0.3361 -1.1558  0.2285
    9MOL    C8510060   3.609   3.495   3.254 -0.8400 -0.1538  0.6365
    9MOL    C8610061   3.744   3.555   3.285  0.1965  0.3368  0.2111
    9MOL    C8710062   3.816   3.468   3.384 -0.1030 -0.6484 -0.6146
    9MOL    N8810063   3.941   3.541   3.399  0.0695  0.0148 -0.3464
    9MOL    H8910064   3.635   4.012   4.254  0.8824 -0.7529  0.7526
    9MOL    H9010065   3.563   3.843   4.266 -0.2236 -1.8889 -1.1102
    9MOL    H9110066   3.520   3.840   4.028  0.4219  0.8810 -0.4250
    9MOL    H9210067   3.431   3.947   4.112  0.4840  0.6009  1.2114
    9MOL    H9310068   3.567   4.158   4.046 -0.6177 -0.5586  1.7518
    9MOL    H9410069   3.663   4.052   3.952  0.2730 -0.9337  0.7024
    9MOL    H9510070   3.482   3.968   3.828 -1.0873 -0.3830 -0.6606
    9MOL    H9610071   3.369   4.072   3.919 -0.3929 -0.8834 -1.0474
    9MOL    H9710072   3.474   4.274   3.865 -2.5403  0.5299 -0.5544
    9MOL    H9810073   3.608   4.191   3.776 -0.4573 -0.1188  0.0582
    9MOL    H9910074   3.434   4.102   3.612  3.3515 -0.3395  0.9532
    9MOL   H10010075   3.315   4.179   3.704  0.2153 -0.6069  0.8139
    9MOL   H10110076   3.533   4.330   3.546  0.9651  3.3881  1.0382
    9MOL   H10210077   3.422   4.401   3.663  0.1403 -1.4840  1.2239
    9MOL   H10310078   3.228   4.329   3.520 -0.0889  1.7872  0.8734
    9MOL   H10410079   3.330   4.447   3.447  1.4716  0.3263  0.3597
    9MOL   H10510080   3.443   4.236   3.336  0.1153  1.2359 -1.5563
    9MOL   H10610081   3.316   4.304   3.282  2.6990 -2.3815 -2.4847
    9MOL   H10710082   3.276   4.046   3.456  0.5878  0.1377 -0.0402
    9MOL   H10810083   3.159   4.130   3.370 -0.2872  0.6917 -1.2604
    9MOL   H10910084   3.263   3.852   3.361  2.3006 -0.2967  0.9745
    9MOL   H11010085   3.391   3.843   3.089 -0.0526  0.1020  0.5264
    9MOL   H11110086   3.292   3.716   3.151 -0.8951  1.0881  0.8037
    9MOL   H11210087   3.464   3.709   3.356  1.3220 -1.4217  0.3071
    9MOL   H11310088   3.569   3.786   3.249  1.2723 -0.7680  0.1428
    9MOL   H11410089   3.569   3.616   3.081 -1.1963  0.3105 -0.2303
    9MOL   H11510090   3.419   3.546   3.151 -1.1249  1.9917  0.3093
    9MOL   H11610091   3.561   3.460   3.345 -0.7087 -0.5482  0.5537
    9MOL   H11710092   3.623   3.407   3.192  0.9344  0.4541  0.1331
    9MOL   H11810093   3.801   3.577   3.195  0.9058  1.0183  0.8203
    9MOL   H11910094   3.735   3.654   3.329 -0.5026 -0.8481  2.8119
    9MOL   H12010095   3.765   3.462   3.480 -1.4901  1.4419 -1.1801
    9MOL   H12110096   3.826   3.368   3.339 -0.0729 -1.1806  0.5657
    9MOL   H12210097   3.985   3.560   3.310  0.7007 -0.9860 -0.2575
    9MOL   H12310098   4.013   3.486   3.445 -0.5941  0.3721  1.1400
   10MOL     C110099   3.034   5.414   6.764 -0.1214  0.2564  0.2402
   10MOL     O210100   2.938   5.424   6.842 -0.1324  0.0977 -0.0935
   10MOL     C310101   3.150   5.508   6.768 -0.1741 -0.0144  0.6809
   10MOL     C410102   3.123   5.647   6.820 -0.6701 -0.8097  0.2095
   10MOL     C510103   3.131   5.669   6.976  0.2959  0.8407 -0.4924
   10MOL     C610104   3.086   5.807   7.030  0.1301 -0.0628 -0.2440
   10MOL     C710105   3.135   5.819   7.178 -0.0153 -0.2516 -0.0161
   10MOL     C810106   3.134   5.965   7.236  0.6172  0.6061  0.2091
   10MOL     C910107   3.125   5.972   7.388  0.4012 -0.8412 -0.2631
   10MOL    C1010108   3.262   5.939   7.455  0.9681  0.1095  0.2986
   10MOL    C1110109   3.366   6.047   7.446  0.5651  0.3507 -0.3666
   10MOL    C1210110   3.479   6.012   7.547 -0.9840 -0.7009  0.1253
   10MOL    C1310111   3.587   6.129   7.540  0.0369  0.1364  1.0147
   10MOL    O1410112   3.552   6.243   7.563 -0.0550 -0.3202 -0.2100
   10MOL    N1510113   3.710   6.099   7.499 -0.1790 -0.2466 -0.3013
   10MOL    C1610114   3.818   6.203   7.486 -0.8144 -0.0734 -0.3141
   10MOL    C1710115   3.923   6.173   7.595 -0.7218  0.7951  0.2161
   10MOL    C1810116   4.035   6.280   7.596  0.0423 -0.1600 -0.6049
   10MOL    C1910117   3.991   6.428   7.637 -0.8800 -0.1778  0.1900
   10MOL    C2010118   3.999   6.459   0.101 -0.4356 -0.2982 -0.5515
   10MOL    C2110119   3.963   6.603   0.143  0.0508  0.3208  0.0522
   10MOL    N2210120   3.998   6.644   0.276  0.1505 -0.1032 -0.4890
   10MOL    H2310121   3.177   5.534   6.666 -0.9376  2.2345  1.0265
   10MOL    H2410122   3.234   5.465   6.823  0.8439  0.2802 -0.6195
   10MOL    H2510123   3.027   5.681   6.781 -0.3842  1.7030  1.5836
   10MOL    H2610124   3.206   5.708   6.784  0.2635 -0.8700  2.1809
   10MOL    H2710125   3.230   5.641   7.013 -0.0425 -0.2727 -0.3997
   10MOL    H2810126   3.058   5.598   7.015  1.5764 -0.9052 -1.1840
   10MOL    H2910127   3.108   5.884   6.956 -0.5048 -0.3112 -0.6956
   10MOL    H3010128   2.977   5.808   7.037  0.0436  0.0648 -1.5297
   10MOL    H3110129   3.237   5.783   7.189  0.7389  2.0480  0.8048
   10MOL    H3210130   3.070   5.757   7.240  1.1780 -2.1904 -0.6871
   10MOL    H3310131   3.230   6.011   7.213  0.9981 -0.2602  0.0355
   10MOL    H3410132   3.062   6.022   7.178  1.7391 -1.4944 -3.3578
   10MOL    H3510133   3.083   6.068   7.420  2.2946 -1.0767  3.2398
   10MOL    H3610134   3.044   5.906   7.420 -0.5740  0.2514 -0.4566
   10MOL    H3710135   3.251   5.915   7.561 -0.2685  1.3823  0.4643
   10MOL    H3810136   3.301   5.846   7.414  1.0909  0.0047  0.6551
   10MOL    H3910137   3.336   6.150   7.464  1.0975  0.7656 -1.8120
   10MOL    H4010138   3.415   6.041   7.349  1.7915 -1.6600  0.3442
   10MOL    H4110139   3.441   5.995   7.648 -0.5372  0.5260  0.5069
   10MOL    H4210140   3.522   5.916   7.521 -0.5510 -0.0530 -1.6170
   10MOL    H4310141   3.718   6.002   7.472  1.4390 -0.7873  2.0336
   10MOL    H4410142   3.780   6.304   7.506 -1.7945 -0.7715  1.5000
   10MOL    H4510143   3.868   6.196   7.390  2.2891  0.6794  1.2059
   10MOL    H4610144   3.964   6.072   7.586 -0.6866  0.8100  0.2100
   10MOL    H4710145   3.859   6.175   7.683 -0.4875 -3.0790  0.5928
   10MOL    H4810146   4.116   6.243   7.659 -0.4010  0.4470  0.3449
   10MOL    H4910147   4.078   6.279   7.496 -0.2475 -0.4914 -0.7245
   10MOL    H5010148   3.901   6.465   7.589 -0.8418 -1.4208 -0.8586
   10MOL    H5110149   4.074   6.482   7.591  0.3553 -2.6687 -0.5804
   10MOL    H5210150   3.936   6.391   0.159 -0.1656  0.2667  0.4106
   10MOL    H5310151   4.096   6.434   0.143 -0.4281  0.1623 -0.2916
   10MOL    H5410152   4.006   6.670   0.069 -1.8988  0.2535 -1.1727
   10MOL    H5510153   3.855   6.618   0.132 -0.2168 -0.8308  1.0431
   10MOL    H5610154   3.925   6.667   0.342  1.9485  2.1381  0.7825
   10MOL    H5710155   3.046   5.334   6.691  1.7758  2.2786 -1.7686
   10MOL    C5810156   4.120   6.686   0.315 -0.2080 -0.3236 -0.1533
   10MOL    O5910157   4.206   6.700   0.234 -0.0135 -0.3829 -0.1113
   10MOL    C6010158   4.146   6.717   0.462 -0.4714  0.1104 -0.3524
   10MOL    C6110159   4.294   6.720   0.493 -0.5699  0.0425 -0.0755
   10MOL    C6210160   4.322   6.722   0.649  0.3144 -0.0952 -0.0181
   10MOL    C6310161   4.326   6.870   0.697  0.6470 -0.0730 -0.9184
   10MOL    C6410162   4.378   6.862   0.848  0.6374  0.7977  0.2059
   10MOL    C6510163   4.349   6.990   0.928  0.2169  0.1501 -0.6447
   10MOL    C6610164   4.406   7.121   0.876  0.1859 -0.5617  0.2121
   10MOL    C6710165   4.400   7.250   0.961  0.9829  0.4293 -0.3090
   10MOL    C6810166   4.256   7.307   0.980 -0.2014 -0.4496 -0.3436
   10MOL    C6910167   4.223   7.410   0.874  0.9198 -0.5505  0.2226
   10MOL    C7010168   4.104   7.493   0.907  0.1343 -0.3742 -0.4491
   10MOL    O7110169   3.998   7.440   0.934  0.3161 -0.0034 -0.1977
   10MOL    N7210170   4.123   7.626   0.922  0.0520  0.3229  0.3902
   10MOL    C7310171   4.025   0.021   0.997 -0.3113  0.3349 -0.3977
   10MOL    C7410172   4.092   0.153   1.034 -0.1819 -0.3199 -0.4433
   10MOL    C7510173   4.078   0.263   0.924 -0.3466  0.4071  0.8293
   10MOL    C7610174   4.118   0.405   0.973 -0.1676 -0.4375 -0.3490
   10MOL    C7710175   4.061   0.527   0.891 -0.2603 -0.6499  0.0972
   10MOL    C7810176   4.135   0.552   0.762  0.0876  0.6513  0.5452
   10MOL    N7910177   4.101   0.683   0.699  0.1909  0.0001  0.3135
   10MOL    H8010178   4.088   6.658   0.532  1.7811  1.2282  2.5269
   10MOL    H8110179   4.114   6.817   0.489  0.8744  0.6215 -0.6146
   10MOL    H8210180   4.341   6.630   0.453  0.6801 -0.5459  2.5586
   10MOL    H8310181   4.350   6.800   0.445 -0.3719  0.2302  0.4648
   10MOL    H8410182   4.411   6.672   0.689  0.3380 -0.7296 -0.8563
   10MOL    H8510183   4.245   6.664   0.700  1.2670 -1.2151  0.1675
   10MOL    H8610184   4.235   6.929   0.685  1.6722  1.3247 -2.0263
   10MOL    H8710185   4.402   6.919   0.636 -0.9240 -1.0332 -3.7582
   10MOL    H8810186   4.327   6.774   0.887  1.6818 -0.9546 -2.2962
   10MOL    H8910187   4.479   6.822   0.844  1.0489  1.8026  0.4131
   10MOL    H9010188   4.403   6.975   1.021  1.7443 -0.5370 -1.6310
   10MOL    H9110189   4.244   6.998   0.955  0.3025  1.1278 -0.5890
   10MOL    H9210190   4.345   7.146   0.789 -0.6962  1.5922  1.4154
   10MOL    H9310191   4.509   7.105   0.846  0.5497  1.2113  0.4871
   10MOL    H9410192   4.442   7.224   1.059 -2.4669 -0.5016  0.9803
   10MOL    H9510193   4.470   7.319   0.913 -0.3368  0.1425 -2.6884
   10MOL    H9610194   4.235   7.355   1.076  0.4521 -0.3306 -0.2594
   10MOL    H9710195   4.188   7.223   0.988  0.1356 -0.8238 -1.4180
   10MOL    H9810196   4.309   7.476   0.867 -0.0295  0.6839 -0.0456
   10MOL    H9910197   4.219   7.368   0.774 -3.4962 -0.5364  0.2991
   10MOL   H10010198   4.216   7.667   0.926 -0.4635  1.4412  0.9151
   10MOL   H10110199   4.015   7.663   1.094 -2.4120 -1.6865 -1.6075
   10MOL   H10210200   3.931   0.035   0.942  0.8666 -1.5527 -2.9896
   10MOL   H10310201   4.043   0.184   1.126  0.0398 -2.6178  0.4785
   10MOL   H10410202   4.200   0.142   1.047 -0.0789  0.7813 -0.2959
   10MOL   H10510203   3.971   0.274   0.906 -0.2178 -0.3022 -0.4307
   10MOL   H10610204   4.132   0.230   0.835  0.3525 -1.6440  1.9759
   10MOL   H10710205   4.076   0.419   1.073  1.1477  0.7063  0.0509
   10MOL   H10810206   4.225   0.422   0.970 -0.5825  2.1959 -1.8613
   10MOL   H10910207   4.072   0.619   0.948  1.1261  1.0998 -2.8625
   10MOL   H11010208   3.953   0.527   0.875  0.1181 -0.6153 -2.7503
   10MOL   H11110209   4.108   0.467   0.700  1.4804  0.4315  0.2348
   10MOL   H11210210   4.243   0.557   0.768  0.1235 -1.5729  2.8451
   10MOL   H11310211   4.133   0.764   0.750 -1.2367  0.9325 -0.2526
   10MOL   C11410212   4.053   0.699   0.573 -0.0128 -0.2905 -1.1125
   10MOL   O11510213   4.033   0.605   0.494  0.0463  0.2675 -0.1028
   10MOL   C11610214   4.012   0.836   0.533 -0.3272 -0.9696  0.1300
   10MOL   C11710215   3.866   0.848   0.484 -0.9700  0.0138  0.5059
   10MOL   C11810216   3.757   0.832   0.587  0.1521  0.0005  0.0640
   10MOL   C11910217   3.714   0.689   0.636 -0.3740  0.4086 -0.5580
   10MOL   C12010218   3.629   0.610   0.532  0.2114  0.4505  0.3345
   10MOL   C12110219   3.646   0.467   0.559  0.0409  0.7639 -0.6932
   10MOL   C12210220   3.548   0.392   0.455 -0.1507 -0.6838 -0.0722
   10MOL   C12310221   3.537   0.240   0.469  0.1171 -0.4783 -0.4778
   10MOL   C12410222   3.459   0.172   0.357  0.0116  0.6366  0.0993
   10MOL   C12510223   3.440   0.025   0.362  0.2474 -0.2137  0.3792
   10MOL   C12610224   3.567   7.627   0.340 -0.0042  0.8282 -0.6379
   10MOL   O12710225   3.616   7.619   0.231 -0.1515  0.0900  0.4068
   10MOL   N12810226   3.618   7.566   0.451  0.3892  0.1196 -0.1168
   10MOL   C12910227   3.734   7.482   0.429  0.1212 -0.0579  0.1175
   10MOL   C13010228   3.868   7.549   0.452 -0.0878  0.3322 -0.3307
   10MOL   C13110229   3.888   7.629   0.583 -0.5121 -0.0380  0.5985
   10MOL   C13210230   4.014   0.029   0.575  0.1892 -0.0989 -1.2253
   10MOL   C13310231   3.973   0.163   0.518 -0.6451 -0.1577 -0.2557
   10MOL   C13410232   4.084   0.251   0.469 -0.2710  0.0138  0.4440
   10MOL   N13510233   4.019   0.357   0.402 -0.7102 -0.1606  0.5419
   10MOL   H13610234   4.037   0.916   0.602 -1.8121  1.5744 -2.1965
   10MOL   H13710235   4.070   0.863   0.445  1.7333  0.7880  1.9960
   10MOL   H13810236   3.843   0.777   0.405  1.3654 -0.3115  0.0879
   10MOL   H13910237   3.856   0.940   0.426  0.2198 -1.3630 -1.9776
   10MOL   H14010238   3.791   0.881   0.678  1.2091 -1.1376  0.2902
   10MOL   H14110239   3.667   0.890   0.570 -1.2750 -2.2012 -0.0637
   10MOL   H14210240   3.808   0.639   0.661 -1.1327  0.6982  3.1711
   10MOL   H14310241   3.660   0.699   0.730 -0.7056  2.6882 -0.9769
   10MOL   H14410242   3.524   0.638   0.538  0.4813  1.5578  0.0372
   10MOL   H14510243   3.671   0.628   0.433 -0.6732  4.3445  0.5733
   10MOL   H14610244   3.622   0.439   0.662  4.4400  0.8970  0.4863
   10MOL   H14710245   3.747   0.431   0.537 -1.2773 -2.9355 -1.1723
   10MOL   H14810246   3.442   0.415   0.468 -0.0889 -1.4359  1.9656
   10MOL   H14910247   3.574   0.404   0.350 -0.5736  0.4046 -0.0564
   10MOL   H15010248   3.482   0.207   0.558  0.9727 -1.8006 -0.4304
   10MOL   H15110249   3.640   0.206   0.483  0.2782 -0.3203 -1.2717
   10MOL   H15210250   3.518   0.202   0.270  0.7604  1.6959  0.9466
   10MOL   H15310251   3.362   0.222   0.347  0.1481  1.3309  2.0650
   10MOL   H15410252   3.374   0.009   0.276 -0.5136  0.3438  0.8509
   10MOL   H15510253   3.382   7.685   0.450  0.1554  0.3085  0.5074
   10MOL   H15610254   3.577   7.569   0.543 -3.2421 -0.9748 -1.5901
   10MOL   H15710255   3.749   7.433   0.333 -0.6543 -0.6566  0.2961
   10MOL   H15810256   3.722   7.394   0.493 -0.7906 -1.3332 -1.7432
   10MOL   H15910257   3.887   7.613   0.366 -0.1736 -2.3335 -2.4361
   10MOL   H16010258   3.940   7.467   0.451 -0.9440 -0.4379  0.0448
   10MOL   H16110259   3.796   7.683   0.607 -1.2735 -0.9011 -0.3082
   10MOL   H16210260   3.901   7.560   0.667  0.3685 -1.7108 -0.8938
   10MOL   H16310261   4.057   0.034   0.676 -2.1813  0.4569 -0.2030
   10MOL   H16410262   4.082   7.673   0.505 -0.5791 -0.9159 -1.4282
   10MOL   H16510263   3.914   0.206   0.599  0.1580 -0.6437  0.6061
   10MOL   H16610264   3.904   0.133   0.439  0.8795  0.8341 -1.9894
   10MOL   H16710265   4.131   0.289   0.560  0.2055 -1.7366  0.9533
   10MOL   H16810266   4.154   0.204   0.400 -0.9072 -1.4878  0.8108
   10MOL   H16910267   3.999   0.444   0.448 -2.2535 -0.2156  0.0139
   10MOL   C17010268   3.989   0.351   0.268  0.2668 -0.3035  0.1670
   10MOL   O17110269   4.045   0.273   0.191  0.0077 -0.2866  0.0587
   10MOL   C17210270   3.902   0.460   0.206 -0.7485 -0.2090 -0.7840
   10MOL   C17310271   3.970   0.600   0.178  0.1068 -0.3874 -0.0943
   10MOL   C17410272   4.047   0.600   0.048  0.2766  0.1942  0.4765
   10MOL   C17510273   4.111   0.742   0.017 -0.0766  0.3387 -0.7472
   10MOL   C17610274   4.170   0.751   7.563 -0.2089  0.1578  0.5936
   10MOL   C17710275   4.224   0.888   7.541  0.4870 -0.1532 -0.1322
   10MOL   C17810276   4.270   0.926   7.397 -0.1191 -0.7030  0.2496
   10MOL   C17910277   4.334   1.059   7.389 -0.1174  0.2588  0.5209
   10MOL   C18010278   4.398   1.094   7.257 -0.2273  0.0379 -0.2954
   10MOL   C18110279   4.445   1.249   7.250  0.1809  0.2968  0.1210
   10MOL   C18210280   4.494   1.278   7.110 -0.2255  0.7290 -0.1776
   10MOL   O18310281   4.548   1.195   7.047 -0.3710 -0.0954 -0.4956
   10MOL   N18410282   4.459   1.397   7.051  0.5012  0.9095  0.0851
   10MOL   C18510283   4.403   1.519   7.116  0.1077 -0.2282 -0.0825
   10MOL   C18610284   4.365   1.623   7.010  0.2836 -0.2011  0.0483
   10MOL   C18710285   4.352   1.762   7.071 -0.0520 -0.3623 -0.0164
   10MOL   C18810286   4.228   1.793   7.147  0.4063  0.2360 -0.2017
   10MOL   C18910287   4.235   1.915   7.238 -0.6067  0.4620  0.0655
   10MOL   C19010288   4.222   2.056   7.173  0.5293  0.6963 -0.0544
   10MOL   N19110289   4.202   2.160   7.276 -0.0043 -0.1361 -0.7431
   10MOL   H19210290   3.868   0.412   0.114  3.4151  0.1938 -2.6612
   10MOL   H19310291   3.819   0.481   0.274  1.2033  1.3679  1.2108
   10MOL   H19410292   4.025   0.639   0.264  0.9712  0.9485 -1.2399
   10MOL   H19510293   3.890   0.674   0.169 -0.3914 -0.9102  0.0264
   10MOL   H19610294   3.978   0.570   7.660  0.7072  1.4816 -0.4010
   10MOL   H19710295   4.126   0.526   0.057  2.0228  2.2195  2.2676
   10MOL   H19810296   4.024   0.807   0.032 -1.3654 -0.8676 -2.6630
   10MOL   H19910297   4.189   0.754   0.092  0.1551 -0.3716 -0.8730
   10MOL   H20010298   4.248   0.678   7.543 -2.1353 -1.6654 -0.5097
   10MOL   H20110299   4.098   0.729   7.484  0.0658  1.0511  0.0840
   10MOL   H20210300   4.304   0.905   7.613  0.7824  1.0326 -0.7437
   10MOL   H20310301   4.141   0.949   7.577  0.3200  1.6081 -3.3012
   10MOL   H20410302   4.332   0.842   7.365  2.7071  0.9437  1.2319
   10MOL   H20510303   4.189   0.920   7.325  2.1873  0.8099 -2.5457
   10MOL   H20610304   4.256   1.132   7.412  1.7630  1.9889  1.5824
   10MOL   H20710305   4.408   1.074   7.468  1.1302 -1.7540 -0.2281
   10MOL   H20810306   4.349   1.066   7.163  3.3989 -1.8027 -1.7752
   10MOL   H20910307   4.488   1.033   7.255 -0.3737 -0.1839 -0.1036
   10MOL   H21010308   4.357   1.312   7.268 -0.3706 -0.1668 -0.8913
   10MOL   H21110309   4.518   1.276   7.326  1.3100 -0.6644 -0.6077
   10MOL   H21210310   4.474   1.414   6.952  1.6227  1.5852  0.3624
   10MOL   H21310311   4.486   1.563   7.170 -1.3821  1.5589  0.8104
   10MOL   H21410312   4.317   1.497   7.181  1.8432  1.3578  2.8425
   10MOL   H21510313   4.437   1.631   6.929 -1.2577 -0.2336 -1.3678
   10MOL   H21610314   4.274   1.588   6.960  0.5462  0.3089 -0.8127
   10MOL   H21710315   4.444   1.783   7.126 -0.3736 -0.3631  0.5204
   10MOL   H21810316   4.368   1.831   6.988 -0.4300 -1.1982 -0.7988
   10MOL   H21910317   4.199   1.707   7.208  2.6884 -1.0968 -0.9360
   10MOL   H22010318   4.146   1.807   7.076  0.9987 -1.7831 -1.3184
   10MOL   H22110319   4.327   1.906   7.296  1.5676 -0.2765 -3.3583
   10MOL   H22210320   4.148   1.910   7.305 -1.9387 -0.6902 -1.6921
   10MOL   H22310321   4.139   2.062   7.102  1.1265 -1.3219 -0.9832
   10MOL   H22410322   4.308   2.075   7.109 -0.0834 -0.3125 -1.2035
   10MOL   H22510323   4.205   2.127   7.371  1.8550  1.0886 -0.3434
   10MOL   C22610324   4.189   2.292   7.257  0.2396  0.0941  0.5818
   10MOL   O22710325   4.179   2.344   7.144  0.1910 -0.4016  0.4123
   10MOL   C22810326   4.181   2.374   7.387  0.2402 -0.1458 -0.4099
   10MOL   C22910327   4.324   2.410   7.442  0.1563 -0.6136  0.9326
   10MOL   C23010328   4.388   2.524   7.354 -0.3413 -0.7074 -0.1543
   10MOL   C23110329   4.329   2.659   7.388  0.2574  0.0664 -0.1591
   10MOL   C23210330   4.395   2.777   7.320 -0.1219  0.4059 -0.0758
   10MOL   C23310331   4.348   2.912   7.383  0.4410 -0.2896  0.2109
   10MOL   C23410332   4.199   2.936   7.400 -0.2089  0.0292 -0.0094
   10MOL   C23510333   4.170   3.070   7.460 -0.0219  0.0677  0.0194
   10MOL   C23610334   4.086   3.070   7.589 -0.3143 -0.0831  0.6287
   10MOL   C23710335   3.930   3.043   7.576 -0.6404 -0.7459 -0.3476
   10MOL   C23810336   3.852   3.143   7.491  0.0898 -0.0912 -0.5653
   10MOL   O23910337   3.903   3.245   7.447  0.2573 -0.0405 -0.0989
   10MOL   N24010338   3.726   3.110   7.468 -0.5524  0.0162 -0.3911
   10MOL   C24110339   3.633   3.180   7.396  0.2267 -0.0890  0.8070
   10MOL   C24210340   3.495   3.107   7.387  0.1901  0.2062 -0.9872
   10MOL   C24310341   3.384   3.180   7.308  0.0531  0.2425 -1.2059
   10MOL   C24410342   3.254   3.095   7.294 -0.0225 -0.1047  0.2563
   10MOL   C24510343   3.120   3.171   7.269 -0.6247  0.9371  0.3981
   10MOL   C24610344   2.993   3.087   7.258 -0.8085 -0.4534  0.0583
   10MOL   N24710345   2.999   2.972   7.169 -0.4699  0.4065  0.2198
   10MOL   H24810346   4.135   2.316   7.466  0.2457 -0.6081 -0.7488
   10MOL   H24910347   4.126   2.468   7.376  0.6704  0.1225 -0.2708
   10MOL   H25010348   4.328   2.450   7.543  1.2061  2.5049 -0.2493
   10MOL   H25110349   4.389   2.322   7.441 -0.2025 -0.8957  2.0440
   10MOL   H25210350   4.491   2.517   7.389  0.2521 -0.6046 -1.8462
   10MOL   H25310351   4.400   2.504   7.248  0.7741 -1.1350  0.0480
   10MOL   H25410352   4.349   2.679   7.494 -2.3700 -0.0942  0.4034
   10MOL   H25510353   4.222   2.671   7.376  0.4446  0.3002 -1.6525
   10MOL   H25610354   4.378   2.778   7.212 -1.3118 -1.9707  0.0431
   10MOL   H25710355   4.503   2.767   7.330 -0.2460 -0.2657  0.6036
   10MOL   H25810356   4.388   2.909   7.485  0.4267  2.1739  0.3387
   10MOL   H25910357   4.395   2.988   7.320 -0.9285  0.9094  0.5895
   10MOL   H26010358   4.148   2.864   7.465 -0.4728 -0.3565 -0.6402
   10MOL   H26110359   4.159   2.928   7.299  2.1574  4.2486 -1.4058
   10MOL   H26210360   4.266   3.119   7.478 -1.0076  1.0016  3.1659
   10MOL   H26310361   4.117   3.130   7.386  3.2384 -0.6158 -2.9755
   10MOL   H26410362   4.127   2.996   7.658  1.9586 -1.4977 -2.1105
   10MOL   H26510363   4.107   3.167   7.633  0.0418  0.4817 -0.7566
   10MOL   H26610364   3.902   2.945   7.536 -0.1230  0.0490 -2.7058
   10MOL   H26710365   3.892   3.056   7.677 -0.5142  1.5514 -0.5736
   10MOL   H26810366   3.684   3.038   7.525 -2.0354  0.8126 -0.4543
   10MOL   H26910367   3.672   3.188   7.295  1.2500  0.2756  1.2249
   10MOL   H27010368   3.620   3.287   7.413 -0.9764 -0.3424  1.5493
   10MOL   H27110369   3.469   3.072   7.486  1.0735 -2.0951 -1.5172
   10MOL   H27210370   3.526   3.022   7.326  0.0087  0.8733 -2.0244
   10MOL   H27310371   3.363   3.275   7.358 -0.7485 -1.1234  1.1411
   10MOL   H27410372   3.415   3.213   7.209 -0.1399  1.0552 -1.0046
   10MOL   H27510373   3.247   3.032   7.383  0.8265  0.1480  0.5082
   10MOL   H27610374   3.266   3.016   7.220 -0.7674 -1.2019  1.2888
   10MOL   H27710375   3.121   3.242   7.186 -0.8887  0.7911  0.2682
   10MOL   H27810376   3.097   3.229   7.359 -0.9216  2.2019 -0.4794
   10MOL   H27910377   2.910   3.148   7.223  1.3334  2.2340 -0.5257
   10MOL   H28010378   2.949   3.057   7.353 -2.1247 -1.4244 -0.8440
   10MOL   H28110379   3.025   2.988   7.072  2.2622 -0.0235  0.8399
   10MOL   C28210380   2.990   2.844   7.210 -0.2016 -0.2636 -0.1822
   10MOL   O28310381   2.965   2.813   7.328  0.0576 -0.1457  0.1471
   10MOL   C28410382   3.022   2.733   7.114  0.5393 -0.2288  0.3369
   10MOL   C28510383   3.098   2.614   7.168  0.0821  0.6769  0.0178
   10MOL   C28610384   3.124   2.508   7.063  0.0452 -0.4494 -0.3795
   10MOL   C28710385   3.190   2.376   7.095  0.9064 -0.8134  0.0488
   10MOL   C28810386   3.263   2.306   6.982 -0.6533  0.3321  1.0364
   10MOL   C28910387   3.345   2.194   7.033  0.3910 -0.3415 -0.8952
   10MOL   C29010388   3.270   2.092   7.114  0.5412  0.6605 -0.6279
   10MOL   C29110389   3.346   1.953   7.132  0.8028  0.4499 -0.6405
   10MOL   C29210390   3.266   1.841   7.208  0.1886 -0.4085  1.0052
   10MOL   C29310391   3.244   1.869   7.357 -0.4533  0.8181 -0.4760
   10MOL   C29410392   3.367   1.850   7.452 -0.3380  0.9908 -1.1402
   10MOL   O29510393   3.479   1.815   7.415  0.5017 -0.3405  0.1188
   10MOL   N29610394   3.343   1.868   7.582  0.0730  0.6685  0.2286
   10MOL   C29710395   3.441   1.850   7.688  0.1043 -0.4596 -0.1049
   10MOL   C29810396   3.388   1.780   0.127  0.6018  0.1600  0.2600
   10MOL   C29910397   3.488   1.747   0.244 -0.4048  0.4916  0.4581
   10MOL   C30010398   3.419   1.678   0.360  0.2299  0.2597  0.4215
   10MOL   C30110399   3.491   1.671   0.498  0.0627 -0.8141 -0.3740
   10MOL   C30210400   3.418   1.594   0.610 -0.4018 -0.5242 -0.4344
   10MOL   N30310401   3.372   1.457   0.564 -0.3576 -0.7547  0.2597
   10MOL   H30410402   2.940   2.687   7.059  0.2586 -0.2783  0.7957
   10MOL   H30510403   3.088   2.769   7.035 -0.3038  3.9359  1.3635
   10MOL   H30610404   3.044   2.555   7.243 -0.5959 -1.1030 -1.8066
   10MOL   H30710405   3.192   2.647   7.209 -0.0171 -0.3377  1.0962
   10MOL   H30810406   3.030   2.488   7.011 -0.9112  1.7288  0.4486
   10MOL   H30910407   3.174   2.541   6.972 -1.8774 -0.1496 -1.3556
   10MOL   H31010408   3.115   2.309   7.137 -3.0340  2.8427 -0.8012
   10MOL   H31110409   3.267   2.399   7.169  1.0592 -3.9102  0.9472
   10MOL   H31210410   3.198   2.265   6.904  0.1833 -3.5711  2.2890
   10MOL   H31310411   3.330   2.378   6.935 -0.9376 -1.4964 -2.3695
   10MOL   H31410412   3.405   2.159   6.949  2.3237  1.4260 -0.3095
   10MOL   H31510413   3.415   2.243   7.101 -0.3000 -0.6568  0.0471
   10MOL   H31610414   3.164   2.093   7.087 -0.2878 -1.1269  2.2494
   10MOL   H31710415   3.261   2.126   7.217 -0.5030  2.4090 -1.2700
   10MOL   H31810416   3.437   1.986   7.184  0.9574  0.7337 -1.0895
   10MOL   H31910417   3.378   1.910   7.037 -1.7639 -1.6679 -0.6036
   10MOL   H32010418   3.166   1.835   7.163 -0.7618 -2.2453  3.2825
   10MOL   H32110419   3.324   1.751   7.192  0.4598 -0.0366 -0.1798
   10MOL   H32210420   3.197   1.965   7.379 -0.0753  1.0788 -0.8052
   10MOL   H32310421   3.176   1.791   7.390 -3.1233  2.7666 -1.1615
   10MOL   H32410422   3.252   1.905   7.609 -0.8422  0.2870 -2.2162
   10MOL   H32510423   3.484   1.947   0.021  1.8286 -1.4052  0.7288
   10MOL   H32610424   3.533   1.802   7.653  0.3571 -0.6398  0.7998
   10MOL   H32710425   3.327   1.693   0.102  0.6328  0.1141  0.3452
   10MOL   H32810426   3.304   1.829   0.177 -0.5301  0.8511 -2.2167
   10MOL   H32910427   3.541   1.834   0.282 -1.9777  1.5999  0.1397
   10MOL   H33010428   3.572   1.685   0.211  0.8219  1.0758  2.3962
   10MOL   H33110429   3.317   1.711   0.378  0.4538  1.5499 -0.6188
   10MOL   H33210430   3.394   1.584   0.312  0.0820  0.8894 -0.7534
   10MOL   H33310431   3.509   1.777   0.515 -0.1071 -0.5958 -1.5055
   10MOL   H33410432   3.589   1.625   0.493  0.6833  0.3006  1.1995
   10MOL   H33510433   3.480   1.582   0.699  0.4110 -0.2896 -0.9601
   10MOL   H33610434   3.335   1.656   0.643  2.2705  1.5223  2.7478
   10MOL   H33710435   3.275   1.443   0.541 -0.4739  1.3733 -0.6624
   10MOL   C33810436   3.440   1.344   0.559 -0.0914 -0.2764 -1.0444
   10MOL   O33910437   3.552   1.335   0.594  0.2877  0.3489  0.1797
   10MOL   C34010438   3.354   1.220   0.514  0.6036  0.8725 -0.6948
   10MOL   C34110439   3.444   1.129   0.435  0.5165 -0.1626 -0.3464
   10MOL   C34210440   3.379   1.003   0.372  1.0583  0.5541 -0.5459
   10MOL   C34310441   3.465   0.896   0.304 -0.6793 -0.0044  0.3492
   10MOL   C34410442   3.377   0.765   0.272  0.1936 -0.4446  0.1684
   10MOL   C34510443   3.449   0.654   0.187  0.5591  0.1498 -0.3245
   10MOL   C34610444   3.360   0.526   0.163 -0.4611  0.0468  0.2040
   10MOL   C34710445   3.249   0.540   0.051 -0.0273 -0.0598 -0.3848
   10MOL   C34810446   3.150   0.422   0.052 -0.4841 -0.1621  0.7659
   10MOL   C34910447   3.081   0.413   7.598  0.0588  0.5407  0.8407
   10MOL   C35010448   2.987   0.536   7.561 -0.1804 -0.2676  0.2341
   10MOL   O35110449   2.957   0.614   7.650 -0.3750 -0.2215  0.5453
   10MOL   N35210450   2.942   0.541   7.439 -0.8171 -0.5986  0.0046
   10MOL   C35310451   2.905   0.667   7.371  0.1341 -0.0934 -0.6613
   10MOL   C35410452   2.748   0.690   7.342  0.6078 -0.0611  0.3598
   10MOL   C35510453   2.662   0.672   7.457  0.1040 -0.4198 -0.4717
   10MOL   C35610454   2.675   0.780   7.568 -0.2408 -0.0459 -0.1378
   10MOL   C35710455   2.581   0.753   7.685  1.0020  0.4553 -0.7604
   10MOL   C35810456   2.426   0.769   7.669  0.5187 -0.3983 -0.0345
   10MOL   N35910457   2.388   0.909   7.634  0.1484  0.0479  0.2138
   10MOL   H36010458   3.276   1.264   0.452 -2.1103 -0.1281  1.9199
   10MOL   H36110459   3.303   1.173   0.597  1.5223  2.1918  0.6348
   10MOL   H36210460   3.505   1.196   0.374  0.0156  0.0699 -0.5990
   10MOL   H36310461   3.513   1.082   0.505  1.9211  1.1084 -0.8428
   10MOL   H36410462   3.305   1.037   0.299 -0.4385  0.7350  1.0356
   10MOL   H36510463   3.322   0.954   0.450  0.2898  2.4769  0.1343
   10MOL   H36610464   3.516   0.937   0.217  0.6896  0.2758  1.2763
   10MOL   H36710465   3.547   0.866   0.369 -0.3768 -2.7180 -1.1963
   10MOL   H36810466   3.334   0.726   0.365 -0.6938 -2.5753 -1.1110
   10MOL   H36910467   3.293   0.797   0.211  0.6817  2.4682  0.9317
   10MOL   H37010468   3.488   0.695   0.094 -0.8935  0.6226 -0.7356
   10MOL   H37110469   3.540   0.626   0.241  2.2966  1.1266 -2.6418
   10MOL   H37210470   3.419   0.441   0.128  2.0862  2.0335 -0.4434
   10MOL   H37310471   3.310   0.488   0.252 -0.7946 -0.1096 -0.0489
   10MOL   H37410472   3.197   0.633   0.073 -0.9513 -0.3377 -1.3014
   10MOL   H37510473   3.301   0.560   7.649  0.3702  0.8763  0.0289
   10MOL   H37610474   3.086   0.421   0.140 -1.7746 -1.3889 -0.1700
   10MOL   H37710475   3.209   0.330   0.058  0.4659  0.3104 -0.9668
   10MOL   H37810476   3.160   0.402   7.524 -0.4999  0.3322  0.2644
   10MOL   H37910477   3.029   0.321   7.572  0.6750  0.5177 -0.3158
   10MOL   H38010478   2.973   0.465   7.379 -1.3492 -1.3796  0.6966
   10MOL   H38110479   2.954   0.675   7.274  0.0656 -0.4141 -0.7191
   10MOL   H38210480   2.943   0.751   7.430 -0.5757  0.6009 -1.1868
   10MOL   H38310481   2.706   0.620   7.269 -1.7658  0.6120  1.0267
   10MOL   H38410482   2.733   0.789   7.300 -1.2600  0.3426  1.9044
   10MOL   H38510483   2.557   0.667   7.431  0.1599 -2.8270 -0.3236
   10MOL   H38610484   2.680   0.573   7.499 -1.5758  0.1930  1.7720
   10MOL   H38710485   2.779   0.775   7.599 -0.0371 -1.1799 -0.9362
   10MOL   H38810486   2.672   0.883   7.533  2.1686  0.9014  2.3205
   10MOL   H38910487   2.614   0.806   0.082 -1.2896 -0.8881  0.9800
   10MOL   H39010488   2.599   0.650   0.025  0.4282  0.2121 -1.2116
   10MOL   H39110489   2.397   0.701   7.589 -2.5719  0.8005  0.0073
   10MOL   H39210490   2.369   0.732   0.063 -0.1351 -0.1186 -0.3478
   10MOL   H39310491   2.457   0.982   7.640 -0.4073  0.9923 -3.5056
   10MOL   C39410492   2.274   0.942   7.571  0.0152  0.4347 -0.6294
   10MOL   O39510493   2.198   0.858   7.533  0.4414 -0.0700  0.3365
   10MOL   C39610494   2.237   1.093   7.564 -0.2422  0.3902 -0.7030
   10MOL   C39710495   2.098   1.133   7.480  0.0538  0.2672  0.2508
   10MOL   C39810496   2.096   1.079   7.334  0.4668 -0.4946  0.1746
   10MOL   C39910497   1.966   1.112   7.264  0.0013  0.4245  0.0527
   10MOL   C40010498   1.965   1.057   7.124 -0.0181 -0.0615  0.2069
   10MOL   C40110499   1.929   0.898   7.121 -0.7961 -0.5603  0.2015
   10MOL   C40210500   1.917   0.831   6.979 -0.1647 -0.3217 -0.4770
   10MOL   C40310501   2.051   0.767   6.939  0.2128  0.1913 -0.2221
   10MOL   C40410502   2.058   0.686   6.810 -0.2600  0.4200 -0.6762
   10MOL   C40510503   2.175   0.587   6.809 -0.4037  0.3340 -0.2453
   10MOL   C40610504   2.321   0.645   6.817  0.2143 -0.1976  0.5221
   10MOL   O40710505   2.352   0.716   6.721  0.2201 -0.7731 -0.3386
   10MOL   N40810506   2.410   0.609   6.910  0.8611 -0.3211 -0.3811
   10MOL   C40910507   2.555   0.623   6.913  0.0596  0.4216  0.0932
   10MOL   C41010508   2.640   0.493   6.895 -0.5241 -0.4905 -0.3924
   10MOL   C41110509   2.619   0.392   7.008 -0.2108 -0.0405 -0.3181
   10MOL   C41210510   2.685   0.252   6.988  0.2054  0.0568  0.1327
   10MOL   C41310511   2.655   0.183   6.851  0.2666  0.1743  0.6711
   10MOL   C41410512   2.698   0.039   6.849 -0.3346  0.9887 -0.6798
   10MOL   N41510513   2.662   7.669   6.722  0.6790  0.4502  0.4097
   10MOL   H41610514   2.318   1.155   7.526  1.9489 -2.3458 -0.7010
   10MOL   H41710515   2.215   1.121   7.667 -0.5454 -1.7659 -0.1599
   10MOL   H41810516   2.070   1.238   7.487  1.4413  0.7995 -1.5799
   10MOL   H41910517   2.020   1.072   7.524  1.3172 -0.5818  1.3195
   10MOL   H42010518   2.113   0.971   7.330  1.5111 -0.2746 -2.3386
   10MOL   H42110519   2.186   1.112   7.281  0.2927 -1.2553 -0.6019
   10MOL   H42210520   1.951   1.220   7.263 -0.2216  0.4028  0.5922
   10MOL   H42310521   1.876   1.081   7.317  1.2889 -2.2181  0.7550
   10MOL   H42410522   1.891   1.116   7.069 -0.0312  0.0643  0.3582
   10MOL   H42510523   2.060   1.083   7.078  0.3180 -1.0051  0.3650
   10MOL   H42610524   1.996   0.841   7.185 -2.3181 -1.9934  0.5690
   10MOL   H42710525   1.837   0.875   7.175 -1.3534 -2.4632 -1.4866
   10MOL   H42810526   1.838   0.759   6.999 -0.3631  0.2753  0.9820
   10MOL   H42910527   1.865   0.902   6.914 -0.4281 -0.5495 -0.5150
   10MOL   H43010528   2.124   0.848   6.933  0.0962  0.1272 -2.6320
   10MOL   H43110529   2.085   0.700   7.018  0.4711 -0.7112 -1.0926
   10MOL   H43210530   2.051   0.744   6.718  0.2610  1.5147 -0.0301
   10MOL   H43310531   1.971   0.620   6.803  0.0067 -0.2190  1.5040
   10MOL   H43410532   2.155   0.504   6.876  2.2362  1.0973  1.5785
   10MOL   H43510533   2.163   0.536   6.713  0.0069  1.8809 -1.1332
   10MOL   H43610534   2.375   0.564   6.994  0.3072  1.9291  0.6450
   10MOL   H43710535   2.570   0.676   7.007  0.6150 -0.3984  0.4678
   10MOL   H43810536   2.600   0.696   6.846 -0.0406 -0.6783 -1.1994
   10MOL   H43910537   2.745   0.522   6.894 -1.0223  1.3630  0.6282
   10MOL   H44010538   2.614   0.448   6.799 -1.8124 -0.2407 -0.1647
   10MOL   H44110539   2.657   0.436   7.100  2.3272  0.6356 -1.6623
   10MOL   H44210540   2.511   0.380   7.019 -0.2066  1.0310  1.0502
   10MOL   H44310541   2.792   0.271   6.996  0.3818 -1.3750  1.2543
   10MOL   H44410542   2.661   0.188   7.072 -1.2277 -1.4910 -1.4202
   10MOL   H44510543   2.551   0.191   6.819 -0.0177 -0.1405  1.4849
   10MOL   H44610544   2.713   0.246   6.784  1.3832  0.5062  1.9108
   10MOL   H44710545   2.807   0.039   6.855 -0.3036 -1.1908 -0.8243
   10MOL   H44810546   2.660   7.669   6.930  2.3167 -0.8439 -0.7362
   10MOL   H44910547   2.584   0.014   6.669  1.1127  0.5900 -0.1380
   10MOL   C45010548   2.714   7.555   6.677  0.0052  0.2724  0.1669
   10MOL   O45110549   2.809   7.497   6.732 -0.1990  0.4086 -0.5425
   10MOL   C45210550   2.661   7.491   6.549 -0.0658 -0.0555 -0.3123
   10MOL   C45310551   2.620   7.346   6.566 -0.0314 -0.6736 -0.1181
   10MOL   C45410552   2.565   7.284   6.436 -0.0529 -0.9621 -0.0275
   10MOL   C45510553   2.666   7.289   6.320 -0.2921  0.9103 -0.9379
   10MOL   C45610554   2.624   7.206   6.197 -0.2459 -0.6542  0.5490
   10MOL   C45710555   2.529   7.278   6.106 -0.5787 -0.2163  0.1410
   10MOL   C45810556   2.454   7.188   6.012  0.4722  0.0397 -0.6122
   10MOL   C45910557   2.320   7.253   5.963 -0.7640  0.3521  0.2914
   10MOL   C46010558   2.339   7.349   5.846  0.3368 -0.3061  0.1052
   10MOL   C46110559   2.212   7.414   5.793  0.2411  0.0598 -0.2056
   10MOL   C46210560   2.109   7.323   5.724 -0.6568  0.4321 -0.8950
   10MOL   O46310561   2.143   7.205   5.696  0.2872 -0.1425  0.0149
   10MOL   N46410562   1.989   7.369   5.699 -0.1746  0.1301  0.2491
   10MOL   C46510563   1.888   7.296   5.623  0.4577  0.3477 -0.4499
   10MOL   C46610564   1.774   7.244   5.705  0.3149 -0.0125 -0.3251
   10MOL   C46710565   1.681   7.351   5.771  0.3113  0.4374 -0.1916
   10MOL   C46810566   1.622   7.452   5.678 -1.2497  0.6327  0.0810
   10MOL   C46910567   1.493   7.514   5.720 -0.1397 -0.0262  0.4256
   10MOL   C47010568   1.378   7.405   5.726  0.0825  0.9428  0.5186
   10MOL   N47110569   1.252   7.473   5.746  0.1474  0.0101 -0.1149
   10MOL   H47210570   2.576   7.545   6.507  0.6019  1.1812 -0.0923
   10MOL   H47310571   2.738   7.501   6.473 -1.7386 -1.0805 -2.1889
   10MOL   H47410572   2.532   7.335   6.630 -0.5839 -0.1155 -0.7915
   10MOL   H47510573   2.695   7.281   6.613 -0.1230  0.5968  1.8304
   10MOL   H47610574   2.473   7.333   6.406  2.2321  1.9784 -2.4856
   10MOL   H47710575   2.541   7.178   6.451  0.2409 -1.1140 -0.6319
   10MOL   H47810576   2.762   7.249   6.353 -0.9513 -0.3750 -0.5201
   10MOL   H47910577   2.675   7.396   6.306  0.9703  0.8090 -0.9204
   10MOL   H48010578   2.589   7.113   6.240 -3.1124  0.2009  0.1498
   10MOL   H48110579   2.709   7.176   6.135  0.0893 -1.1683  1.2550
   10MOL   H48210580   2.595   7.352   6.059 -1.2218  0.5453  0.4460
   10MOL   H48310581   2.454   7.322   6.170 -2.0517 -0.1989 -1.5679
   10MOL   H48410582   2.509   7.165   5.921  0.6610 -1.0692 -0.2229
   10MOL   H48510583   2.427   7.096   6.065  0.4950  0.2307 -0.2693
   10MOL   H48610584   2.248   7.177   5.931  0.4629 -0.9317  0.5484
   10MOL   H48710585   2.273   7.303   6.048  0.5269  0.2713  1.0529
   10MOL   H48810586   2.384   7.296   5.762 -0.1743  2.2433 -1.8402
   10MOL   H48910587   2.408   7.428   5.878 -0.0540 -0.3507  1.0677
   10MOL   H49010588   2.164   7.468   5.875  1.7646  0.0404  0.7307
   10MOL   H49110589   2.228   7.494   5.720  0.6952 -0.6286 -0.8622
   10MOL   H49210590   1.963   7.464   5.719 -3.0816 -0.9818  2.0313
   10MOL   H49310591   1.934   7.214   5.568  0.0064  0.8194 -1.5236
   10MOL   H49410592   1.847   7.367   5.552  1.4433  2.2001  0.7987
   10MOL   H49510593   1.716   7.180   5.638 -0.8524 -0.2569  0.9052
   10MOL   H49610594   1.803   7.167   5.776  1.2293 -1.1665 -1.9131
   10MOL   H49710595   1.725   7.408   5.853  0.2636 -1.1610  0.9558
   10MOL   H49810596   1.608   7.288   5.821  0.5947  0.6302  0.4699
   10MOL   H49910597   1.598   7.392   5.590  1.9348  0.3504 -0.6759
   10MOL   H50010598   1.694   7.523   5.638  1.4252 -0.9975  1.8127
   10MOL   H50110599   1.496   7.570   5.813  0.7558  0.6900 -0.0255
   10MOL   H50210600   1.466   7.583   5.640 -1.1858  0.2414  0.9927
   10MOL   H50310601   1.389   7.351   5.632  0.0986  1.4328  0.2362
   10MOL   H50410602   1.402   7.338   5.808  1.0901 -1.4435 -1.6365
   10MOL   H50510603   1.194   7.492   5.666  0.4684  0.0813 -0.3295
   10MOL   C50610604   1.199   7.491   5.870 -1.2642 -0.2180 -0.5719
   10MOL   O50710605   1.264   7.459   5.969  0.2458  0.0541  0.3963
   10MOL   C50810606   1.063   7.547   5.882  0.0293 -0.7021 -0.9162
   10MOL   C50910607   1.054   0.008   5.864  0.1066 -0.1474 -0.4278
   10MOL   C51010608   1.134   0.082   5.976 -0.1084 -0.0386 -0.0420
   10MOL   C51110609   1.098   0.227   6.006 -0.6487  0.7295 -0.8928
   10MOL   C51210610   1.190   0.314   6.101  0.2069  0.4762 -0.2367
   10MOL   C51310611   1.225   0.258   6.239  0.0368 -0.3523  0.5719
   10MOL   C51410612   1.312   0.353   6.322 -0.2205 -0.4244 -0.4026
   10MOL   C51510613   1.344   0.314   6.467  0.0501  0.0182  0.0867
   10MOL   C51610614   1.227   0.284   6.556  0.0163 -0.0315 -0.6763
   10MOL   C51710615   1.237   0.255   6.704 -0.2754 -0.1697 -0.3733
   10MOL   C51810616   1.255   0.381   6.794 -1.0390 -0.5964 -0.7370
   10MOL   O51910617   1.282   0.489   6.736  0.2791 -0.0722  0.1942
   10MOL   N52010618   1.247   0.374   6.931 -0.5984 -0.1739 -0.3875
   10MOL   C52110619   1.256   0.480   7.026  0.1217 -0.1372 -0.0313
   10MOL   C52210620   1.134   0.570   7.026  0.5573  0.1662 -0.4248
   10MOL   C52310621   1.140   0.694   7.121 -0.4016 -0.2326  0.2257
   10MOL   C52410622   1.009   0.788   7.107 -0.4528 -0.6906  0.1565
   10MOL   C52510623   1.009   0.898   7.209  0.4460 -0.1479 -0.6464
   10MOL   C52610624   0.901   0.999   7.173  0.3309  0.0698  0.4182
   10MOL   N52710625   0.766   0.957   7.184  0.3722  0.4839 -0.0344
   10MOL   H52810626   1.012   7.525   5.976  1.8756  1.2758  0.6046
   10MOL   H52910627   1.003   7.504   5.802  0.8646  0.4517 -2.1819
   10MOL   H53010628   0.952   0.043   5.873  0.0549 -0.5907  0.8606
   10MOL   H53110629   1.083   0.041   5.764 -1.0128  1.0444 -0.3734
   10MOL   H53210630   1.237   0.070   5.941 -0.3695  0.6885 -1.0877
   10MOL   H53310631   1.130   0.012   6.060 -0.0483 -3.2622 -2.6065
   10MOL   H53410632   1.101   0.286   5.915 -2.5968  1.1681 -0.7040
   10MOL   H53510633   0.994   0.224   6.041 -0.7110 -0.0732 -1.1419
   10MOL   H53610634   1.282   0.333   6.045  0.6775  1.3996  0.8381
   10MOL   H53710635   1.140   0.411   6.105 -0.9536 -0.0879 -0.7498
   10MOL   H53810636   1.140   0.215   6.292 -0.5832  1.0614  0.7319
   10MOL   H53910637   1.281   0.166   6.224 -0.1136 -0.3377 -0.1028
   10MOL   H54010638   1.404   0.373   6.267  0.4777 -1.8937  0.1785
   10MOL   H54110639   1.261   0.448   6.333  0.4008  0.0029 -1.1851
   10MOL   H54210640   1.408   0.226   6.474 -1.1155 -0.7216  1.9676
   10MOL   H54310641   1.407   0.391   6.512 -0.1801  1.0049 -1.2595
   10MOL   H54410642   1.178   0.197   6.512 -0.5022 -0.6780  1.1535
   10MOL   H54510643   1.153   0.363   6.542  1.7442  1.2561 -2.8542
   10MOL   H54610644   1.148   0.203   6.741  0.3717  0.2634  1.8439
   10MOL   H54710645   1.322   0.189   6.721  0.0320  0.8132  1.9972
   10MOL   H54810646   1.216   0.287   6.970 -0.6610  0.5466  1.1907
   10MOL   H54910647   1.343   0.543   7.005  0.2252 -0.6823 -1.2550
   10MOL   H55010648   1.293   0.440   7.120 -2.5105 -1.6538  0.3990
   10MOL   H55110649   1.044   0.522   7.065  0.8002 -0.7881 -1.0258
   10MOL   H55210650   1.113   0.615   6.929  1.3549 -0.7442 -1.0368
   10MOL   H55310651   1.228   0.753   7.096 -0.1097 -1.1722 -0.9787
   10MOL   H55410652   1.150   0.662   7.225  1.4660 -1.9121 -0.4628
   10MOL   H55510653   0.914   0.734   7.112 -1.1464  0.4076 -1.0017
   10MOL   H55610654   1.018   0.830   7.007 -0.6607  0.0853  0.4572
   10MOL   H55710655   0.998   0.850   7.306 -0.3651 -1.0950 -1.2030
   10MOL   H55810656   1.110   0.940   7.210 -0.2147  1.5044 -0.3792
   10MOL   H55910657   0.917   1.096   7.220 -2.2146 -0.5750  2.7623
   10MOL   H56010658   0.908   1.014   7.065  1.4234  2.1824  0.7731
   10MOL   H56110659   0.708   0.927   7.108  0.2742 -0.9050  0.5698
   10MOL   C56210660   0.693   0.994   7.291  0.3061  0.8466  0.0659
   10MOL   O56310661   0.744   1.036   7.392  0.4961 -0.1735 -0.9876
   10MOL   C56410662   0.549   0.976   7.285  0.3793 -0.2805 -0.4431
   10MOL   C56510663   0.474   0.990   7.428  0.0465  0.4023  0.0833
   10MOL   C56610664   0.325   0.982   7.415 -0.0091 -0.3257  0.6266
   10MOL   C56710665   0.252   0.963   7.546  0.2052 -0.2441  0.2151
   10MOL   C56810666   0.246   0.809   7.576  1.4682  0.0495  0.7865
   10MOL   C56910667   0.152   0.776   0.000  0.4236 -0.7317 -1.4088
   10MOL   C57010668   0.139   0.884   0.110 -0.2343  0.8066 -0.4931
   10MOL   C57110669   0.078   0.821   0.233  1.0803  0.1541  0.6505
   10MOL   C57210670   0.179   0.736   0.315  0.3846 -0.4040  0.4298
   10MOL   C57310671   0.290   0.817   0.386  0.1380 -0.1332  0.1529
   10MOL   C57410672   0.400   0.736   0.457 -0.0708 -0.5502  0.3150
   10MOL   O57510673   0.413   0.618   0.441 -0.4260  0.3172  0.0240
   10MOL   N57610674   0.490   0.809   0.526 -0.1202 -0.3278  1.1264
   10MOL   C57710675   0.621   0.755   0.571  0.7540  0.1802 -0.2719
   10MOL   C57810676   0.737   0.856   0.531  0.1082  0.5585 -0.2131
   10MOL   C57910677   0.877   0.822   0.585  0.3624  0.1626 -0.1877
   10MOL   C58010678   0.969   0.939   0.595 -0.0422 -0.2960  0.2544
   10MOL   C58110679   1.003   1.001   0.463 -0.0003  0.9278  0.2787
   10MOL   C58210680   1.111   1.104   0.480  0.0983 -0.6584  0.4917
   10MOL   N58310681   1.138   1.176   0.358  0.0406  0.3166  0.0844
   10MOL   H58410682   0.523   1.058   7.218  0.4284 -0.9722 -1.3080
   10MOL   H58510683   0.515   0.882   7.243  0.6685 -1.3234  1.5686
   10MOL   H58610684   0.517   0.909   7.487  0.0447  0.2386 -0.1385
   10MOL   H58710685   0.494   1.087   7.473 -0.8224  0.5379  0.1901
   10MOL   H58810686   0.299   0.900   7.348 -2.8221  1.1041 -0.0764
   10MOL   H58910687   0.286   1.070   7.364 -0.3507 -0.7901  0.0856
   10MOL   H59010688   0.311   1.018   7.618  1.8017 -0.4554 -0.8946
   10MOL   H59110689   0.149   0.998   7.542  0.1699  0.1393  3.4444
   10MOL   H59210690   0.214   0.747   7.493  0.6601 -0.8909  1.7824
   10MOL   H59310691   0.349   0.782   7.594  1.3778 -0.4360  0.5630
   10MOL   H59410692   0.055   0.761   7.645  0.5631 -2.0084 -1.2995
   10MOL   H59510693   0.168   0.676   0.040 -0.6940 -0.7981 -1.0938
   10MOL   H59610694   0.240   0.915   0.137 -0.6398  0.6433  1.2501
   10MOL   H59710695   0.088   0.975   0.077 -1.4380  0.1230 -0.5472
   10MOL   H59810696   7.681   0.766   0.202  0.2212  1.8291  0.0721
   10MOL   H59910697   0.037   0.901   0.294 -0.9183 -0.5743  0.2831
   10MOL   H60010698   0.230   0.656   0.261  1.9431  0.8467  0.0155
   10MOL   H60110699   0.122   0.681   0.390 -0.5328 -0.8719 -0.6039
   10MOL   H60210700   0.352   0.875   0.318 -1.0386  1.1911  0.1805
   10MOL   H60310701   0.249   0.881   0.464 -0.3824 -1.2851  0.8396
   10MOL   H60410702   0.485   0.909   0.516 -1.5250 -0.3588  1.3019
   10MOL   H60510703   0.647   0.662   0.521 -1.9738 -1.0581  0.4731
   10MOL   H60610704   0.624   0.724   0.675 -0.2753 -1.0368 -0.5979
   10MOL   H60710705   0.706   0.952   0.572  0.3676  0.4906  0.1446
   10MOL   H60810706   0.744   0.865   0.422 -0.0826 -2.0047 -0.4603
   10MOL   H60910707   0.923   0.749   0.518 -1.3607 -0.7258 -0.4296
   10MOL   H61010708   0.860   0.779   0.683 -0.7124 -0.3671 -0.6038
   10MOL   H61110709   0.930   1.012   0.665 -0.4028  0.4653 -0.7381
   10MOL   H61210710   1.052   0.905   0.658  1.3507  1.4882 -0.5841
   10MOL   H61310711   0.913   1.050   0.427 -0.1730 -1.9891 -3.5148
   10MOL   H61410712   1.039   0.929   0.389  0.0795  1.5146 -0.2585
   10MOL   H61510713   1.090   1.180   0.555 -0.0394  0.0959 -0.2987
   10MOL   H61610714   1.208   1.064   0.509  0.5945 -0.1655 -0.4355
   10MOL   H61710715   1.076   1.157   0.280  1.5192  2.9576 -1.8184
   10MOL   C61810716   1.228   1.273   0.345 -0.3696 -1.0944 -0.7320
   10MOL   O61910717   1.294   1.317   0.432 -0.3077 -0.3794 -0.4699
   10MOL   C62010718   1.253   1.327   0.204 -0.9062  0.9532 -0.2339
   10MOL   C62110719   1.188   1.466   0.182 -0.6261 -0.6167  0.6544
   10MOL   C62210720   1.250   1.587   0.257 -0.2555 -0.2980  0.0388
   10MOL   C62310721   1.168   1.718   0.243 -0.2241 -0.0372 -0.3349
   10MOL   C62410722   1.216   1.835   0.332  0.5136 -1.2105  0.1534
   10MOL   C62510723   1.161   1.979   0.309 -0.5411  0.4099 -0.1037
   10MOL   C62610724   1.209   2.085   0.411  0.2812 -0.3647  0.1432
   10MOL   C62710725   1.173   2.052   0.555  0.9565  0.5251  0.1067
   10MOL   C62810726   1.232   2.150   0.659 -0.4144  1.1524 -0.1407
   10MOL   C62910727   1.215   2.101   0.800  0.0859  0.3166  0.5227
   10MOL   C63010728   1.348   2.078   0.879  0.4819 -0.1047  0.1839
   10MOL   O63110729   1.416   1.987   0.842  0.1403  0.0367  0.3248
   10MOL   N63210730   1.377   2.160   0.982  0.3851  0.0522  0.0117
   10MOL   C63310731   1.489   2.136   1.072 -0.5974 -0.5486  0.1416
   10MOL   C63410732   1.471   2.019   1.161 -0.0835 -0.0668  0.7362
   10MOL   C63510733   1.335   2.023   1.228  0.1875 -0.0882  0.4672
   10MOL   C63610734   1.329   1.930   1.351  0.5115  0.3551 -0.2302
   10MOL   C63710735   1.363   1.787   1.316  0.4329  0.2557 -0.0101
   10MOL   C63810736   1.295   1.726   1.186 -0.2258  0.4240  0.5556
   10MOL   N63910737   1.281   1.580   1.194 -0.3719 -0.1316  0.1820
   10MOL   H64010738   1.212   1.252   0.138  2.1304 -1.3649  0.4368
   10MOL   H64110739   1.360   1.329   0.186 -0.4753 -1.0346  1.8422
   10MOL   H64210740   1.082   1.470   0.206 -0.4387 -1.1196  1.5911
   10MOL   H64310741   1.190   1.476   0.073 -0.6034 -2.1165  0.5135
   10MOL   H64410742   1.353   1.591   0.219  0.2997  0.7215  1.6018
   10MOL   H64510743   1.273   1.580   0.363 -0.2718  1.5759  0.1992
   10MOL   H64610744   1.186   1.741   0.138 -0.7037  0.0954 -0.3885
   10MOL   H64710745   1.063   1.696   0.262 -0.3634  0.9822  0.0942
   10MOL   H64810746   1.212   1.807   0.437  2.5636 -0.7202  0.3945
   10MOL   H64910747   1.320   1.853   0.302 -0.0570  1.7488 -0.2549
   10MOL   H65010748   1.052   1.977   0.314 -0.5437  1.0423  0.0771
   10MOL   H65110749   1.174   2.013   0.206 -0.6508  0.1749 -0.1967
   10MOL   H65210750   1.317   2.097   0.398  0.0023  3.3189  0.7059
   10MOL   H65310751   1.170   2.183   0.382 -1.6186 -1.6104 -1.6537
   10MOL   H65410752   1.065   2.041   0.567  1.2223  0.7273  3.2492
   10MOL   H65510753   1.207   1.954   0.589 -0.2724  0.6274  1.6761
   10MOL   H65610754   1.183   2.244   0.636 -2.6680 -0.3595 -1.6929
   10MOL   H65710755   1.336   2.169   0.629 -0.1686 -1.1806 -0.8469
   10MOL   H65810756   1.152   2.177   0.847  0.5045  0.8677  0.1940
   10MOL   H65910757   1.154   2.011   0.799 -1.4700  1.3517 -0.7343
   10MOL   H66010758   1.304   2.219   1.019  0.7610  1.6300 -1.7156
   10MOL   H66110759   1.585   2.128   1.022 -0.7616 -0.6011 -0.1719
   10MOL   H66210760   1.480   2.226   1.134  0.0578 -1.1516  1.1221
   10MOL   H66310761   1.550   2.017   1.236 -0.0407  0.8859  0.7227
   10MOL   H66410762   1.469   1.921   1.114  0.2337  0.3214 -0.0932
   10MOL   H66510763   1.309   2.122   1.267 -1.6356 -0.1484 -0.5615
   10MOL   H66610764   1.266   1.994   1.149 -0.8109 -1.1067  1.6807
   10MOL   H66710765   1.231   1.939   1.397  1.1487  2.6694  0.7225
   10MOL   H66810766   1.400   1.960   1.429 -0.1045 -1.9801  1.2824
   10MOL   H66910767   1.470   1.767   1.312  0.1647 -0.9799 -1.3976
   10MOL   H67010768   1.334   1.727   1.403 -1.7162 -1.5289 -1.8759
   10MOL   H67110769   1.190   1.754   1.179 -1.2361 -2.1114  3.9278
   10MOL   H67210770   1.339   1.753   1.090  1.6370 -2.0077  0.6755
   10MOL   H67310771   1.329   1.521   1.127 -2.4261 -1.4904 -0.1215
   10MOL   C67410772   1.186   1.512   1.263  0.1119  0.2844 -0.9901
   10MOL   O67510773   1.119   1.568   1.348  0.0919  0.4398  0.4283
   10MOL   C67610774   1.167   1.374   1.215 -0.1243 -0.4144 -0.3287
   10MOL   C67710775   1.016   1.322   1.231  0.4259  0.4216  0.7369
   10MOL   C67810776   0.998   1.242   1.358 -0.1219 -0.6785  0.4184
   10MOL   C67910777   0.891   1.136   1.355  0.3284 -0.2782  0.0935
   10MOL   C68010778   0.864   1.075   1.500  0.0252  0.0912 -0.1288
   10MOL   C68110779   0.742   0.991   1.506  0.3640  0.5029  0.1670
   10MOL   C68210780   0.717   0.929   1.648  0.1657 -0.7054  0.4829
   10MOL   C68310781   0.598   0.841   1.635  0.0701  0.6796  0.2350
   10MOL   C68410782   0.467   0.906   1.675  0.0257  0.1917  0.2705
   10MOL   C68510783   0.344   0.809   1.686 -1.0140 -0.3079  0.5988
   10MOL   C68610784   0.311   0.764   1.826  0.0218  0.7384 -0.1112
   10MOL   O68710785   0.363   0.820   1.925  0.4059 -0.9997  0.0570
   10MOL   N68810786   0.233   0.656   1.845 -0.4179 -0.2612  0.0649
   10MOL   C68910787   0.206   0.582   1.967 -0.9898 -0.0074  0.1015
   10MOL   C69010788   0.215   0.432   1.938  0.4365  0.5385  0.2072
   10MOL   C69110789   0.339   0.380   1.873  0.0763  0.3938 -0.4790
   10MOL   C69210790   0.341   0.230   1.876  0.2554  0.6757  0.5438
   10MOL   C69310791   0.474   0.181   1.811  0.0905  0.0340  0.1693
   10MOL   C69410792   0.478   0.026   1.799 -0.7204 -0.1864 -0.0998
   10MOL   N69510793   0.602   7.668   1.735  0.4338 -0.4088  0.5267
   10MOL   H69610794   1.238   1.300   1.250  2.1117  1.1655 -1.3875
   10MOL   H69710795   1.182   1.378   1.107 -0.0680 -1.1435 -0.3473
   10MOL   H69810796   1.002   1.254   1.147 -0.6863  1.0834  0.3781
   10MOL   H69910797   0.947   1.406   1.228 -0.3967 -0.2443  0.6435
   10MOL   H70010798   1.091   1.198   1.395 -0.2528 -1.2775  0.0352
   10MOL   H70110799   0.971   1.316   1.433 -1.6464  0.3738 -1.1413
   10MOL   H70210800   0.916   1.057   1.285 -0.3109 -0.9241  0.5872
   10MOL   H70310801   0.801   1.185   1.316 -0.5513  0.8542  3.3535
   10MOL   H70410802   0.846   1.152   1.574  0.4381 -1.7501  1.9546
   10MOL   H70510803   0.953   1.020   1.532  0.8380  1.6613  0.3202
   10MOL   H70610804   0.662   1.065   1.494  0.5437  0.9198  1.3779
   10MOL   H70710805   0.733   0.917   1.427 -0.1876  1.4675 -0.6850
   10MOL   H70810806   0.800   0.864   1.672 -0.1383 -1.9517 -1.6175
   10MOL   H70910807   0.693   1.006   1.721 -1.4388 -2.1511  1.5267
   10MOL   H71010808   0.576   0.794   1.539 -0.0256 -1.9336  1.4855
   10MOL   H71110809   0.611   0.754   1.700 -0.5228 -0.6238 -1.3567
   10MOL   H71210810   0.446   0.996   1.617 -1.4684 -1.1527 -1.2976
   10MOL   H71310811   0.485   0.948   1.775 -1.9840  1.6701  0.0321
   10MOL   H71410812   0.249   0.857   1.662 -0.6970  1.1003  2.0971
   10MOL   H71510813   0.362   0.728   1.615  0.9419  2.1405 -1.8429
   10MOL   H71610814   0.192   0.613   1.763 -1.8342 -0.3640  0.8241
   10MOL   H71710815   0.278   0.619   2.040  0.2695 -2.3941  0.1053
   10MOL   H71810816   0.107   0.593   2.011 -0.7398 -1.3472  1.0231
   10MOL   H71910817   0.134   0.408   1.869  1.8553 -2.5300 -0.4857
   10MOL   H72010818   0.195   0.373   2.028  0.3969  1.5407  0.8581
   10MOL   H72110819   0.342   0.415   1.769 -0.6010  0.4386 -0.4859
   10MOL   H72210820   0.414   0.424   1.938 -2.0743 -1.0159  3.0972
   10MOL   H72310821   0.253   0.194   1.821 -0.5112 -0.9429  2.7633
   10MOL   H72410822   0.321   0.198   1.978 -0.0745 -1.0047 -0.0289
   10MOL   H72510823   0.564   0.218   1.861  1.0399  0.9803 -2.1796
   10MOL   H72610824   0.500   0.220   1.712  0.9086 -0.8727  0.0301
   10MOL   H72710825   0.474   7.666   1.895  0.8076  0.0812  0.1189
   10MOL   H72810826   0.396   0.003   1.732 -0.2197  0.3348 -0.8969
   10MOL   H72910827   0.602   7.662   1.634 -1.8311 -0.1212  0.4998
   10MOL   C73010828   0.718   7.647   1.800  0.5887  0.5217 -0.0271
   10MOL   O73110829   0.726   7.657   1.921 -0.0336 -0.4039 -0.0343
   10MOL   C73210830   0.839   7.631   1.707 -0.0078  0.3715 -0.0380
   10MOL   C73310831   0.956   0.032   1.749 -0.1642  0.6797 -0.4024
   10MOL   C73410832   0.951   0.175   1.706  0.1375 -0.5172  0.5934
   10MOL   C73510833   1.076   0.258   1.730  0.2963  0.2584  0.6148
   10MOL   C73610834   1.184   0.227   1.627  0.4470 -0.3983  0.1515
   10MOL   C73710835   1.307   0.319   1.647  0.0471  0.6610 -0.8907
   10MOL   C73810836   1.361   0.388   1.519  0.1085 -0.0702  0.1154
   10MOL   C73910837   1.494   0.458   1.549  0.2535 -0.2769  0.6931
   10MOL   C74010838   1.535   0.553   1.441  0.1444 -0.6199 -0.1904
   10MOL   C74110839   1.661   0.629   1.491  0.3992 -0.0399  0.4436
   10MOL   C74210840   1.728   0.685   1.364 -0.1839 -0.0299 -0.9076
   10MOL   O74310841   1.662   0.757   1.285 -0.0900 -0.2741 -0.0200
   10MOL   N74410842   1.860   0.648   1.345  0.3045  0.0015 -0.0993
   10MOL   C74510843   1.932   0.665   1.220  0.1442 -0.2454  0.4688
   10MOL   C74610844   2.083   0.630   1.222 -1.0711 -0.6483  0.5695
   10MOL   C74710845   2.156   0.603   1.086  0.3374  0.2425  0.7362
   10MOL   C74810846   2.147   0.713   0.982  0.7638 -0.1326 -0.4304
   10MOL   C74910847   2.246   0.686   0.868 -0.0594 -0.2068  0.0804
   10MOL   C75010848   2.199   0.577   0.766 -0.3907  1.0523  0.5716
   10MOL   N75110849   2.068   0.595   0.703  0.6529  0.1080  0.1515
   10MOL   H75210850   0.820   7.650   1.601 -2.0478 -0.2667  0.1957
   10MOL   H75310851   0.877   7.531   1.730  1.1641  1.0720  1.1541
   10MOL   H75410852   1.050   7.687   1.708 -0.5237  0.6708 -1.2273
   10MOL   H75510853   0.962   0.035   1.858  2.1843  1.0226 -0.5075
   10MOL   H75610854   0.878   0.221   1.772  1.4138 -1.1303  2.4600
   10MOL   H75710855   0.914   0.183   1.604 -1.0350  0.7414  1.1076
   10MOL   H75810856   1.112   0.245   1.832  1.4390 -0.5190  0.1220
   10MOL   H75910857   1.044   0.363   1.728  1.0437  0.4844 -0.3435
   10MOL   H76010858   1.135   0.255   1.534  4.2441  0.9191 -1.5531
   10MOL   H76110859   1.211   0.122   1.623 -0.9418 -0.7175 -1.0062
   10MOL   H76210860   1.295   0.398   1.720 -1.3127 -1.0298  0.7492
   10MOL   H76310861   1.387   0.259   1.690  1.9446  1.0004 -3.7700
   10MOL   H76410862   1.385   0.314   1.443 -2.9186 -0.6820 -0.3302
   10MOL   H76510863   1.280   0.442   1.470  0.0311 -0.4398 -0.1613
   10MOL   H76610864   1.472   0.509   1.643  2.1898  1.5118  0.2081
   10MOL   H76710865   1.571   0.388   1.581 -1.8610 -1.4084  3.4515
   10MOL   H76810866   1.455   0.624   1.417  0.2335  0.0087  1.3265
   10MOL   H76910867   1.551   0.493   1.352  0.6704 -0.0469 -0.4876
   10MOL   H77010868   1.640   0.713   1.556  0.3871  1.9964 -2.1080
   10MOL   H77110869   1.732   0.556   1.530 -0.8199 -1.9661 -0.8039
   10MOL   H77210870   1.908   0.588   1.410 -0.2035 -0.5107 -0.1935
   10MOL   H77310871   1.906   0.764   1.183  2.9372  0.1899 -0.4403
   10MOL   H77410872   1.883   0.599   1.150 -2.1213  0.5213  1.2863
   10MOL   H77510873   2.088   0.531   1.267  1.1813 -1.4604 -1.3346
   10MOL   H77610874   2.123   0.712   1.282  0.7193 -0.0259 -1.4042
   10MOL   H77710875   2.108   0.514   1.044 -1.8177  2.1251 -0.8735
   10MOL   H77810876   2.262   0.579   1.097 -0.1255 -1.5976  1.3771
   10MOL   H77910877   2.045   0.730   0.948  1.0378 -0.9226 -1.6887
   10MOL   H78010878   2.153   0.809   1.034 -1.0860  0.1838 -0.7579
   10MOL   H78110879   2.347   0.663   0.902  0.0689  1.5643  0.9996
   10MOL   H78210880   2.252   0.779   0.811 -0.9075  0.8987  1.7602
   10MOL   H78310881   2.273   0.584   0.687  0.7443  2.4643  1.7108
   10MOL   H78410882   2.205   0.479   0.814  0.9548  0.6889 -0.3273
   10MOL   H78510883   2.078   0.646   0.616 -1.3262  0.9964  0.4221
   10MOL   C78610884   1.955   0.535   0.737 -0.0500 -1.1384 -0.1359
   10MOL   O78710885   1.953   0.460   0.832  0.5702  0.2491 -0.5547
   10MOL   C78810886   1.826   0.560   0.654 -0.3423 -0.2418  0.3269
   10MOL   C78910887   1.724   0.643   0.735  0.4922  0.0452  0.0354
   10MOL   C79010888   1.651   0.559   0.842  0.2991  0.2619  0.6117
   10MOL   C79110889   1.576   0.650   0.950 -0.1121 -0.1519  0.2892
   10MOL   C79210890   1.508   0.562   1.048 -0.1167  0.5771  0.3233
   10MOL   C79310891   1.373   0.499   1.010 -0.2136 -0.9007  0.0975
   10MOL   C79410892   1.291   0.444   1.128  0.5611  0.3124  0.1883
   10MOL   C79510893   1.153   0.397   1.089 -0.3287 -0.1970 -0.4381
   10MOL   C79610894   1.091   0.301   1.197  0.0183 -0.7706 -0.0677
   10MOL   C79710895   1.141   0.156   1.190 -0.0933  0.9518 -0.3970
   10MOL   C79810896   1.053   0.082   1.085  0.6917 -0.4909  0.0678
   10MOL   O79910897   0.927   0.086   1.095  0.4451  0.0655 -0.1301
   10MOL   N80010898   1.121   0.017   0.994 -0.5306  0.0449  0.0148
   10MOL   C80110899   1.058   7.606   0.911 -0.5217  0.2890 -0.2907
   10MOL   C80210900   1.151   7.493   0.873 -0.6368 -0.8028  0.4043
   10MOL   C80310901   1.080   7.367   0.821 -0.0155  0.0760  0.2429
   10MOL   C80410902   1.018   7.384   0.682  0.6417  0.3533 -0.5937
   10MOL   C80510903   0.975   7.251   0.612 -0.1369 -0.1926  0.5820
   10MOL   C80610904   0.913   7.260   0.470  0.0400  0.0353  0.2808
   10MOL   N80710905   0.776   7.299   0.487 -0.0355 -0.0935 -0.1224
   10MOL   H80810906   1.794   0.459   0.629 -0.2691 -0.1638 -0.0857
   10MOL   H80910907   1.853   0.616   0.565 -2.2649  0.8931  0.4320
   10MOL   H81010908   1.773   0.722   0.792  0.2378 -0.4306  0.9110
   10MOL   H81110909   1.657   0.695   0.667 -0.3261  1.1377  1.6556
   10MOL   H81210910   1.725   0.492   0.884  0.3164 -0.5019 -0.5962
   10MOL   H81310911   1.583   0.485   0.799  0.2894  0.3550  0.4634
   10MOL   H81410912   1.643   0.712   1.009 -0.9273 -0.2676  1.3507
   10MOL   H81510913   1.515   0.715   0.888  1.5588 -1.4660 -2.8254
   10MOL   H81610914   1.580   0.493   1.092  0.8156  1.0280 -0.4785
   10MOL   H81710915   1.478   0.631   1.127 -0.5658  0.3751  0.3331
   10MOL   H81810916   1.314   0.576   0.961 -1.0166 -0.9184  1.0198
   10MOL   H81910917   1.401   0.420   0.941 -0.5413 -0.3418 -0.6810
   10MOL   H82010918   1.354   0.363   1.165  0.3267 -0.0444 -0.1965
   10MOL   H82110919   1.288   0.515   1.211  0.2150 -1.8746  2.1207
   10MOL   H82210920   1.084   0.481   1.081  0.6383  0.5705 -0.8397
   10MOL   H82310921   1.163   0.352   0.990 -0.6476  1.1620 -1.1010
   10MOL   H82410922   0.982   0.308   1.189  0.0242  0.2872  0.6697
   10MOL   H82510923   1.105   0.342   1.297 -0.0188 -0.8835 -0.0159
   10MOL   H82610924   1.245   0.146   1.158 -0.2016 -0.6048 -0.3398
   10MOL   H82710925   1.127   0.109   1.288  0.5307 -0.1237 -0.8103
   10MOL   H82810926   1.220   0.036   0.982 -0.3622 -0.5776  0.3988
   10MOL   H82910927   1.015   7.652   0.822 -0.8114  1.1912  0.3048
   10MOL   H83010928   0.974   7.563   0.966  1.8805 -2.5705  1.2776
   10MOL   H83110929   1.194   7.461   0.968  3.4108  0.3905 -0.9245
   10MOL   H83210930   1.231   7.535   0.813 -1.3698  1.3584  0.8857
   10MOL   H83310931   1.147   7.283   0.805  0.0873  0.4082 -1.1490
   10MOL   H83410932   1.007   7.341   0.898  1.9116 -0.2140  1.9998
   10MOL   H83510933   1.084   7.431   0.609  0.9740  1.1930  0.2449
   10MOL   H83610934   0.928   7.444   0.695  0.1682 -0.5717  0.5872
   10MOL   H83710935   0.918   7.206   0.694 -1.6869  0.1010 -0.3159
   10MOL   H83810936   1.069   7.197   0.603  1.4385  2.5343  0.0763
   10MOL   H83910937   0.928   7.168   0.413  0.9094 -0.4728  1.3060
   10MOL   H84010938   0.963   7.326   0.399  0.1568 -1.3709 -0.9861
   10MOL   H84110939   0.752   7.388   0.445  4.2810  1.6214  0.6896
   10MOL   C84210940   0.665   7.229   0.519  0.3099 -0.7291  0.1713
   10MOL   O84310941   0.673   7.123   0.579 -0.1833 -0.5117  0.3877
   10MOL   C84410942   0.537   7.284   0.464  0.0539  0.1468 -0.8175
   10MOL   C84510943   0.407   7.238   0.516 -0.3812  0.5476 -0.7075
   10MOL   C84610944   0.296   7.334   0.478  0.6348 -0.2983 -0.3719
   10MOL   C84710945   0.260   7.341   0.330  0.2411  0.3743  0.0227
   10MOL   C84810946   0.162   7.453   0.296 -0.1793 -0.4283 -0.1650
   10MOL   C84910947   0.198   7.591   0.340  0.0017 -0.1759 -0.1216
   10MOL   C85010948   0.094   0.004   0.291 -0.1290  0.4816 -0.1250
   10MOL   C85110949   0.137   0.149   0.319 -0.3600 -0.7863  0.5086
   10MOL   C85210950   0.128   0.193   0.464 -0.4509 -0.1488  0.1976
   10MOL   C85310951   0.172   0.343   0.470  0.1669  0.1792  0.1989
   10MOL   C85410952   0.137   0.420   0.597 -0.0408  0.1790 -0.5417
   10MOL   O85510953   0.025   0.417   0.649 -0.5957 -0.4584  0.0330
   10MOL   N85610954   0.237   0.484   0.662  0.7834 -0.0821 -0.3186
   10MOL   C85710955   0.231   0.558   0.794 -0.0571  0.0055  0.6543
   10MOL   C85810956   0.264   0.461   0.911  0.1279  0.0730  0.2236
   10MOL   C85910957   0.267   0.543   1.038  0.6908 -0.3504 -0.2851
   10MOL   C86010958   0.365   0.515   1.153 -0.3963  0.0252  0.0938
   10MOL   C86110959   0.356   0.633   1.256  0.6596 -0.8493  0.1778
   10MOL   C86210960   0.228   0.643   1.323  0.7739  0.6198 -0.4773
   10MOL   N86310961   0.178   0.521   1.372  0.7952 -0.0360 -0.3571
   10MOL   H86410962   0.542   7.286   0.355 -0.5293  0.9450 -0.8292
   10MOL   H86510963   0.550   7.389   0.489 -0.0945  0.2102 -1.0099
   10MOL   H86610964   0.424   7.230   0.623 -2.8279  0.9648 -0.2688
   10MOL   H86710965   0.395   7.136   0.479  0.1247 -0.0573  0.7643
   10MOL   H86810966   0.215   7.324   0.550  1.0758  0.7473  0.2817
   10MOL   H86910967   0.335   7.431   0.508 -0.1418 -0.7733  2.2969
   10MOL   H87010968   0.208   7.247   0.313 -0.5062  0.1967  2.9833
   10MOL   H87110969   0.351   7.344   0.270 -0.0012 -0.1929 -0.3690
   10MOL   H87210970   0.167   7.461   0.188  2.5495 -1.9091 -0.1884
   10MOL   H87310971   0.065   7.411   0.323 -0.1205 -0.6293 -0.2712
   10MOL   H87410972   0.217   7.606   0.446 -2.4838  1.4984  0.1349
   10MOL   H87510973   0.294   7.622   0.299  0.9264 -1.0638  1.3239
   10MOL   H87610974   0.078   7.674   0.186 -0.9649 -0.2230  0.1356
   10MOL   H87710975   7.684   7.681   0.330 -1.0141 -0.4233 -2.6668
   10MOL   H87810976   0.074   0.216   0.260  0.8520  1.2762  1.4938
   10MOL   H87910977   0.238   0.158   0.280 -0.2868  0.5849  0.9898
   10MOL   H88010978   0.205   0.138   0.519  1.7135  2.9226  0.3971
   10MOL   H88110979   0.028   0.185   0.507 -0.7848  1.8913 -0.1583
   10MOL   H88210980   0.281   0.346   0.462  0.1217  1.2989 -0.1282
   10MOL   H88310981   0.145   0.403   0.384 -1.7485  2.2963  2.1854
   10MOL   H88410982   0.325   0.485   0.612  0.4471  0.0935 -0.9110
   10MOL   H88510983   0.132   0.605   0.794  0.3687  0.9198  1.9528
   10MOL   H88610984   0.305   0.638   0.796  2.2385 -2.0518  0.4502
   10MOL   H88710985   0.359   0.410   0.896 -0.6292 -0.7944 -1.9007
   10MOL   H88810986   0.189   0.382   0.901  0.7907 -0.4054 -1.1350
   10MOL   H88910987   0.164   0.562   1.070  0.7330 -1.6496  0.6695
   10MOL   H89010988   0.289   0.641   0.996 -2.3233 -0.4352 -2.1902
   10MOL   H89110989   0.472   0.512   1.131  0.0516 -1.5721  2.3884
   10MOL   H89210990   0.337   0.428   1.212 -0.6582 -0.4673 -0.7498
   10MOL   H89310991   0.433   0.614   1.331  2.0200 -2.3126 -1.5620
   10MOL   H89410992   0.375   0.732   1.213 -0.1579 -1.1190 -0.8071
   10MOL   H89510993   0.251   0.717   1.400  0.1613  1.3086 -0.9553
   10MOL   H89610994   0.150   0.683   1.259  0.1153 -0.2292 -0.2273
   10MOL   H89710995   0.140   0.458   1.303  0.2849 -0.1208 -0.0029
   10MOL   C89810996   0.156   0.488   1.503  0.3552 -1.4401  0.1322
   10MOL   O89910997   0.184   0.564   1.594  0.6200 -0.3880 -0.2689
   10MOL   C90010998   0.067   0.367   1.520  0.0521 -0.1149  0.1323
   10MOL   C90110999   0.158   0.240   1.525  0.4317  0.3407  0.2327
   10MOL   C90211000   0.086   0.098   1.514 -0.1067 -0.0733 -0.8371
   10MOL   C90311001   0.190   7.675   1.488  0.3998 -0.7523  0.0685
   10MOL   C90411002   0.121   7.538   1.515  0.2638 -0.1365 -0.5935
   10MOL   C90511003   0.227   7.425   1.506  0.4118  0.4659  0.2673
   10MOL   C90611004   0.296   7.414   1.640  0.4348  0.5304 -0.0272
   10MOL   C90711005   0.438   7.359   1.645 -0.0428  0.4523  0.5031
   10MOL   C90811006   0.498   7.348   1.791  0.2605  0.0497 -0.7205
   10MOL   C90911007   0.641   7.295   1.809  1.1108 -0.6218  0.7425
   10MOL   C91011008   0.668   7.152   1.853  0.5886  0.4405 -0.3256
   10MOL   O91111009   0.578   7.068   1.861  0.6285  0.1401  0.2730
   10MOL   N91211010   0.795   7.126   1.899 -0.0820 -0.1182  0.1195
   10MOL   C91311011   0.835   7.002   1.962  0.4772  0.2055  0.1359
   10MOL   C91411012   0.970   6.955   1.900 -0.1178 -0.0837 -0.0405
   10MOL   C91511013   1.008   6.803   1.924 -0.2832  0.2576 -0.5369
   10MOL   C91611014   1.150   6.756   1.917  0.8545 -0.3137  0.4171
   10MOL   C91711015   1.199   6.757   1.770 -0.1516 -0.0083 -0.1954
   10MOL   C91811016   1.351   6.724   1.756  0.2365  0.4914 -0.2319
   10MOL   N91911017   1.384   6.714   1.614  0.0820 -0.1984 -0.0472
   10MOL   H92011018   0.010   0.389   1.610  0.7740  0.3459  0.4791
   10MOL   H92111019   0.011   0.370   1.427 -0.2500  4.9597  0.3195
   10MOL   H92211020   0.217   0.239   1.616 -1.4481 -0.3730  1.4844
   10MOL   H92311021   0.238   0.244   1.451  0.8826 -0.3507  0.6846
   10MOL   H92411022   0.019   0.091   1.428 -0.6599 -0.4620 -0.3763
   10MOL   H92511023   0.018   0.080   1.597 -1.4938  0.1082 -1.9216
   10MOL   H92611024   0.218   7.687   1.384  1.1590 -1.2605  0.2139
   10MOL   H92711025   0.282   0.000   1.543  0.0354  0.6802  0.2580
   10MOL   H92811026   0.050   7.531   1.433 -1.7229  0.9637  1.0005
   10MOL   H92911027   0.081   7.536   1.616  1.5690  0.5107 -0.0486
   10MOL   H93011028   0.178   7.333   1.475  0.7125  0.7431 -1.0593
   10MOL   H93111029   0.301   7.435   1.426  0.2346  1.1381  0.1834
   10MOL   H93211030   0.239   7.351   1.708 -1.0367  0.9330 -0.8664
   10MOL   H93311031   0.296   7.513   1.686  2.2844  1.0349 -1.0408
   10MOL   H93411032   0.501   7.437   1.600  1.3005 -0.4875  0.7120
   10MOL   H93511033   0.446   7.266   1.590  0.7418  0.6780  0.2216
   10MOL   H93611034   0.490   7.444   1.840 -0.2262  0.9567 -2.5344
   10MOL   H93711035   0.440   7.281   1.856  0.3905  0.3695 -0.2721
   10MOL   H93811036   0.680   7.308   1.708 -2.7098  1.2116 -0.6069
   10MOL   H93911037   0.688   7.364   1.879  1.9685 -2.2348  1.7695
   10MOL   H94011038   0.856   7.206   1.907  0.1522 -0.1177 -1.4286
   10MOL   H94111039   0.758   6.928   1.944  2.1084 -1.3994 -0.4652
   10MOL   H94211040   0.826   7.008   2.070 -0.7995 -1.8281  0.1563
   10MOL   H94311041   0.967   6.970   1.793 -1.2229  0.1105  0.0041
   10MOL   H94411042   1.056   7.014   1.931  0.5125 -0.5187 -0.9498
   10MOL   H94511043   0.987   6.772   2.026 -0.7528 -1.6673 -1.1869
   10MOL   H94611044   0.946   6.735   1.864  1.0759  0.6099 -2.4052
   10MOL   H94711045   1.154   6.653   1.955 -3.2211 -0.2238  1.3216
   10MOL   H94811046   1.212   6.823   1.977 -0.2169  1.3554 -0.3284
   10MOL   H94911047   1.145   6.681   1.712  0.0153 -1.5235  1.6059
   10MOL   H95011048   1.179   6.854   1.725  0.3858  0.6129  0.8797
   10MOL   H95111049   1.375   6.632   1.809  0.8857 -0.1381 -1.5662
   10MOL   H95211050   1.400   6.798   1.818 -0.6173  2.6135 -2.0015
   10MOL   H95311051   1.362   6.798   1.562  0.8321 -0.0382 -0.1171
   10MOL   C95411052   1.459   6.614   1.559  0.2230  0.2981 -0.7558
   10MOL   O95511053   1.503   6.527   1.625 -0.2747  0.5478 -0.4549
   10MOL   C95611054   1.498   6.631   1.417  0.6950  0.4213  0.1271
   10MOL   C95711055   1.418   6.531   1.330  0.3018 -0.2559 -0.4553
   10MOL   C95811056   1.282   6.596   1.298  0.0120 -0.3742 -0.6920
   10MOL   C95911057   1.188   6.510   1.231 -0.5106 -0.0980  0.2630
   10MOL   C96011058   1.052   6.572   1.202  0.7064  0.1328 -0.5006
   10MOL   C96111059   0.974   6.502   1.091  0.7248  0.6453 -0.2193
   10MOL   C96211060   0.818   6.535   1.090 -0.2398 -0.1832  0.6382
   10MOL   C96311061   0.734   6.463   0.986 -0.7587  0.7206 -0.2789
   10MOL   C96411062   0.761   6.515   0.845  0.3564  0.2123 -0.4158
   10MOL   C96511063   0.659   6.446   0.750  0.7544 -0.3969  0.8987
   10MOL   C96611064   0.667   6.501   0.600 -0.4005  0.3073 -0.4673
   10MOL   O96711065   0.590   6.588   0.556 -0.4053 -0.1053 -0.1066
   10MOL   N96811066   0.755   6.456   0.513 -0.2183 -0.0625  0.5561
   10MOL   C96911067   0.759   6.485   0.370  0.4463 -0.2103  0.2546
   10MOL   C97011068   0.887   6.424   0.298 -0.1187 -0.4412 -0.2556
   10MOL   C97111069   0.903   6.486   0.161 -0.2656  0.2790 -0.7906
   10MOL   C97211070   1.028   6.416   0.093  0.4716  0.2055 -0.0905
   10MOL   C97311071   1.108   6.504   7.690 -0.3908  0.3054  0.0265
   10MOL   C97411072   1.214   6.585   0.075  0.4423 -0.4576  0.1576
   10MOL   N97511073   1.320   6.498   0.126 -0.1803 -0.3545  0.3820
   10MOL   H97611074   1.477   6.729   1.376 -2.9572  0.2870  1.4240
   10MOL   H97711075   1.603   6.604   1.408  0.8422  0.7942  0.7344
   10MOL   H97811076   1.399   6.437   1.381 -1.6778  0.9881  1.1998
   10MOL   H97911077   1.477   6.521   1.239  2.3632 -3.1222  1.1185
   10MOL   H98011078   1.228   6.629   1.387  0.4641  1.0517 -0.9326
   10MOL   H98111079   1.316   6.683   1.242 -1.0112  1.1717  1.0194
   10MOL   H98211080   1.236   6.457   1.148 -1.7537 -2.8749  1.2324
   10MOL   H98311081   1.165   6.425   1.296  0.5862 -0.4946  0.1422
   10MOL   H98411082   0.988   6.584   1.290  1.7531 -2.0789  0.6263
   10MOL   H98511083   1.071   6.674   1.168  0.2828 -0.6933 -3.2777
   10MOL   H98611084   1.020   6.530   0.996  0.2156 -0.1200 -0.6943
   10MOL   H98711085   0.978   6.394   1.104 -2.0879  0.3152 -1.7525
   10MOL   H98811086   0.785   6.508   1.190 -1.4503  1.8174  0.7986
   10MOL   H98911087   0.811   6.644   1.089  0.7434 -0.1074 -1.3308
   10MOL   H99011088   0.752   6.356   0.994  0.7726  1.0933  1.6182
   10MOL   H99111089   0.629   6.463   1.014 -1.2622 -3.5966 -1.8276
   10MOL   H99211090   0.866   6.497   0.822  0.9273 -0.8380  2.6881
   10MOL   H99311091   0.765   6.623   0.834  1.0213  0.1557 -0.7616
   10MOL   H99411092   0.675   6.339   0.734 -1.6039 -0.2480 -3.1500
   10MOL   H99511093   0.563   6.463   0.800 -0.6821 -1.7868 -1.3009
   10MOL   H99611094   0.801   6.369   0.536  1.4372  0.3917 -0.9635
   10MOL   H99711095   0.758   6.594   0.360  0.5543 -0.3115 -1.0030
   10MOL   H99811096   0.670   6.451   0.316  0.2623 -0.3336  0.6338
   10MOL   H99911097   0.884   6.317   0.276 -0.3197 -1.2121  3.2865
   10MOL     H111098   0.971   6.449   0.363  0.2413 -1.7846 -0.1835
   10MOL     H211099   0.921   6.593   0.172  0.6062  0.2569 -1.8395
   10MOL     H311100   0.808   6.475   0.110 -1.4944  0.2100  1.4670
   10MOL     H411101   1.089   6.382   0.177 -0.1712 -1.3542 -0.2390
   10MOL     H511102   0.991   6.326   0.043  2.3879  0.5684 -2.2196
   10MOL     H611103   1.038   6.572   7.641  1.1201  0.6997 -1.6495
   10MOL     H711104   1.146   6.438   7.612  2.5693  0.7068  1.0860
   10MOL     H811105   1.268   6.655   0.011  0.5016 -0.3202  0.3580
   10MOL     H911106   1.173   6.649   0.153  2.7877  0.6467  0.5135
   10MOL    H1011107   1.310   6.480   0.225 -0.8106  2.8584  0.9704
   10MOL    C1111108   1.422   6.451   0.060  0.0377 -0.3943  0.1766
   10MOL    O1211109   1.448   6.479   7.635 -0.3642 -0.3603  0.6174
   10MOL    C1311110   1.524   6.367   0.140  0.2800  0.3012  0.6446
   10MOL    C1411111   1.668   6.389   0.093  0.3105  0.1420 -0.2706
   10MOL    C1511112   1.765   6.290   0.162  0.4875 -0.0436 -0.4144
   10MOL    C1611113   1.907   6.298   0.119 -0.0061 -0.3240  0.3615
   10MOL    C1711114   1.984   6.194   0.205 -0.4345  0.2133 -0.0801
   10MOL    C1811115   2.137   6.213   0.193 -0.7302  0.7694  0.9609
   10MOL    C1911116   2.202   6.192   0.339  0.3265 -0.1930 -0.0771
   10MOL    C2011117   2.197   6.042   0.383 -0.1819 -0.5255  0.0805
   10MOL    C2111118   2.312   5.972   0.299  0.2911 -0.2745  0.0513
   10MOL    C2211119   2.352   5.823   0.328  0.2600  0.3231 -0.4010
   10MOL    C2311120   2.221   5.743   0.305 -0.0798  0.4318 -0.1190
   10MOL    O2411121   2.173   5.738   0.191 -0.2824 -0.5667  0.4192
   10MOL    N2511122   2.152   5.698   0.410 -0.6453  0.3910 -0.3028
   10MOL    C2611123   2.019   5.622   0.402 -0.2085 -0.1632 -0.7596
   10MOL    C2711124   2.011   5.504   0.297 -0.0908  0.3433 -0.2117
   10MOL    C2811125   2.132   5.413   0.266  0.3088 -0.5078  0.4086
   10MOL    C2911126   2.169   5.317   0.387  0.7298  0.0816 -0.1175
   10MOL    C3011127   2.247   5.382   0.495  0.5874 -0.5127 -0.0191
   10MOL    C3111128   2.386   5.435   0.452  1.0086 -0.1071 -0.3295
   10MOL    N3211129   2.462   5.474   0.572 -0.1262 -0.5437 -0.0169
   10MOL    H3311130   1.488   6.267   0.117  1.0145 -0.0011  0.7904
   10MOL    H3411131   1.507   6.398   0.243 -0.0195  1.3349  0.2916
   10MOL    H3511132   1.706   6.488   0.115 -0.9271  0.7880 -0.9745
   10MOL    H3611133   1.665   6.385   7.675 -0.7954 -2.2257 -0.1940
   10MOL    H3711134   1.722   6.190   0.154 -0.2334 -0.0967  3.2099
   10MOL    H3811135   1.759   6.316   0.267 -0.9476  0.6687 -0.6479
   10MOL    H3911136   1.912   6.268   0.014  2.2391  3.8106 -0.8145
   10MOL    H4011137   1.957   6.395   0.118  3.1391 -1.8831 -1.3010
   10MOL    H4111138   1.961   6.210   0.310  1.6164  1.4117  0.2157
   10MOL    H4211139   1.957   6.090   0.187 -0.8285  0.3994 -0.5721
   10MOL    H4311140   2.174   6.138   0.123  0.4233  2.1404  0.1053
   10MOL    H4411141   2.151   6.307   0.142  1.5369  1.0026  1.9570
   10MOL    H4511142   2.302   6.232   0.356  0.3976  0.3765 -1.7687
   10MOL    H4611143   2.155   6.252   0.416  1.3402 -0.1214  0.4973
   10MOL    H4711144   2.220   6.023   0.488  1.1010 -1.4453 -0.3508
   10MOL    H4811145   2.097   6.005   0.361 -0.5124  0.4765 -0.1726
   10MOL    H4911146   2.401   6.032   0.319 -0.0291  0.9366 -1.9722
   10MOL    H5011147   2.301   5.978   0.190  2.0180 -0.0038 -0.1176
   10MOL    H5111148   2.402   5.794   0.236 -0.3496  0.4940 -0.7947
   10MOL    H5211149   2.412   5.812   0.418 -3.3388 -0.7021  1.9674
   10MOL    H5311150   2.184   5.725   0.501 -0.3575 -0.8818 -0.0263
   10MOL    H5411151   1.940   5.695   0.382 -0.0578  0.3024  0.2743
   10MOL    H5511152   1.986   5.589   0.500  1.2475  0.3876 -0.0629
   10MOL    H5611153   1.995   5.558   0.204  3.2774 -0.4487 -1.3115
   10MOL    H5711154   1.921   5.444   0.306 -0.3848  1.0696  1.9833
   10MOL    H5811155   2.220   5.465   0.230  0.6691 -1.8846 -0.7198
   10MOL    H5911156   2.099   5.354   0.181  1.8106 -1.6679  0.6024
   10MOL    H6011157   2.215   5.226   0.350 -0.1803 -0.5367  0.2670
   10MOL    H6111158   2.072   5.283   0.423  1.0770 -0.4018  0.3524
   10MOL    H6211159   2.267   5.309   0.574  0.4886 -0.9186 -0.3680
   10MOL    H6311160   2.193   5.462   0.546  1.1872  0.8519 -1.4629
   10MOL    H6411161   2.393   5.529   0.396 -0.3896  0.0438 -0.2606
   10MOL    H6511162   2.430   5.356   0.392 -1.3044 -1.9453  0.3608
   10MOL    H6611163   2.424   5.546   0.632  0.2259 -0.6475  0.3291
   10MOL    C6711164   2.592   5.454   0.577 -0.4356  0.4293  0.1585
   10MOL    O6811165   2.650   5.393   0.490 -0.0243 -0.3291  0.5313
   10MOL    C6911166   2.669   5.526   0.691  0.0839  0.2011 -0.2217
   10MOL    C7011167   2.797   5.600   0.651 -0.4012 -0.1945  1.1320
   10MOL    C7111168   2.884   5.642   0.776  0.0591  0.1672 -0.2763
   10MOL    C7211169   2.955   5.534   0.852 -0.1669  0.4725  0.1487
   10MOL    C7311170   3.067   5.585   0.933 -0.3592  0.5195 -0.2549
   10MOL    C7411171   3.148   5.470   1.007 -0.0262 -0.8835  1.0747
   10MOL    C7511172   3.079   5.413   1.135 -0.0740  0.0169  0.9685
   10MOL    C7611173   3.142   5.302   1.216 -0.5350 -0.1046 -0.2879
   10MOL    C7711174   3.278   5.347   1.279 -0.2806  0.6037  0.3314
   10MOL    C7811175   3.309   5.249   1.399 -0.8533 -0.4926 -0.3338
   10MOL    C7911176   3.413   5.315   1.483 -0.1861  0.2207 -0.1091
   10MOL    O8011177   3.529   5.328   1.441  1.1798 -0.3539  0.4271
   10MOL    N8111178   3.375   5.342   1.609  0.3672 -0.0606 -0.3423
   10MOL    C8211179   3.443   5.430   1.704 -0.3115  0.0264  0.5361
   10MOL    C8311180   3.341   5.533   1.773 -0.2596 -0.1124  0.0909
   10MOL    C8411181   3.399   5.632   1.879 -0.4050  0.4273 -0.4465
   10MOL    C8511182   3.296   5.707   1.954 -0.4961  0.3476 -0.2640
   10MOL    C8611183   3.341   5.795   2.069 -0.0734  0.3256  0.0484
   10MOL    C8711184   3.231   5.831   2.167  1.0349  0.9397 -0.1272
   10MOL    N8811185   3.271   5.943   2.253 -0.2736 -0.6132 -0.4425
   10MOL    H8911186   2.700   5.436   0.745  1.4106 -0.6841 -2.4070
   10MOL    H9011187   2.601   5.585   0.752 -0.4837 -1.1619  0.4788
   10MOL    H9111188   2.856   5.547   0.576  1.0158 -0.7733  2.6198
   10MOL    H9211189   2.776   5.693   0.598  1.3195 -1.2005 -1.4246
   10MOL    H9311190   2.970   5.703   0.749  0.1845  0.1194  0.0133
   10MOL    H9411191   2.827   5.708   0.841 -2.8577 -2.5850  0.0760
   10MOL    H9511192   2.892   5.478   0.921  0.6848  0.8098  1.2135
   10MOL    H9611193   2.977   5.451   0.785  0.1021  0.1083  0.6827
   10MOL    H9711194   3.147   5.613   0.863 -1.0762  0.7524 -0.9915
   10MOL    H9811195   3.040   5.668   0.998  0.0307 -0.5197  1.2498
   10MOL    H9911196   3.173   5.393   0.934 -0.6302 -0.4046  0.3614
   10MOL   H10011197   3.242   5.512   1.044 -0.1720 -0.9950  1.5787
   10MOL   H10111198   2.990   5.362   1.100  1.4373 -2.0690  0.0416
   10MOL   H10211199   3.047   5.498   1.195 -1.1801  0.1372  0.2112
   10MOL   H10311200   3.080   5.271   1.301  1.9406  1.5131  2.1900
   10MOL   H10411201   3.159   5.221   1.145  1.9123 -0.8185  1.0764
   10MOL   H10511202   3.282   5.445   1.326  0.4194  0.8998 -0.3405
   10MOL   H10611203   3.363   5.347   1.211 -0.2182 -0.3785  0.4051
   10MOL   H10711204   3.225   5.216   1.461 -0.0755  5.0300  4.0405
   10MOL   H10811205   3.350   5.155   1.362 -2.8935 -0.6215 -2.4211
   10MOL   H10911206   3.279   5.313   1.621  0.6395 -1.3088 -1.1033
   10MOL   H11011207   3.521   5.490   1.657  0.0536  0.1964  1.3509
   10MOL   H11111208   3.505   5.370   1.770  0.7833 -0.6720 -1.0766
   10MOL   H11211209   3.262   5.478   1.824  1.8091 -2.7538  0.6141
   10MOL   H11311210   3.293   5.589   1.692 -0.0363  2.2005  1.5370
   10MOL   H11411211   3.457   5.704   1.821 -1.6077  2.0728  0.3340
   10MOL   H11511212   3.468   5.581   1.945 -1.1996 -1.1061 -0.7822
   10MOL   H11611213   3.229   5.764   1.889 -2.1858 -1.7057 -0.3790
   10MOL   H11711214   3.237   5.632   2.008 -0.6927 -1.3659 -2.7846
   10MOL   H11811215   3.419   5.735   2.117 -0.0042  0.7737  0.4931
   10MOL   H11911216   3.398   5.882   2.035 -0.8061  0.6770 -0.2825
   10MOL   H12011217   3.139   5.852   2.112  1.2662 -0.1128 -0.9358
   10MOL   H12111218   3.205   5.752   2.239  1.7036 -0.2865 -1.2160
   10MOL   H12211219   3.212   5.935   2.335  1.0589  0.4158  0.6332
   10MOL   H12311220   3.364   5.922   2.286 -0.1273  0.1868 -0.3218
   11MOL     C111221   2.222   0.402   6.443  0.7025  0.0345  0.3434
   11MOL     O211222   2.190   0.520   6.448  0.2555 -0.3419  0.1315
   11MOL     C311223   2.370   0.362   6.430  0.0423 -0.0511 -0.4625
   11MOL     C411224   2.467   0.480   6.411  0.1514  0.1490  0.4666
   11MOL     C511225   2.613   0.427   6.417  0.1103 -0.5577  0.1603
   11MOL     C611226   2.706   0.545   6.447 -0.0440  0.2285  0.9653
   11MOL     C711227   2.752   0.625   6.317 -0.0206  0.1716  0.5091
   11MOL     C811228   2.826   0.751   6.353 -0.3495  0.3242  0.1110
   11MOL     C911229   2.859   0.834   6.229 -0.2633  0.7124 -0.6685
   11MOL    C1011230   2.927   0.967   6.264  0.1211  0.1562  0.7862
   11MOL    C1111231   2.944   1.055   6.138 -0.7198 -0.4502  0.4069
   11MOL    C1211232   2.971   1.202   6.174  0.8898  0.6412  0.2104
   11MOL    C1311233   2.929   1.289   6.061  0.3396  0.4346  0.3681
   11MOL    O1411234   2.813   1.297   6.024 -0.1866 -0.2233  0.0895
   11MOL    N1511235   3.032   1.357   5.997 -0.4494  0.8803  0.3228
   11MOL    C1611236   3.019   1.460   5.893 -0.1646 -0.2625  0.4723
   11MOL    C1711237   3.161   1.521   5.882 -0.7042  0.4817 -0.4433
   11MOL    C1811238   3.163   1.630   5.773  0.2358 -0.4540 -0.2176
   11MOL    C1911239   3.283   1.734   5.773  0.5586  0.4390 -0.0184
   11MOL    C2011240   3.310   1.793   5.634 -0.9317  0.1807  0.6215
   11MOL    C2111241   3.202   1.877   5.570 -0.2761  1.2344 -0.1527
   11MOL    N2211242   3.249   1.941   5.448  0.5390  0.0770 -0.2200
   11MOL    H2311243   2.380   0.287   6.351 -0.2321 -0.9680  0.3707
   11MOL    H2411244   2.400   0.309   6.520 -3.6169 -0.5698  0.5296
   11MOL    H2511245   2.428   0.549   6.486 -0.4766  0.0583  0.2261
   11MOL    H2611246   2.442   0.505   6.308 -2.7096 -3.5600  0.1457
   11MOL    H2711247   2.638   0.389   6.317  0.1175 -0.6922  0.2136
   11MOL    H2811248   2.620   0.345   6.488  0.0519 -0.8530 -0.1741
   11MOL    H2911249   2.653   0.604   6.522 -0.7786  0.1345  0.5189
   11MOL    H3011250   2.792   0.498   6.496  0.0848  1.6910  2.1749
   11MOL    H3111251   2.669   0.645   6.249  0.5236  2.3662  0.4279
   11MOL    H3211252   2.810   0.556   6.255 -0.5853  1.2227 -1.2443
   11MOL    H3311253   2.768   0.813   6.421 -0.7239  0.8379 -0.6724
   11MOL    H3411254   2.919   0.743   6.410 -0.3241  2.0122  0.3193
   11MOL    H3511255   2.934   0.790   6.163  0.4750  1.4319 -0.3222
   11MOL    H3611256   2.764   0.846   6.176 -1.6694 -0.9257  1.4315
   11MOL    H3711257   2.862   1.022   6.332 -0.9390  1.2710 -1.0764
   11MOL    H3811258   3.024   0.958   6.313 -0.4117  0.4348  1.9233
   11MOL    H3911259   2.849   1.048   6.084 -1.6917  2.6155  1.6200
   11MOL    H4011260   3.022   1.022   6.070 -2.1179 -2.7921 -0.1248
   11MOL    H4111261   2.910   1.229   6.261 -1.2776  0.0908 -1.1023
   11MOL    H4211262   3.076   1.202   6.203  0.6943 -0.5912  0.9555
   11MOL    H4311263   3.126   1.336   6.028 -0.2065  2.4242  0.6896
   11MOL    H4411264   2.948   1.534   5.928  3.4054  2.8423  1.4314
   11MOL    H4511265   2.987   1.416   5.798  1.6626 -0.3052 -0.1424
   11MOL    H4611266   3.239   1.448   5.859 -0.2599  0.5518  0.7833
   11MOL    H4711267   3.184   1.574   5.975 -0.9026  1.1328 -0.7628
   11MOL    H4811268   3.148   1.576   5.679 -1.3218 -0.2427 -0.0944
   11MOL    H4911269   3.068   1.684   5.777  0.7927  0.3702  2.5686
   11MOL    H5011270   3.371   1.677   5.804 -1.3311 -1.0059  2.8736
   11MOL    H5111271   3.285   1.813   5.848 -0.4038  0.5260 -0.0867
   11MOL    H5211272   3.406   1.843   5.643  0.4879 -2.1482 -1.1202
   11MOL    H5311273   3.317   1.706   5.568 -0.6606  0.1037  0.7520
   11MOL    H5411274   3.110   1.822   5.551  0.2874  0.8514 -1.8989
   11MOL    H5511275   3.163   1.955   5.636 -0.5714  3.3998 -2.8051
   11MOL    H5611276   3.337   1.908   5.410 -0.7924 -2.8380 -0.9012
   11MOL    H5711277   2.155   0.319   6.419  1.3028 -0.6245  0.9314
   11MOL    C5811278   3.186   2.040   5.385  0.4180  0.1300  0.4914
   11MOL    O5911279   3.084   2.087   5.425  0.4682 -0.4386  0.4145
   11MOL    C6011280   3.250   2.088   5.261  0.8363 -0.1758 -0.5951
   11MOL    C6111281   3.184   2.202   5.185  0.6049  0.2114 -0.2242
   11MOL    C6211282   3.177   2.342   5.251  0.2067  0.2604  0.0571
   11MOL    C6311283   3.309   2.413   5.233  0.5051  0.1953  0.2721
   11MOL    C6411284   3.344   2.528   5.329  0.1272 -0.1283  0.1773
   11MOL    C6511285   3.486   2.564   5.300  0.6532  0.4557  0.3653
   11MOL    C6611286   3.548   2.666   5.393  0.0644  0.4374 -0.2240
   11MOL    C6711287   3.691   2.713   5.349  0.1617  0.7217 -0.3152
   11MOL    C6811288   3.753   2.804   5.464  0.0208  0.2946 -0.3658
   11MOL    C6911289   3.900   2.841   5.433  0.1696 -0.3202 -0.3165
   11MOL    C7011290   3.912   2.968   5.352  0.2074 -0.1807  0.0310
   11MOL    O7111291   3.822   3.039   5.318 -0.0257 -0.8957  0.4915
   11MOL    N7211292   4.035   3.007   5.326  0.1006  0.0616 -0.2378
   11MOL    C7311293   4.078   3.126   5.253  0.0119  0.2306 -0.3094
   11MOL    C7411294   4.056   3.104   5.098 -0.1719  0.1926  0.5409
   11MOL    C7511295   4.121   3.206   5.005 -0.6607 -0.7582  0.9898
   11MOL    C7611296   4.093   3.174   4.856  0.1669  0.3891 -0.2235
   11MOL    C7711297   4.219   3.189   4.771  0.1694 -0.0186 -0.1716
   11MOL    C7811298   4.307   3.061   4.764 -0.1227  0.7688  0.0873
   11MOL    N7911299   4.425   3.082   4.685 -0.3334 -0.6668 -0.6390
   11MOL    H8011300   3.267   2.002   5.195  1.1548 -0.8444  0.3433
   11MOL    H8111301   3.349   2.121   5.295  0.6201 -0.2345  0.0856
   11MOL    H8211302   3.237   2.214   5.090  1.8139  2.5345  0.6951
   11MOL    H8311303   3.090   2.160   5.151  1.1964 -0.0930 -1.5365
   11MOL    H8411304   3.157   2.308   5.353  2.6081  1.9700  1.1368
   11MOL    H8511305   3.095   2.407   5.224  0.6130  0.4766 -0.6576
   11MOL    H8611306   3.314   2.456   5.133  0.5327  0.9814  0.6097
   11MOL    H8711307   3.389   2.338   5.242 -0.4483 -0.9001 -0.2907
   11MOL    H8811308   3.276   2.611   5.311  1.1541  0.7598  0.3796
   11MOL    H8911309   3.335   2.501   5.435  1.1821  1.8373  0.8009
   11MOL    H9011310   3.497   2.600   5.198  0.7950  1.3084  0.6734
   11MOL    H9111311   3.556   2.481   5.301  0.2279  0.1006  0.8426
   11MOL    H9211312   3.558   2.631   5.495 -1.3868  2.7967  0.7939
   11MOL    H9311313   3.491   2.759   5.384  0.2696  0.6070  0.2119
   11MOL    H9411314   3.750   2.625   5.324  0.1619  0.6289  0.0077
   11MOL    H9511315   3.689   2.780   5.264 -1.1319  0.0643 -0.8140
   11MOL    H9611316   3.745   2.771   5.567 -0.4408 -0.2055 -0.5551
   11MOL    H9711317   3.706   2.903   5.468 -0.9043 -0.1505 -0.1041
   11MOL    H9811318   3.964   2.846   5.522  0.4071 -1.9962 -0.3820
   11MOL    H9911319   3.941   2.756   5.378 -1.1577 -0.1281 -1.6277
   11MOL   H10011320   4.110   2.947   5.356  1.5836  2.1833  0.3457
   11MOL   H10111321   4.183   3.139   5.277  0.4446 -2.2145 -0.7849
   11MOL   H10211322   4.016   3.211   5.283 -1.5764 -1.1464  0.3942
   11MOL   H10311323   4.111   3.014   5.073  0.7080  0.6931  0.6483
   11MOL   H10411324   3.953   3.084   5.071 -0.1410  0.7300  0.0257
   11MOL   H10511325   4.229   3.213   5.014 -0.7428  1.6634  0.3301
   11MOL   H10611326   4.083   3.307   5.017 -2.1013 -1.1836  0.1583
   11MOL   H10711327   4.041   3.079   4.838  0.0423  0.0259  1.9481
   11MOL   H10811328   4.028   3.252   4.819 -1.5818 -0.2384  1.4425
   11MOL   H10911329   4.284   3.266   4.811 -0.9360  1.0263 -0.3746
   11MOL   H11011330   4.174   3.193   4.672 -1.9893 -0.9917  0.7321
   11MOL   H11111331   4.257   2.976   4.718  1.2589  0.5398 -1.0400
   11MOL   H11211332   4.346   3.034   4.863 -1.1947 -0.3602  0.2135
   11MOL   H11311333   4.450   3.178   4.669 -1.6344  0.0436  1.4516
   11MOL   C11411334   4.491   2.979   4.626  0.7405 -0.4819  0.2826
   11MOL   O11511335   4.455   2.862   4.635  0.7015  0.4729  0.0505
   11MOL   C11611336   4.624   3.017   4.562 -0.1492  0.4019  0.2551
   11MOL   C11711337   4.705   2.894   4.505 -0.1363 -0.4410 -0.5593
   11MOL   C11811338   4.649   2.829   4.377 -0.2713 -0.4022 -0.4233
   11MOL   C11911339   4.740   2.716   4.329  0.4514  0.7548  0.1748
   11MOL   C12011340   4.671   2.637   4.215  0.0188  0.6426 -0.4523
   11MOL   C12111341   4.651   2.710   4.082 -0.1976 -0.4842  0.1389
   11MOL   C12211342   4.546   2.640   4.008  0.5124 -0.5214  0.3623
   11MOL   C12311343   4.557   2.661   3.853 -0.2538 -0.8935  0.4039
   11MOL   C12411344   4.443   2.603   3.776 -0.6340 -0.2769 -0.0535
   11MOL   C12511345   4.430   2.651   3.636 -0.7287  0.3134 -0.6126
   11MOL   C12611346   4.328   2.770   3.612 -0.5888  0.4709  0.0516
   11MOL   O12711347   4.297   2.848   3.700  0.3345 -0.2011  0.0663
   11MOL   N12811348   4.279   2.783   3.488 -0.0613 -0.0972 -0.7706
   11MOL   C12911349   4.226   2.910   3.427  0.0371  0.3041  0.2781
   11MOL   C13011350   4.075   2.890   3.398 -0.6267  0.1797  0.6518
   11MOL   C13111351   4.015   2.987   3.298 -0.2595  0.0712 -1.0666
   11MOL   C13211352   3.889   2.924   3.224 -0.1626 -0.3161 -0.5680
   11MOL   C13311353   3.763   2.919   3.311  0.0505 -0.2253 -0.4070
   11MOL   C13411354   3.642   2.859   3.239  0.0586 -0.0807 -0.0512
   11MOL   N13511355   3.619   2.720   3.250 -0.1330  0.4482 -0.1597
   11MOL   H13611356   4.612   3.094   4.486 -2.5907 -0.1125  0.0763
   11MOL   H13711357   4.683   3.067   4.639  0.0588  1.1700 -0.3982
   11MOL   H13811358   4.707   2.818   4.582  1.6945  1.2552  1.1243
   11MOL   H13911359   4.805   2.934   4.493 -0.6533  1.2080  0.4956
   11MOL   H14011360   4.546   2.804   4.399  0.4117 -1.3496  1.7881
   11MOL   H14111361   4.658   2.905   4.299  0.3289  0.0009  0.0332
   11MOL   H14211362   4.839   2.755   4.305 -0.2364  1.6309 -1.2349
   11MOL   H14311363   4.762   2.650   4.414 -0.8460  1.6780  1.2515
   11MOL   H14411364   4.730   2.546   4.209 -1.6036 -0.5244  1.0322
   11MOL   H14511365   4.574   2.600   4.248  0.3216 -0.9403 -1.2911
   11MOL   H14611366   4.737   2.710   4.015 -0.7575 -0.8459 -0.5791
   11MOL   H14711367   4.622   2.815   4.092 -1.5837 -0.6743 -1.6780
   11MOL   H14811368   4.539   2.533   4.032  1.0114 -0.5994  0.1677
   11MOL   H14911369   4.449   2.679   4.036  1.6903  2.7369  0.1064
   11MOL   H15011370   4.651   2.613   3.827  0.7836  2.3708 -2.3174
   11MOL   H15111371   4.566   2.769   3.837 -2.7492 -0.3766  2.3417
   11MOL   H15211372   4.343   2.602   3.820 -0.2906 -0.0552  0.7433
   11MOL   H15311373   4.463   2.496   3.779  0.3137 -0.1391 -1.4419
   11MOL   H15411374   4.388   2.568   3.579  0.2423  0.0230 -0.9202
   11MOL   H15511375   4.525   2.669   3.586  0.0696 -2.0508 -0.0177
   11MOL   H15611376   4.315   2.712   3.426  0.9446 -0.3435  0.0701
   11MOL   H15711377   4.285   2.945   3.343 -0.7336 -0.4073 -0.5632
   11MOL   H15811378   4.238   2.986   3.504  2.1574 -1.0438  1.3563
   11MOL   H15911379   4.027   2.899   3.495  0.3667  1.2429  1.0502
   11MOL   H16011380   4.063   2.788   3.360  1.1229 -0.4792  1.7798
   11MOL   H16111381   4.000   3.088   3.336 -0.8777 -0.3410 -0.2105
   11MOL   H16211382   4.089   2.999   3.218  2.4360 -0.3460  1.2766
   11MOL   H16311383   3.870   2.991   3.141  1.0833 -0.9585 -1.3922
   11MOL   H16411384   3.899   2.823   3.185  1.4429  0.1302 -1.3743
   11MOL   H16511385   3.744   3.020   3.345 -1.1246 -0.3996 -0.5291
   11MOL   H16611386   3.782   2.866   3.404 -1.9532  1.6832  1.1309
   11MOL   H16711387   3.561   2.905   3.295  1.3270  1.3767  0.6286
   11MOL   H16811388   3.642   2.909   3.142 -2.0296 -1.3751 -0.7625
   11MOL   H16911389   3.555   2.675   3.314  2.5621 -3.2116  0.1063
   11MOL   C17011390   3.678   2.636   3.166  0.4916 -0.3409  0.5934
   11MOL   O17111391   3.758   2.663   3.077 -0.4303 -0.2196 -0.4792
   11MOL   C17211392   3.640   2.491   3.190  0.0543 -0.2195  0.6882
   11MOL   C17311393   3.669   2.393   3.072 -0.4594  0.2724  0.2975
   11MOL   C17411394   3.610   2.255   3.088  0.4512  0.0119  0.1562
   11MOL   C17511395   3.464   2.251   3.045  0.0129  0.0501  0.2052
   11MOL   C17611396   3.416   2.115   3.004 -0.4688  0.3573  0.4013
   11MOL   C17711397   3.276   2.103   2.938  0.8086 -0.2012  0.0815
   11MOL   C17811398   3.232   1.961   2.891  0.2616  0.1617  0.2737
   11MOL   C17911399   3.113   1.968   2.786  0.4221 -0.0487  0.2978
   11MOL   C18011400   3.073   1.829   2.727  0.6359 -0.5237  0.0591
   11MOL   C18111401   3.170   1.743   2.637 -0.4169 -0.2056 -0.8010
   11MOL   C18211402   3.248   1.828   2.542  0.5635  0.2762 -0.4403
   11MOL   O18311403   3.348   1.878   2.581 -0.4188 -0.0995  0.1227
   11MOL   N18411404   3.199   1.849   2.415 -0.3630 -0.4234 -0.1617
   11MOL   C18511405   3.265   1.933   2.319  0.5492 -0.8321 -0.2122
   11MOL   C18611406   3.176   2.060   2.281  0.2692  0.4847 -0.2580
   11MOL   C18711407   3.249   2.150   2.180  0.0516 -0.8723  0.5526
   11MOL   C18811408   3.175   2.281   2.144  0.2438 -0.0954  0.4993
   11MOL   C18911409   3.265   2.376   2.065  0.2816 -0.5265  0.0641
   11MOL   C19011410   3.190   2.482   1.984  0.0604 -0.1455  0.7206
   11MOL   N19111411   3.271   2.533   1.877 -0.1684  0.1997 -0.1235
   11MOL   H19211412   3.680   2.450   3.283 -1.7428 -1.4871  0.9452
   11MOL   H19311413   3.533   2.484   3.212 -0.3148  0.2367 -0.8922
   11MOL   H19411414   3.777   2.387   3.058 -0.3636 -1.2255  1.6386
   11MOL   H19511415   3.638   2.445   2.981  2.1368  0.6837 -0.3869
   11MOL   H19611416   3.639   2.198   3.176  0.7255  2.5211  1.7410
   11MOL   H19711417   3.650   2.206   2.999  0.0875 -1.4943  0.8122
   11MOL   H19811418   3.401   2.292   3.124 -1.2064 -0.7910 -0.3172
   11MOL   H19911419   3.446   2.315   2.958 -0.7426 -0.4080  0.0232
   11MOL   H20011420   3.492   2.068   2.942 -0.6697  1.7708 -0.9461
   11MOL   H20111421   3.422   2.057   3.097 -0.7720  0.5011  0.5134
   11MOL   H20211422   3.270   2.179   2.860 -1.3719 -0.2551  0.1572
   11MOL   H20311423   3.212   2.130   3.022  0.1008  0.3365 -0.6214
   11MOL   H20411424   3.312   1.904   2.843 -0.9785 -1.7210  0.4159
   11MOL   H20511425   3.213   1.899   2.978  0.6319  1.5556  1.3482
   11MOL   H20611426   3.035   2.036   2.820  0.0979 -0.0235 -0.5003
   11MOL   H20711427   3.154   2.017   2.698 -3.3890  3.4192  0.3456
   11MOL   H20811428   3.000   1.865   2.655  0.8670  0.5743  0.3690
   11MOL   H20911429   3.026   1.772   2.807 -0.1332  0.3092  0.2050
   11MOL   H21011430   3.243   1.689   2.697  0.1758 -0.7692 -2.0075
   11MOL   H21111431   3.109   1.674   2.579 -0.2916  1.6543 -3.2460
   11MOL   H21211432   3.112   1.806   2.388  0.9691 -0.1360 -5.5428
   11MOL   H21311433   3.305   1.876   2.235  1.4502 -1.3514  0.5611
   11MOL   H21411434   3.358   1.970   2.362  0.5812  0.0906 -1.0469
   11MOL   H21511435   3.079   2.029   2.244 -0.1720  1.7669 -0.1915
   11MOL   H21611436   3.161   2.118   2.372 -1.0207 -1.0027  0.4976
   11MOL   H21711437   3.345   2.173   2.226 -0.3108  0.9664  0.4208
   11MOL   H21811438   3.268   2.082   2.097  2.6399 -1.9222  1.9610
   11MOL   H21911439   3.128   2.315   2.237  1.0810 -1.3912  1.4197
   11MOL   H22011440   3.091   2.252   2.080 -0.4603 -1.5817  2.0506
   11MOL   H22111441   3.312   2.305   1.997  0.8424 -0.7226  0.6530
   11MOL   H22211442   3.335   2.421   2.135 -0.5909 -1.1052  1.3356
   11MOL   H22311443   3.163   2.568   2.045  0.6741  0.8615 -0.4152
   11MOL   H22411444   3.090   2.450   1.954 -0.4230  1.4357  0.6155
   11MOL   H22511445   3.335   2.611   1.889 -0.3582  0.4423 -0.6627
   11MOL   C22611446   3.284   2.470   1.760 -0.6801 -0.6321 -0.5790
   11MOL   O22711447   3.211   2.375   1.724  0.0784 -0.1865 -0.1682
   11MOL   C22811448   3.382   2.525   1.662 -0.0291 -0.1190  0.2082
   11MOL   C22911449   3.498   2.430   1.628 -0.3483  1.2587 -0.3514
   11MOL   C23011450   3.564   2.360   1.752 -0.4591 -0.0995  0.7561
   11MOL   C23111451   3.694   2.300   1.702 -1.3941 -0.4888  0.1571
   11MOL   C23211452   3.810   2.400   1.657 -0.2452  0.1197  0.0349
   11MOL   C23311453   3.847   2.484   1.777 -0.4497  0.5594  0.3029
   11MOL   C23411454   3.982   2.554   1.741  0.2639  0.0860 -0.1646
   11MOL   C23511455   4.045   2.652   1.835 -0.6133 -0.5473 -0.4885
   11MOL   C23611456   4.105   2.778   1.773 -0.0342  0.1856 -0.3633
   11MOL   C23711457   4.115   2.905   1.865 -0.2026 -0.0856  0.2200
   11MOL   C23811458   4.144   3.026   1.775  0.3052  0.3814 -0.6496
   11MOL   O23911459   4.054   3.081   1.713 -0.4622 -0.3011 -0.1624
   11MOL   N24011460   4.269   3.068   1.769  0.7389 -0.2327  0.3603
   11MOL   C24111461   4.316   3.173   1.677 -0.0499  0.3158 -0.0580
   11MOL   C24211462   4.437   3.123   1.590 -0.5013 -0.1572 -0.8767
   11MOL   C24311463   4.482   3.224   1.479 -0.0629  0.1308  0.3948
   11MOL   C24411464   4.616   3.184   1.417  0.0816 -0.3273 -0.3679
   11MOL   C24511465   4.668   3.286   1.314  0.0376  1.1334 -0.3918
   11MOL   C24611466   4.796   3.236   1.243  0.5872 -0.2382 -0.5560
   11MOL   N24711467   4.914   3.214   1.329  0.7232  0.3613 -0.6185
   11MOL   H24811468   3.420   2.614   1.713 -3.0886  0.7726  1.0457
   11MOL   H24911469   3.330   2.562   1.574  1.9650 -1.9255 -1.7773
   11MOL   H25011470   3.459   2.346   1.570  1.7749 -1.1219  1.5647
   11MOL   H25111471   3.570   2.480   1.563 -2.3574  2.2162 -1.8776
   11MOL   H25211472   3.577   2.433   1.831 -1.5846 -1.8266  2.5741
   11MOL   H25311473   3.506   2.274   1.786  0.0226 -1.8273 -2.5378
   11MOL   H25411474   3.683   2.225   1.624 -2.0727  0.6874 -0.9045
   11MOL   H25511475   3.734   2.250   1.790 -0.9111 -0.6303 -0.1460
   11MOL   H25611476   3.773   2.460   1.574 -1.0504 -0.3001  0.0911
   11MOL   H25711477   3.894   2.333   1.636  0.0813  0.4811  0.1688
   11MOL   H25811478   3.774   2.556   1.814  1.7862  2.8583  0.4813
   11MOL   H25911479   3.877   2.418   1.858  0.6358  1.9286  1.0505
   11MOL   H26011480   3.961   2.605   1.647 -2.7808  1.3100  1.1244
   11MOL   H26111481   4.061   2.485   1.712 -0.1787  0.2476 -1.7898
   11MOL   H26211482   3.972   2.694   1.904 -0.3092 -1.7358  0.5834
   11MOL   H26311483   4.113   2.592   1.896 -2.1293 -2.1794 -0.3432
   11MOL   H26411484   4.200   2.753   1.726  0.9564  2.5997  0.2428
   11MOL   H26511485   4.042   2.811   1.690  0.8590  1.2901 -0.6220
   11MOL   H26611486   4.021   2.910   1.919  0.0107 -0.3026  0.6183
   11MOL   H26711487   4.198   2.894   1.935 -0.2389  0.9295  0.4257
   11MOL   H26811488   4.338   3.021   1.825  0.9964 -1.9110 -1.3299
   11MOL   H26911489   4.343   3.264   1.730 -0.1538  0.5790 -0.4585
   11MOL   H27011490   4.238   3.203   1.606 -0.9887 -0.0639  0.7956
   11MOL   H27111491   4.421   3.020   1.558 -0.3608 -0.2945 -0.5084
   11MOL   H27211492   4.518   3.110   1.662 -0.0168 -2.9966 -1.8681
   11MOL   H27311493   4.402   3.234   1.406  0.6460  0.2508 -0.3706
   11MOL   H27411494   4.497   3.322   1.523 -1.8987  1.2735 -1.4224
   11MOL   H27511495   4.612   3.084   1.375  0.9014 -1.8110  2.9142
   11MOL   H27611496   4.692   3.171   1.494 -1.0346  0.8797  0.9703
   11MOL   H27711497   4.691   3.380   1.364 -2.1657  1.0271  0.8955
   11MOL   H27811498   4.592   3.317   1.242 -0.9985 -1.0462 -0.2660
   11MOL   H27911499   4.830   3.310   1.170 -0.3886  1.0546  0.2828
   11MOL   H28011500   4.764   3.156   1.176 -1.4826  0.0061  0.1002
   11MOL   H28111501   4.929   3.271   1.412  1.8627  1.6085 -1.6609
   11MOL   C28211502   5.024   3.152   1.283 -0.3935 -0.2310 -0.4955
   11MOL   O28311503   5.048   3.118   1.168  0.0083  0.5115  0.8195
   11MOL   C28411504   5.122   3.122   1.395 -0.6649  1.1314  0.1464
   11MOL   C28511505   5.218   3.005   1.381 -0.3351  0.0405 -0.7617
   11MOL   C28611506   5.148   2.867   1.377  0.3832 -0.8769 -0.1831
   11MOL   C28711507   5.251   2.761   1.348 -0.7946 -0.2060 -0.4385
   11MOL   C28811508   5.210   2.611   1.375 -0.7421 -0.1617  0.5251
   11MOL   C28911509   5.332   2.520   1.402 -0.3116 -0.0418  0.6197
   11MOL   C29011510   5.443   2.538   1.301  0.1759  0.8431  0.2640
   11MOL   C29111511   5.548   2.425   1.316 -0.2750 -0.2563 -0.3181
   11MOL   C29211512   5.656   2.421   1.202  0.3550 -0.3785  0.8060
   11MOL   C29311513   5.629   2.344   1.080 -0.0725 -1.0326 -0.7990
   11MOL   C29411514   5.623   2.188   1.091  0.7140 -0.4816  0.4278
   11MOL   O29511515   5.603   2.136   1.202  0.6709 -0.1206  0.7354
   11MOL   N29611516   5.639   2.115   0.983  0.3139 -0.4655 -0.0665
   11MOL   C29711517   5.617   1.971   0.979  0.3386 -0.4961 -0.0542
   11MOL   C29811518   5.740   1.890   1.018 -0.3764 -0.6555  0.2549
   11MOL   C29911519   5.705   1.739   0.997  0.3504  0.0571  0.1406
   11MOL   C30011520   5.786   1.646   1.091 -0.1286 -0.2260  0.2053
   11MOL   C30111521   5.928   1.617   1.046 -0.5493 -0.2140  0.4585
   11MOL   C30211522   6.031   1.731   1.079  0.3999  0.3616 -0.1435
   11MOL   N30311523   6.171   1.694   1.100 -0.0436 -0.4646 -0.0491
   11MOL   H30411524   5.188   3.209   1.394  2.3784 -1.0920 -1.1047
   11MOL   H30511525   5.073   3.113   1.492 -2.0884 -0.4015 -0.6947
   11MOL   H30611526   5.289   3.014   1.464 -1.9118  2.6504  0.3540
   11MOL   H30711527   5.267   3.007   1.284 -1.2598 -0.8140 -1.2540
   11MOL   H30811528   5.107   2.861   1.478  0.9100  0.9666  0.1568
   11MOL   H30911529   5.065   2.867   1.306  0.0459  2.3915  0.1478
   11MOL   H31011530   5.335   2.791   1.411  1.7769 -1.7525 -2.9657
   11MOL   H31111531   5.289   2.781   1.248  1.5518 -4.5931 -0.5853
   11MOL   H31211532   5.150   2.615   1.466  1.9103 -1.8856  2.3894
   11MOL   H31311533   5.151   2.584   1.287  0.0986 -0.2924  0.0019
   11MOL   H31411534   5.371   2.526   1.503  1.5458 -0.8533 -0.0212
   11MOL   H31511535   5.300   2.416   1.396  0.4038 -0.1876 -0.8679
   11MOL   H31611536   5.481   2.640   1.301 -2.1705  1.7417  2.0123
   11MOL   H31711537   5.386   2.520   1.209 -0.8346  0.0483  1.0332
   11MOL   H31811538   5.493   2.331   1.319  3.3918 -2.4935 -0.3946
   11MOL   H31911539   5.588   2.446   1.415  1.1922 -0.1513 -0.9259
   11MOL   H32011540   5.670   2.525   1.171  1.0708 -0.5571  0.5339
   11MOL   H32111541   5.748   2.386   1.248  2.1618  0.6598 -1.8770
   11MOL   H32211542   5.540   2.382   1.030 -0.8211 -1.5161  0.1474
   11MOL   H32311543   5.714   2.363   1.014  0.2242  3.0082  0.6144
   11MOL   H32411544   5.663   2.157   0.894 -1.0065  0.4764  0.0096
   11MOL   H32511545   5.581   1.940   0.881  2.8020  0.3680 -1.2846
   11MOL   H32611546   5.523   1.951   1.031 -0.4122  1.8882 -0.4295
   11MOL   H32711547   5.761   1.913   1.123 -0.1234  1.9082 -0.3408
   11MOL   H32811548   5.828   1.912   0.959 -0.5519  1.2951  0.6860
   11MOL   H32911549   5.723   1.716   0.892 -0.0368 -2.0434  0.5207
   11MOL   H33011550   5.597   1.725   1.003  0.2985 -0.6115 -2.1420
   11MOL   H33111551   5.795   1.688   1.191 -0.6580 -2.7191  1.3222
   11MOL   H33211552   5.731   1.553   1.097  0.3977 -0.5971 -0.5969
   11MOL   H33311553   5.934   1.591   0.940  1.1052 -2.9153  1.1511
   11MOL   H33411554   5.954   1.523   1.095  0.3084  0.9659  2.3339
   11MOL   H33511555   6.037   1.799   0.994  1.5785 -1.2126 -1.3678
   11MOL   H33611556   5.999   1.792   1.164  3.4134  2.2885 -0.2866
   11MOL   H33711557   6.200   1.601   1.076  0.9149  0.0591 -0.9666
   11MOL   C33811558   6.269   1.785   1.130  0.3285  0.0243  0.1293
   11MOL   O33911559   6.247   1.904   1.159  0.0030  0.3781  0.0483
   11MOL   C34011560   6.410   1.730   1.139  0.5461 -0.3227 -0.1569
   11MOL   C34111561   6.453   1.732   1.288  0.2198  0.1743 -0.3985
   11MOL   C34211562   6.579   1.657   1.313  0.1502  0.0658 -0.7157
   11MOL   C34311563   6.621   1.647   1.456 -0.3895 -0.4013  0.5261
   11MOL   C34411564   6.765   1.583   1.478  0.5038 -0.6084  0.1544
   11MOL   C34511565   6.831   1.633   1.608  0.6473 -0.0391  0.2495
   11MOL   C34611566   6.981   1.603   1.612  0.3566 -0.5234  0.5901
   11MOL   C34711567   7.047   1.664   1.736 -0.0575  0.4703 -0.0621
   11MOL   C34811568   7.206   1.656   1.744  0.0297 -0.3125  0.5388
   11MOL   C34911569   7.283   1.763   1.667  0.3201  0.1471  0.1469
   11MOL   C35011570   7.273   1.746   1.514 -0.0612  0.4099 -0.1315
   11MOL   O35111571   7.282   1.637   1.458 -0.0964 -0.2904 -0.3667
   11MOL   N35211572   7.245   1.859   1.451 -0.3918 -0.2646 -0.1557
   11MOL   C35311573   7.221   1.882   1.305 -0.3063  0.3629  0.1130
   11MOL   C35411574   7.077   1.838   1.270 -0.0814  0.0197 -0.0315
   11MOL   C35511575   7.043   1.869   1.124  0.3027  0.2852 -0.0160
   11MOL   C35611576   6.890   1.878   1.096 -0.6173  0.0935 -0.4986
   11MOL   C35711577   6.876   1.885   0.950 -0.6065 -0.8303  1.2478
   11MOL   C35811578   6.733   1.920   0.894 -0.1722 -0.1621 -0.3002
   11MOL   N35911579   6.728   1.944   0.754  0.1101 -1.0648  0.2153
   11MOL   H36011580   6.475   1.793   1.078  1.6086 -1.7691 -0.5234
   11MOL   H36111581   6.426   1.635   1.090 -0.1740 -0.8740  0.6705
   11MOL   H36211582   6.473   1.837   1.307 -1.2043  0.2775  0.5363
   11MOL   H36311583   6.377   1.692   1.355  1.3790 -1.5109 -0.0567
   11MOL   H36411584   6.662   1.707   1.264  0.5028  1.6105  1.4048
   11MOL   H36511585   6.552   1.554   1.289 -1.1170  0.2718 -0.2103
   11MOL   H36611586   6.618   1.751   1.487  2.8620  0.1771 -0.9555
   11MOL   H36711587   6.545   1.598   1.518 -0.4755  0.7307  1.3436
   11MOL   H36811588   6.773   1.475   1.475 -1.7606 -0.7971  0.5537
   11MOL   H36911589   6.828   1.626   1.399  1.9227 -0.3978  1.3648
   11MOL   H37011590   6.816   1.740   1.615  2.6640  0.4547 -2.1771
   11MOL   H37111591   6.792   1.582   1.696 -2.2042 -0.6556 -1.3245
   11MOL   H37211592   7.001   1.495   1.614  0.5760 -0.5675 -2.3179
   11MOL   H37311593   7.019   1.635   1.515 -3.1328 -1.0401 -1.0124
   11MOL   H37411594   7.018   1.769   1.747 -0.2780  0.3755  0.2712
   11MOL   H37511595   6.996   1.612   1.817 -1.1242  0.2737 -0.8416
   11MOL   H37611596   7.231   1.557   1.706 -0.8462  0.5128 -2.3214
   11MOL   H37711597   7.233   1.656   1.849  1.3202 -1.0449  0.2098
   11MOL   H37811598   7.234   1.858   1.690  0.4920  0.0718  0.8299
   11MOL   H37911599   7.388   1.777   1.692  0.9403  0.2669 -2.4118
   11MOL   H38011600   7.226   1.943   1.503  2.7766  1.0074 -0.9141
   11MOL   H38111601   7.293   1.827   1.244  0.1666 -0.8405  1.7285
   11MOL   H38211602   7.245   1.987   1.287 -1.5972  0.6179 -0.1278
   11MOL   H38311603   6.993   1.879   1.326 -1.1723  0.3964 -1.8719
   11MOL   H38411604   7.064   1.730   1.280  2.3772 -0.1366  2.1575
   11MOL   H38511605   7.089   1.961   1.089  1.5934 -2.1876 -5.2312
   11MOL   H38611606   7.080   1.799   1.050  1.1564  0.5494  0.1583
   11MOL   H38711607   6.838   1.798   1.147  0.3670  0.0858  0.5148
   11MOL   H38811608   6.841   1.968   1.134 -0.8559 -0.0529 -0.4600
   11MOL   H38911609   6.899   1.787   0.910 -1.6496 -0.5315 -0.1423
   11MOL   H39011610   6.952   1.955   0.917 -2.4071  0.0657 -1.1768
   11MOL   H39111611   6.666   1.837   0.913  1.3233 -1.0233  1.4217
   11MOL   H39211612   6.688   2.004   0.947  0.0470  0.0088 -0.3831
   11MOL   H39311613   6.704   1.860   0.702  0.2718 -1.4085  0.6883
   11MOL   C39411614   6.778   2.052   0.687  0.3503 -0.8825 -0.1665
   11MOL   O39511615   6.789   2.049   0.566  0.2335  0.2568  0.0371
   11MOL   C39611616   6.835   2.179   0.754  0.0363 -0.3571 -1.2869
   11MOL   C39711617   6.751   2.306   0.737  0.4991  0.1165 -0.2990
   11MOL   C39811618   6.616   2.293   0.813  0.1551  0.0093 -0.2777
   11MOL   C39911619   6.525   2.420   0.782  0.0460 -0.3107 -0.1781
   11MOL   C40011620   6.382   2.407   0.835 -0.2431  0.2836 -0.0600
   11MOL   C40111621   6.300   2.305   0.759 -0.1176  0.3062 -0.9271
   11MOL   C40211622   6.166   2.267   0.823  0.3337  0.3833 -0.7353
   11MOL   C40311623   6.158   2.200   0.961  0.5310 -0.1445 -0.2365
   11MOL   C40411624   6.012   2.197   1.006 -0.4150 -0.3410  0.0860
   11MOL   C40511625   5.987   2.141   1.151  0.1130 -0.0371  0.0756
   11MOL   C40611626   6.081   2.216   1.251 -0.1079  0.0093  0.0223
   11MOL   O40711627   6.046   2.328   1.299  0.2321  0.1254 -0.6168
   11MOL   N40811628   6.193   2.149   1.284  0.4858  0.3554  0.0697
   11MOL   C40911629   6.294   2.203   1.367 -0.1877  0.1387 -0.2401
   11MOL   C41011630   6.425   2.117   1.368  0.5775  0.6785 -0.2635
   11MOL   C41111631   6.531   2.175   1.464 -0.1825  0.0155  0.1278
   11MOL   C41211632   6.665   2.099   1.453 -0.4043  0.4172 -0.1792
   11MOL   C41311633   6.766   2.131   1.567  0.1481  1.0550  0.3934
   11MOL   C41411634   6.904   2.064   1.559 -0.3992 -0.3424  0.7183
   11MOL   N41511635   6.981   2.112   1.664 -0.0801 -0.5770 -0.2431
   11MOL   H41611636   6.942   2.191   0.741  0.3255 -0.5330  0.7141
   11MOL   H41711637   6.839   2.174   0.863 -1.5603 -1.6862 -1.2633
   11MOL   H41811638   6.743   2.320   0.630 -0.4902 -0.8706 -0.3575
   11MOL   H41911639   6.804   2.397   0.762  1.9584 -0.9210  0.4835
   11MOL   H42011640   6.621   2.282   0.921 -1.5169  0.5086 -0.1392
   11MOL   H42111641   6.562   2.203   0.782 -0.8179  0.6784 -0.5614
   11MOL   H42211642   6.522   2.423   0.673  1.5551  1.8943 -0.1714
   11MOL   H42311643   6.565   2.512   0.824  0.7680 -1.4987  1.8079
   11MOL   H42411644   6.388   2.386   0.942 -0.2490 -1.6132 -0.4245
   11MOL   H42511645   6.321   2.497   0.826 -1.8133 -0.6761  0.8192
   11MOL   H42611646   6.287   2.347   0.660  1.3597  1.9358 -0.4523
   11MOL   H42711647   6.360   2.216   0.743  0.0100  0.4850 -1.4484
   11MOL   H42811648   6.108   2.359   0.822  1.8016  1.3060 -0.6890
   11MOL   H42911649   6.121   2.207   0.744 -2.9065  1.5574  0.1414
   11MOL   H43011650   6.193   2.097   0.967 -0.2375 -0.3821  0.3256
   11MOL   H43111651   6.215   2.265   1.028  1.7403 -1.1128 -0.3097
   11MOL   H43211652   5.946   2.149   0.934  1.4827 -0.0019 -1.9146
   11MOL   H43311653   5.976   2.300   1.008 -0.5241 -0.3844  2.5146
   11MOL   H43411654   5.881   2.146   1.176  0.0320 -0.9270 -0.0699
   11MOL   H43511655   6.005   2.033   1.145 -0.3111  0.0042 -2.6884
   11MOL   H43611656   6.215   2.055   1.252 -0.9831 -0.2917  0.9073
   11MOL   H43711657   6.256   2.191   1.469 -2.3015  0.5758 -0.9581
   11MOL   H43811658   6.314   2.305   1.335 -0.1227  0.2285  0.0775
   11MOL   H43911659   6.462   2.117   1.265  0.8102  0.8449 -0.1803
   11MOL   H44011660   6.401   2.014   1.395 -1.3658  1.4292  0.9138
   11MOL   H44111661   6.559   2.276   1.435 -1.3953  1.3104  3.1970
   11MOL   H44211662   6.491   2.185   1.565  0.8555  0.4865  0.4993
   11MOL   H44311663   6.643   1.992   1.450  3.7438 -0.5080 -1.4323
   11MOL   H44411664   6.714   2.117   1.357  1.0813  0.4802  0.5848
   11MOL   H44511665   6.779   2.238   1.577 -3.6823  1.7184 -0.8664
   11MOL   H44611666   6.721   2.100   1.662 -1.0453  1.1194 -0.1410
   11MOL   H44711667   6.875   1.959   1.559 -1.2225 -0.1371 -0.7764
   11MOL   H44811668   6.958   2.085   1.466 -0.0639 -3.1516  0.2159
   11MOL   H44911669   6.937   2.116   1.755  1.1623  0.7157  0.3331
   11MOL   C45011670   7.115   2.117   1.662  0.2209 -0.7256 -0.6989
   11MOL   O45111671   7.177   2.095   1.562  0.3071 -0.5975  0.0458
   11MOL   C45211672   7.193   2.145   1.795 -0.5752 -0.3882 -1.0096
   11MOL   C45311673   7.249   2.287   1.818  0.2672  0.4558 -0.2625
   11MOL   C45411674   7.398   2.301   1.798 -0.2791 -0.7061 -0.0858
   11MOL   C45511675   7.492   2.218   1.885 -0.6142 -0.1617  0.3275
   11MOL   C45611676   7.633   2.279   1.870 -0.1433 -0.2661  0.4790
   11MOL   C45711677   0.057   2.186   1.913 -0.2274 -0.0580  0.1439
   11MOL   C45811678   0.112   2.089   1.808  0.3258 -0.9278 -0.4285
   11MOL   C45911679   0.223   2.001   1.874  0.5574  0.1184 -0.2479
   11MOL   C46011680   0.189   1.910   1.989 -0.0498 -0.0489 -0.2171
   11MOL   C46111681   0.309   1.822   2.036  0.5207 -0.1520 -0.3823
   11MOL   C46211682   0.268   1.715   2.134 -0.0446 -0.2676 -0.9359
   11MOL   O46311683   0.146   1.698   2.156 -0.3232 -0.1788  0.4993
   11MOL   N46411684   0.365   1.641   2.192 -0.1110  0.3200 -0.0140
   11MOL   C46511685   0.348   1.529   2.289  0.6249 -0.2452  0.7229
   11MOL   C46611686   0.456   1.429   2.278 -0.6679 -0.4874  0.4163
   11MOL   C46711687   0.480   1.346   2.407  0.6299 -0.2537  0.1751
   11MOL   C46811688   0.567   1.220   2.397  0.4567 -0.3194  0.1651
   11MOL   C46911689   0.541   1.117   2.284  0.6438 -0.2011  0.6891
   11MOL   C47011690   0.621   0.984   2.296 -0.5665  0.0363 -0.1954
   11MOL   N47111691   0.588   0.899   2.182  0.0067 -0.0769  0.2670
   11MOL   H47211692   7.133   2.122   1.883 -0.1634  1.6243 -0.1698
   11MOL   H47311693   7.265   2.064   1.803 -0.6121 -0.2625  0.6676
   11MOL   H47411694   7.235   2.327   1.919 -0.2578  0.5863 -0.3813
   11MOL   H47511695   7.188   2.357   1.760 -0.4077  0.8973  0.9554
   11MOL   H47611696   7.417   2.407   1.813 -0.6793 -0.3688 -1.8069
   11MOL   H47711697   7.421   2.276   1.694 -0.4685 -0.9243 -0.0764
   11MOL   H47811698   7.485   2.113   1.856  0.8517  0.0408 -0.8202
   11MOL   H47911699   7.457   2.222   1.988 -3.1701 -1.1289 -0.4568
   11MOL   H48011700   7.635   2.376   1.920  0.1996  0.2005 -0.4105
   11MOL   H48111701   7.637   2.320   1.768  0.7069  0.0452  0.6269
   11MOL   H48211702   0.036   2.130   2.004 -0.1631 -1.8505 -0.9048
   11MOL   H48311703   0.144   2.246   1.938 -0.2216 -0.2725  0.6420
   11MOL   H48411704   0.031   2.022   1.780  0.4740 -0.8272 -1.0919
   11MOL   H48511705   0.142   2.138   1.716  1.4731 -0.4330  0.2021
   11MOL   H48611706   0.264   1.936   1.796  0.6331 -1.5305  1.1359
   11MOL   H48711707   0.302   2.068   1.908  1.7129 -1.5370  0.4124
   11MOL   H48811708   0.104   1.857   1.947 -0.1562  1.0444 -1.4215
   11MOL   H48911709   0.163   1.975   2.073  0.2762 -2.5939  1.9435
   11MOL   H49011710   0.351   1.773   1.948  0.4933 -1.7233  0.4521
   11MOL   H49111711   0.389   1.893   2.057  0.0795  1.7339 -4.5112
   11MOL   H49211712   0.459   1.665   2.165  1.2771 -2.1733  2.3407
   11MOL   H49311713   0.257   1.486   2.248  0.6284 -0.1968  0.6639
   11MOL   H49411714   0.323   1.562   2.390 -0.9080  0.3326  0.1789
   11MOL   H49511715   0.426   1.357   2.202 -1.0350  0.0260  0.0792
   11MOL   H49611716   0.544   1.475   2.236 -1.0958 -0.5514 -0.5604
   11MOL   H49711717   0.384   1.320   2.451  0.7345 -0.1514  0.4695
   11MOL   H49811718   0.523   1.406   2.487  1.4515 -0.4029 -0.1488
   11MOL   H49911719   0.550   1.162   2.487 -0.9417 -1.5908 -0.8875
   11MOL   H50011720   0.671   1.232   2.425  0.7029 -1.6158 -0.1890
   11MOL   H50111721   0.433   1.110   2.297  0.6613 -0.3286  0.7707
   11MOL   H50211722   0.551   1.156   2.183 -2.9209  3.5839  1.6727
   11MOL   H50311723   0.728   1.005   2.292 -0.6342  1.2204  2.5797
   11MOL   H50411724   0.599   0.928   2.387  0.2631  2.0039  1.2609
   11MOL   H50511725   0.552   0.945   2.099 -1.1160  0.5893  1.0990
   11MOL   C50611726   0.625   0.773   2.169 -0.3745 -0.2615  0.5269
   11MOL   O50711727   0.661   0.703   2.269  0.0572 -0.4612 -0.0751
   11MOL   C50811728   0.635   0.711   2.030 -0.2571  0.2085 -0.4062
   11MOL   C50911729   0.765   0.639   1.995 -0.4806 -0.2438  0.1270
   11MOL   C51011730   0.884   0.734   1.966  0.2812 -0.4265 -0.0602
   11MOL   C51111731   1.016   0.677   1.902  0.4652  0.3375 -0.1890
   11MOL   C51211732   1.132   0.774   1.918  0.4298 -0.1187  0.2680
   11MOL   C51311733   1.271   0.714   1.861  0.0089 -0.3177 -0.2407
   11MOL   C51411734   1.392   0.812   1.879  0.2928  0.4270 -0.3962
   11MOL   C51511735   1.515   0.739   1.828  0.4131 -0.4889  0.1410
   11MOL   C51611736   1.650   0.821   1.851  0.2793  0.6620  0.2222
   11MOL   C51711737   1.645   0.979   1.828 -0.1361  0.0241  0.8845
   11MOL   C51811738   1.628   1.019   1.683  1.0347  0.3167 -0.4701
   11MOL   O51911739   1.518   1.009   1.631 -0.3627  0.0870 -0.6316
   11MOL   N52011740   1.733   1.052   1.606 -0.3577  0.3448 -0.5626
   11MOL   C52111741   1.880   1.052   1.636  0.0894  0.0254 -0.5226
   11MOL   C52211742   1.947   0.917   1.604  0.2599  0.0675  0.2535
   11MOL   C52311743   2.092   0.923   1.596 -0.2252 -0.6514 -0.0953
   11MOL   C52411744   2.148   0.783   1.591 -0.5697 -0.2519 -0.1834
   11MOL   C52511745   2.301   0.774   1.615 -0.4683  0.5319 -0.0508
   11MOL   C52611746   2.359   0.641   1.570 -0.8088  0.0567 -0.3082
   11MOL   N52711747   2.506   0.626   1.593  0.1507 -0.1873  0.4722
   11MOL   H52811748   0.621   0.792   1.959  0.5554  0.4954 -0.2504
   11MOL   H52911749   0.550   0.644   2.019 -0.6076  0.8231 -1.4698
   11MOL   H53011750   0.754   0.574   1.909  1.2859 -1.2889  0.6441
   11MOL   H53111751   0.807   0.577   2.074  1.9844 -2.7277 -3.0086
   11MOL   H53211752   0.906   0.781   2.062 -1.2140  0.2370 -0.0338
   11MOL   H53311753   0.855   0.824   1.913 -0.7974 -0.5151  0.3718
   11MOL   H53411754   1.051   0.582   1.943 -0.6020  1.5256  3.5919
   11MOL   H53511755   1.010   0.664   1.794  1.3202  0.5342 -0.2623
   11MOL   H53611756   1.101   0.869   1.875 -0.2211 -1.3606 -2.0890
   11MOL   H53711757   1.145   0.800   2.023 -0.4619 -2.0939  0.8987
   11MOL   H53811758   1.278   0.615   1.906  1.3295  0.5202  1.4460
   11MOL   H53911759   1.259   0.693   1.755 -2.0648 -2.1226  0.3187
   11MOL   H54011760   1.360   0.909   1.841 -0.8994  0.2837  0.2189
   11MOL   H54111761   1.405   0.820   1.987  0.4620 -0.9558 -0.3002
   11MOL   H54211762   1.513   0.639   1.871 -1.7866  0.0302  1.3712
   11MOL   H54311763   1.508   0.720   1.721 -0.7691  0.6681  0.0012
   11MOL   H54411764   1.724   0.777   1.785  1.1240 -1.0975  2.2700
   11MOL   H54511765   1.676   0.811   1.957  1.1177  2.5285  0.2083
   11MOL   H54611766   1.566   1.022   1.890 -0.3712 -0.2384  0.7705
   11MOL   H54711767   1.736   1.027   1.863 -0.6539 -0.6716  3.2438
   11MOL   H54811768   1.709   1.077   1.511 -1.9010 -0.4942 -0.4022
   11MOL   H54911769   1.902   1.080   1.739  0.9967  2.6291 -1.3905
   11MOL   H55011770   1.929   1.127   1.575 -0.6717  0.3396 -0.7450
   11MOL   H55111771   1.911   0.866   1.514  1.8386 -3.8612  1.7454
   11MOL   H55211772   1.929   0.852   1.689 -0.0823 -0.5113 -0.2545
   11MOL   H55311773   2.137   0.987   1.672 -1.6444  1.4132 -0.9537
   11MOL   H55411774   2.111   0.978   1.504 -1.7039 -0.8445 -0.5302
   11MOL   H55511775   2.128   0.737   1.494  0.4905 -1.1053 -0.0040
   11MOL   H55611776   2.088   0.713   1.649 -0.7658 -0.6687 -0.8820
   11MOL   H55711777   2.362   0.852   1.568  0.0251 -0.9369 -1.8868
   11MOL   H55811778   2.327   0.774   1.721  0.1827 -1.1834 -0.1962
   11MOL   H55911779   2.308   0.560   1.621 -2.3314  0.7550 -0.6848
   11MOL   H56011780   2.331   0.634   1.465 -1.6616  1.0987 -0.1560
   11MOL   H56111781   2.539   0.612   1.687  1.9692 -2.5355 -0.4576
   11MOL   C56211782   2.610   0.625   1.504  0.2515  0.2296  0.1916
   11MOL   O56311783   2.598   0.675   1.392 -0.2923 -0.9891 -0.3664
   11MOL   C56411784   2.744   0.557   1.556 -0.4081  0.5726  1.1126
   11MOL   C56511785   2.798   0.457   1.439  0.0462 -0.2505 -0.4513
   11MOL   C56611786   2.758   0.314   1.471 -0.1760  0.3481 -0.6239
   11MOL   C56711787   2.776   0.209   1.365 -0.2976 -0.0513 -0.4189
   11MOL   C56811788   2.777   0.067   1.433 -0.3258  0.1277 -0.8077
   11MOL   C56911789   2.641   0.025   1.490 -0.0259 -0.4797 -0.3381
   11MOL   C57011790   2.629   7.584   1.555  0.3946  0.0122  0.4693
   11MOL   C57111791   2.501   7.504   1.524 -0.0443  0.2272 -0.1612
   11MOL   C57211792   2.492   7.353   1.571  0.5488 -0.5332 -0.2647
   11MOL   C57311793   2.358   7.287   1.530 -0.2490 -0.6262 -0.0130
   11MOL   C57411794   2.250   7.309   1.635 -0.2543  0.0014  0.4506
   11MOL   O57511795   2.241   7.414   1.698  0.8886 -0.5888  0.2137
   11MOL   N57611796   2.155   7.213   1.644 -0.3268 -0.3560 -0.0680
   11MOL   C57711797   2.062   7.214   1.753  0.1553  0.5879 -0.5443
   11MOL   C57811798   2.126   7.132   1.869 -0.3822  0.4666  0.0199
   11MOL   C57911799   2.062   7.159   2.005 -0.4315  0.1132  0.1656
   11MOL   C58011800   2.118   7.291   2.065 -0.2459  0.4066 -0.8724
   11MOL   C58111801   2.056   7.355   2.183  0.4119  0.4451  0.2636
   11MOL   C58211802   1.903   7.384   2.154  0.4560 -0.6231 -0.1986
   11MOL   N58311803   1.852   7.460   2.271  0.4793 -0.3239 -0.1427
   11MOL   H58411804   2.828   0.624   1.574 -0.7852  1.4125 -0.2258
   11MOL   H58511805   2.736   0.495   1.646  3.0532 -3.3317 -1.1269
   11MOL   H58611806   2.753   0.482   1.343 -2.1411 -0.3895  0.5146
   11MOL   H58711807   2.906   0.465   1.425 -0.2451  2.0542 -1.5979
   11MOL   H58811808   2.657   0.318   1.513  0.4275 -0.3256  0.9157
   11MOL   H58911809   2.813   0.278   1.558  1.4433  0.5439 -1.5566
   11MOL   H59011810   2.697   0.215   1.291  1.8368 -3.3525 -3.1452
   11MOL   H59111811   2.871   0.233   1.317  0.8155 -1.0127  1.2549
   11MOL   H59211812   2.808   0.004   1.350 -1.7715 -1.3753 -0.2323
   11MOL   H59311813   2.852   0.053   1.511  0.8565  0.8262 -1.8005
   11MOL   H59411814   2.612   0.094   1.569 -1.5565  0.1489 -1.4311
   11MOL   H59511815   2.562   0.045   1.417 -1.5203  0.3183  1.4373
   11MOL   H59611816   2.717   7.527   1.523 -0.6086 -1.1945 -0.1848
   11MOL   H59711817   2.644   7.595   1.663 -0.9528  4.1122  0.2839
   11MOL   H59811818   2.495   7.498   1.416 -1.8652  2.9420 -0.2458
   11MOL   H59911819   2.412   7.556   1.558  1.1040  1.6310  0.7799
   11MOL   H60011820   2.494   7.353   1.680  1.4964  0.8724 -0.2698
   11MOL   H60111821   2.583   7.301   1.541  1.2010 -0.4544  1.5207
   11MOL   H60211822   2.325   7.323   1.432  0.3642  1.3652  0.5011
   11MOL   H60311823   2.373   7.180   1.513  2.7721 -0.1888 -0.4383
   11MOL   H60411824   2.166   7.120   1.604 -0.9147 -0.6001  0.3359
   11MOL   H60511825   1.971   7.160   1.725 -0.6083 -0.3498  3.3777
   11MOL   H60611826   2.036   7.317   1.779  1.4973  1.3611 -2.1810
   11MOL   H60711827   2.233   7.149   1.875 -0.2790 -0.7012  1.6560
   11MOL   H60811828   2.102   7.027   1.851  0.9077  0.3381 -0.9827
   11MOL   H60911829   2.078   7.072   2.069 -2.1603  0.2376  0.8081
   11MOL   H61011830   1.958   7.162   1.973 -0.2564 -0.9040 -0.5212
   11MOL   H61111831   2.225   7.275   2.082 -0.3292  2.3130  1.6175
   11MOL   H61211832   2.116   7.365   1.984  0.6030  1.3719 -0.0224
   11MOL   H61311833   2.111   7.443   2.215  1.0360  0.2305 -0.2127
   11MOL   H61411834   2.059   7.295   2.274 -0.1365 -1.4181 -0.9320
   11MOL   H61511835   1.908   7.440   2.061 -0.4241 -3.0204 -1.7224
   11MOL   H61611836   1.839   7.301   2.124 -0.3447 -0.5971  1.3420
   11MOL   H61711837   1.874   7.428   2.364 -1.5226 -0.3860  0.3481
   11MOL   C61811838   1.780   7.574   2.265  0.1623 -0.2164 -0.5422
   11MOL   O61911839   1.747   7.611   2.156  0.0005 -0.1479  0.1238
   11MOL   C62011840   1.752   7.648   2.396  0.5664 -0.5623  0.2260
   11MOL   C62111841   1.709   0.103   2.368  0.6130 -0.3976 -0.6174
   11MOL   C62211842   1.700   0.181   2.504 -0.4792 -0.1584 -0.5006
   11MOL   C62311843   1.840   0.219   2.548 -0.0814  0.1113 -0.6370
   11MOL   C62411844   1.858   0.275   2.693  0.2536 -0.2799  1.1301
   11MOL   C62511845   1.978   0.357   2.739 -0.4913  0.3757  0.1114
   11MOL   C62611846   2.113   0.284   2.734  0.0105 -0.5308 -0.4531
   11MOL   C62711847   2.232   0.373   2.770 -0.0587 -0.7250  0.3610
   11MOL   C62811848   2.365   0.302   2.741  0.2943 -0.3383  0.0261
   11MOL   C62911849   2.488   0.394   2.782  0.1133  0.4804 -0.1673
   11MOL   C63011850   2.617   0.329   2.735 -0.2273 -0.1166 -0.0265
   11MOL   O63111851   2.615   0.267   2.634 -0.1835 -0.1081  0.1566
   11MOL   N63211852   2.729   0.348   2.805  0.2372  0.1121 -0.1641
   11MOL   C63311853   2.863   0.317   2.755  0.4082  0.4513  0.0008
   11MOL   C63411854   2.956   0.434   2.787 -0.3222 -0.1531  0.2504
   11MOL   C63511855   3.106   0.405   2.765 -0.2572 -0.6424  0.0728
   11MOL   C63611856   3.140   0.382   2.614  0.1135 -0.1384 -0.4323
   11MOL   C63711857   3.199   0.507   2.545 -0.4255 -0.2796  0.3125
   11MOL   C63811858   3.349   0.515   2.592 -0.0041 -0.4102  0.5325
   11MOL   N63911859   3.403   0.645   2.565 -0.3435 -0.3487 -0.0943
   11MOL   H64011860   1.846   7.637   2.450 -0.4677  1.0256  2.4451
   11MOL   H64111861   1.683   7.595   2.460  0.0555  1.0793  1.0704
   11MOL   H64211862   1.613   0.102   2.317 -0.1449 -0.5437  0.7836
   11MOL   H64311863   1.776   0.145   2.293 -0.3425 -0.1490 -1.3252
   11MOL   H64411864   1.637   0.123   2.572  1.4108  0.8666  2.2053
   11MOL   H64511865   1.639   0.266   2.474 -1.5329 -0.3918  0.9351
   11MOL   H64611866   1.898   0.128   2.558 -0.2330  0.3022  2.2728
   11MOL   H64711867   1.889   0.283   2.474 -0.1984  0.4017 -0.4668
   11MOL   H64811868   1.768   0.329   2.725 -0.0657 -1.0817  1.5852
   11MOL   H64911869   1.857   0.190   2.761  0.9645  1.3483  3.2266
   11MOL   H65011870   1.968   0.378   2.845  0.4130  0.9669  0.0845
   11MOL   H65111871   1.985   0.444   2.674  0.7444  0.5393  0.4553
   11MOL   H65211872   2.116   0.201   2.804 -1.0774 -1.2949 -1.2877
   11MOL   H65311873   2.125   0.253   2.630 -0.1710 -0.4349 -0.5037
   11MOL   H65411874   2.222   0.465   2.712 -1.3296 -1.6621 -0.9601
   11MOL   H65511875   2.242   0.398   2.875 -0.8717  0.5725  0.1455
   11MOL   H65611876   2.358   0.281   2.634 -1.5064  0.0871  0.0446
   11MOL   H65711877   2.370   0.206   2.792  1.6387 -0.9147 -1.1217
   11MOL   H65811878   2.483   0.500   2.756 -0.7473  0.2828 -0.8181
   11MOL   H65911879   2.482   0.385   2.890 -2.8984 -0.6656 -0.3837
   11MOL   H66011880   2.724   0.400   2.891  0.9433 -0.7029  0.3761
   11MOL   H66111881   2.894   0.227   2.808 -1.1211  0.7675  1.5036
   11MOL   H66211882   2.864   0.284   2.652  0.4772  1.5911 -0.3730
   11MOL   H66311883   2.931   0.470   2.888 -0.7593 -0.8643  0.4007
   11MOL   H66411884   2.924   0.524   2.735 -1.5870 -0.6435  0.1653
   11MOL   H66511885   3.157   0.492   2.807  0.8408 -1.2302 -0.0485
   11MOL   H66611886   3.139   0.321   2.826  0.0699  0.6591  1.7332
   11MOL   H66711887   3.048   0.361   2.561 -0.1953  1.1510 -0.4249
   11MOL   H66811888   3.212   0.302   2.599  1.9291  1.4026 -0.1046
   11MOL   H66911889   3.198   0.492   2.437 -1.0620  1.0921  0.1220
   11MOL   H67011890   3.155   0.601   2.578  0.3400  0.5464 -0.9722
   11MOL   H67111891   3.359   0.502   2.700  1.2552 -1.6236  0.2849
   11MOL   H67211892   3.404   0.435   2.543  0.2194 -0.9169  1.5960
   11MOL   H67311893   3.432   0.684   2.653 -0.3436  0.5472 -0.4805
   11MOL   C67411894   3.436   0.708   2.451  0.6404  0.3122  0.2163
   11MOL   O67511895   3.441   0.648   2.344 -0.0171 -0.2327  0.4209
   11MOL   C67611896   3.477   0.856   2.461  0.3834  1.0140  0.2339
   11MOL   C67711897   3.458   0.935   2.337  0.1352 -0.6239  0.1736
   11MOL   C67811898   3.311   0.952   2.295 -0.2681 -0.8534  0.2960
   11MOL   C67911899   3.283   0.880   2.152  0.2075  0.0656  0.4775
   11MOL   C68011900   3.139   0.867   2.103  0.1966 -0.5635  0.2761
   11MOL   C68111901   3.060   0.748   2.156 -0.4180  0.2873 -0.7522
   11MOL   C68211902   3.006   0.769   2.298  0.7233 -0.6645  0.6275
   11MOL   C68311903   2.904   0.665   2.343 -0.2561  0.2146 -0.1106
   11MOL   C68411904   2.836   0.684   2.481 -0.2489 -0.8926  0.1596
   11MOL   C68511905   2.730   0.579   2.518 -0.4064  0.0338 -1.0192
   11MOL   C68611906   2.609   0.585   2.430  0.0992 -0.6621  0.9039
   11MOL   O68711907   2.590   0.686   2.360  0.1361 -0.6119  0.1968
   11MOL   N68811908   2.522   0.488   2.428  0.6004  0.0174 -0.1081
   11MOL   C68911909   2.405   0.490   2.337 -0.4472 -0.1367  0.4277
   11MOL   C69011910   2.352   0.350   2.299  0.5074 -0.0842  0.4389
   11MOL   C69111911   2.232   0.328   2.208  0.1298 -0.8536  0.1592
   11MOL   C69211912   2.178   0.178   2.205 -0.0212 -0.6385  0.0059
   11MOL   C69311913   2.066   0.169   2.102 -0.0064  1.0821  0.1038
   11MOL   C69411914   2.044   0.022   2.069  0.0637 -0.0078  0.3656
   11MOL   N69511915   1.954   7.681   1.962 -0.1232 -0.4696  0.3536
   11MOL   H69611916   3.583   0.867   2.482  1.2401 -0.0767 -3.2461
   11MOL   H69711917   3.432   0.894   2.553 -0.7346  2.5505 -0.9259
   11MOL   H69811918   3.516   0.891   2.256 -0.0453  1.0769 -0.9010
   11MOL   H69911919   3.510   1.030   2.349 -2.8429  1.3547 -1.7119
   11MOL   H70011920   3.242   0.899   2.360 -1.5290 -2.3455 -2.1940
   11MOL   H70111921   3.285   1.058   2.283  3.0195 -0.1987 -1.6576
   11MOL   H70211922   3.332   0.782   2.156  1.0376  0.4904  0.7329
   11MOL   H70311923   3.336   0.934   2.074 -0.0485 -0.8630 -0.3563
   11MOL   H70411924   3.155   0.871   1.996 -1.1162  0.9187  0.1076
   11MOL   H70511925   3.081   0.955   2.133 -0.7584 -1.2060  0.3240
   11MOL   H70611926   2.969   0.747   2.097 -1.2320 -0.4166  0.4872
   11MOL   H70711927   3.107   0.652   2.133  0.0981 -0.0533  1.5837
   11MOL   H70811928   3.091   0.771   2.366  2.0784  3.5947 -1.0490
   11MOL   H70911929   2.956   0.866   2.302 -0.3208 -1.2102  0.9604
   11MOL   H71011930   2.819   0.682   2.276  0.1426  0.9247 -0.4394
   11MOL   H71111931   2.939   0.562   2.335  1.2770  0.5511  1.9193
   11MOL   H71211932   2.804   0.789   2.480  1.5266 -0.3064  1.8409
   11MOL   H71311933   2.909   0.682   2.562 -1.6955  0.8018  1.5451
   11MOL   H71411934   2.779   0.484   2.498  1.4856  0.8924 -0.6203
   11MOL   H71511935   2.719   0.580   2.627  2.1778 -0.5090 -0.7092
   11MOL   H71611936   2.532   0.411   2.492  0.1120 -1.0557 -1.3064
   11MOL   H71711937   2.332   0.554   2.388 -0.0894 -0.6084  1.5392
   11MOL   H71811938   2.432   0.539   2.243  0.4367 -0.5609  0.4593
   11MOL   H71911939   2.326   0.291   2.387  1.7636 -2.1465 -0.5273
   11MOL   H72011940   2.432   0.289   2.256  1.4184  2.3940 -1.5058
   11MOL   H72111941   2.150   0.397   2.231 -0.2494  0.0652 -3.5846
   11MOL   H72211942   2.279   0.359   2.114  1.8304  1.8003  1.8283
   11MOL   H72311943   2.140   0.152   2.304  0.2000  0.9470  0.5285
   11MOL   H72411944   2.261   0.109   2.196  0.5423 -0.0875  0.8896
   11MOL   H72511945   2.105   0.222   2.015  1.1746 -0.3233 -0.2359
   11MOL   H72611946   1.973   0.213   2.139  0.1535  1.0706  0.5190
   11MOL   H72711947   2.140   7.666   2.052  0.2520 -0.1202  1.7044
   11MOL   H72811948   2.004   7.667   2.159 -0.7892 -2.2961 -1.1515
   11MOL   H72911949   1.866   7.651   2.000 -0.8434  1.1245 -0.0342
   11MOL   C73011950   1.989   7.682   1.833  0.6661  0.2431 -0.8384
   11MOL   O73111951   2.095   0.039   1.798 -0.1875  0.3891  0.2287
   11MOL   C73211952   1.877   7.617   1.744 -0.0720  0.2664 -0.5393
   11MOL   C73311953   1.933   7.567   1.611 -0.6952  0.7138 -0.1100
   11MOL   C73411954   1.818   7.513   1.536  0.4500 -0.0025 -0.8400
   11MOL   C73511955   1.856   7.475   1.393  0.1177 -0.0959  0.9548
   11MOL   C73611956   1.965   7.369   1.377  0.0955 -0.2371 -0.0165
   11MOL   C73711957   1.970   7.306   1.234  1.2702  0.0999 -0.6690
   11MOL   C73811958   2.080   7.208   1.198  0.0165 -0.0974 -0.7696
   11MOL   C73911959   2.085   7.087   1.292  0.2891 -0.2741 -0.6761
   11MOL   C74011960   2.200   6.988   1.256 -0.7032  0.3410 -0.3371
   11MOL   C74111961   2.193   6.848   1.329  0.1340  0.6245  0.1143
   11MOL   C74211962   2.228   6.856   1.477 -0.1563 -0.6611  0.3200
   11MOL   O74311963   2.213   6.964   1.533 -0.0162  0.8822 -0.4655
   11MOL   N74411964   2.305   6.768   1.540 -0.4576  0.2263  0.6529
   11MOL   C74511965   2.363   6.780   1.671 -0.2127  0.5639  0.3789
   11MOL   C74611966   2.257   6.758   1.784  0.2887 -0.0182 -0.5148
   11MOL   C74711967   2.307   6.788   1.933 -0.2439 -0.2029  0.5088
   11MOL   C74811968   2.203   6.782   2.043  0.5743  0.2095 -0.6339
   11MOL   C74911969   2.260   6.799   2.183 -0.2753 -1.0160 -0.4142
   11MOL   C75011970   2.150   6.775   2.285  0.2237 -0.1178 -0.8156
   11MOL   N75111971   2.077   6.646   2.271 -0.6112  0.0053 -0.2226
   11MOL   H75211972   1.793   7.686   1.729 -1.4356 -1.8795 -3.1646
   11MOL   H75311973   1.835   7.538   1.807 -0.0141 -0.1218 -0.9891
   11MOL   H75411974   2.011   7.493   1.630 -2.2370 -0.3377  2.4007
   11MOL   H75511975   1.976   7.654   1.561  0.2297  0.3672  0.0540
   11MOL   H75611976   1.746   7.594   1.532  0.9854  0.4885 -0.6613
   11MOL   H75711977   1.782   7.426   1.591 -0.3763 -0.5548 -2.2164
   11MOL   H75811978   1.887   7.568   1.345 -2.1482  0.7037  0.9756
   11MOL   H75911979   1.767   7.447   1.336 -0.5026 -2.2152  2.8834
   11MOL   H76011980   1.953   7.291   1.452  1.7241  0.9034  1.4950
   11MOL   H76111981   2.065   7.404   1.405  0.3880 -0.0025 -1.3347
   11MOL   H76211982   1.875   7.258   1.207 -0.3573  2.6470  0.3369
   11MOL   H76311983   1.983   7.395   1.172  3.1974 -0.2367 -0.7758
   11MOL   H76411984   2.077   7.180   1.093  2.6846  0.4629 -1.0216
   11MOL   H76511985   2.182   7.247   1.196 -0.3353  1.2385  3.1881
   11MOL   H76611986   2.090   7.133   1.391 -1.1024  0.7311 -1.0510
   11MOL   H76711987   1.988   7.037   1.293  1.0998 -1.8774 -0.3342
   11MOL   H76811988   2.298   7.030   1.279 -1.3996  1.5570  0.4844
   11MOL   H76911989   2.188   6.981   1.148 -0.3062 -0.7741 -0.3160
   11MOL   H77011990   2.088   6.820   1.319  0.1975  0.8143 -1.2063
   11MOL   H77111991   2.252   6.768   1.283 -0.4483 -1.0476  2.2211
   11MOL   H77211992   2.303   6.680   1.491 -1.6915 -1.0049  2.8248
   11MOL   H77311993   2.411   6.875   1.690  0.6228  0.2277 -0.0170
   11MOL   H77411994   2.444   6.708   1.677  0.4701  1.3836  1.1536
   11MOL   H77511995   2.236   6.651   1.782  0.5825 -0.0747 -0.6665
   11MOL   H77611996   2.163   6.807   1.762  1.0715  0.8748 -1.9958
   11MOL   H77711997   2.355   6.885   1.919 -1.6284  0.7119  2.0165
   11MOL   H77811998   2.386   6.714   1.951  0.6334  0.7161  0.4960
   11MOL   H77911999   2.127   6.853   2.011  0.6800  1.6369  2.0915
   11MOL   H78012000   2.154   6.685   2.033 -0.1136  0.1517  2.5856
   11MOL   H78112001   2.299   6.901   2.192  0.0729 -1.0818 -1.0775
   11MOL   H78212002   2.341   6.728   2.199  0.0474 -0.6729 -0.5107
   11MOL   H78312003   2.197   6.778   2.384  1.8802 -0.2956 -1.5743
   11MOL   H78412004   2.070   6.844   2.261 -0.6072 -0.6384  0.4165
   11MOL   H78512005   2.113   6.576   2.209  2.6543  1.2015  0.2261
   11MOL   C78612006   1.966   6.629   2.345 -0.0875  0.7022  0.0617
   11MOL   O78712007   1.904   6.718   2.398  0.2332 -0.6186 -0.6233
   11MOL   C78812008   1.916   6.483   2.356  0.3682 -0.2017  0.2608
   11MOL   C78912009   1.947   6.428   2.495 -0.8102  0.1506 -0.6540
   11MOL   C79012010   1.901   6.288   2.500  0.3948  0.6308 -0.0950
   11MOL   C79112011   1.941   6.203   2.626 -0.3761 -0.2902 -0.0437
   11MOL   C79212012   1.880   6.066   2.641  0.3739  0.0082  0.0866
   11MOL   C79312013   1.869   6.028   2.785  0.0744  0.8398  0.6080
   11MOL   C79412014   1.775   5.908   2.812 -0.1524 -0.7147  0.1047
   11MOL   C79512015   1.804   5.787   2.718  0.9862 -0.6197 -0.0661
   11MOL   C79612016   1.718   5.661   2.759 -0.0378  0.6874  0.1147
   11MOL   C79712017   1.768   5.554   2.853  0.3156 -0.3021  0.7207
   11MOL   C79812018   1.882   5.460   2.800 -0.1117 -0.0786  0.1194
   11MOL   O79912019   1.946   5.499   2.700 -0.0763 -0.2624 -0.2571
   11MOL   N80012020   1.905   5.349   2.874  0.7306  0.4426  0.2608
   11MOL   C80112021   2.020   5.259   2.844  0.2260 -0.0840 -0.7425
   11MOL   C80212022   2.008   5.127   2.919 -0.7552 -0.1532 -0.2875
   11MOL   C80312023   1.895   5.039   2.872  0.6435  0.4797  0.2464
   11MOL   C80412024   1.887   4.900   2.936  0.0569  0.3678 -0.5107
   11MOL   C80512025   1.806   4.805   2.847 -0.0732  0.4020  0.6177
   11MOL   C80612026   1.774   4.666   2.916 -0.2572  0.0636 -0.4917
   11MOL   N80712027   1.714   4.570   2.823 -0.4154 -0.1964  0.1500
   11MOL   H80812028   1.960   6.413   2.286  4.2005  2.5826 -0.2748
   11MOL   H80912029   1.811   6.491   2.328  0.6638 -0.9334 -1.0773
   11MOL   H81012030   2.050   6.447   2.525 -1.2895  0.0955  1.1152
   11MOL   H81112031   1.897   6.485   2.573  0.6632 -0.6902  0.9366
   11MOL   H81212032   1.926   6.234   2.408 -1.5817  1.6608 -1.2875
   11MOL   H81312033   1.792   6.289   2.504  0.3003 -1.1130 -1.4568
   11MOL   H81412034   2.049   6.188   2.621 -0.2179  1.0745 -1.1641
   11MOL   H81512035   1.926   6.267   2.713  2.0150 -3.2166  2.6212
   11MOL   H81612036   1.776   6.067   2.608  1.0238 -1.2118 -2.1696
   11MOL   H81712037   1.937   5.997   2.577 -0.0868  0.7777 -1.1683
   11MOL   H81812038   1.970   6.008   2.820  0.0302 -0.8854 -0.1810
   11MOL   H81912039   1.833   6.117   2.836  0.9099  0.2288  2.3140
   11MOL   H82012040   1.784   5.876   2.915  0.0731 -0.2111  0.2460
   11MOL   H82112041   1.670   5.938   2.813  0.8999  3.3830  1.2035
   11MOL   H82212042   1.782   5.806   2.613  0.8834  0.0368  0.0758
   11MOL   H82312043   1.908   5.754   2.722  0.8173 -1.3721 -1.5986
   11MOL   H82412044   1.680   5.614   2.668  1.4424  0.6491 -0.4938
   11MOL   H82512045   1.622   5.691   2.799  0.8859  0.9033  2.2276
   11MOL   H82612046   1.805   5.612   2.938  1.5953  0.1896 -0.1507
   11MOL   H82712047   1.691   5.483   2.883  0.0953 -0.5262 -0.3665
   11MOL   H82812048   1.847   5.330   2.955  2.6779 -2.1515  1.1203
   11MOL   H82912049   2.115   5.302   2.875 -0.1899  0.6678 -0.5074
   11MOL   H83012050   2.030   5.255   2.736 -2.0366 -0.6413 -0.9697
   11MOL   H83112051   2.003   5.145   3.026 -0.8060  0.0038 -0.3170
   11MOL   H83212052   2.094   5.064   2.895 -1.4170 -0.9191 -0.6843
   11MOL   H83312053   1.808   5.104   2.872  2.1013  2.5042 -0.8824
   11MOL   H83412054   1.906   5.018   2.765  0.0453 -0.0604  0.2905
   11MOL   H83512055   1.856   4.896   3.040  1.4256 -0.9364 -0.1392
   11MOL   H83612056   1.987   4.858   2.943  0.3957  1.1589 -0.5911
   11MOL   H83712057   1.856   4.789   2.752 -0.5585  1.3013  0.2150
   11MOL   H83812058   1.719   4.863   2.818  1.1418  1.7512 -0.3783
   11MOL   H83912059   1.701   4.680   2.996 -1.0607 -2.1387 -0.8112
   11MOL   H84012060   1.861   4.627   2.969  1.3710  3.4506 -0.5382
   11MOL   H84112061   1.652   4.603   2.751 -2.0893 -2.3784  0.5441
   11MOL   C84212062   1.730   4.435   2.831  0.7671 -0.0027  0.0018
   11MOL   O84312063   1.800   4.386   2.923  1.0672  0.1503 -0.0122
   11MOL   C84412064   1.662   4.345   2.726  0.2115  0.2802  0.4360
   11MOL   C84512065   1.602   4.216   2.777  0.0705 -0.5636  0.0552
   11MOL   C84612066   1.476   4.252   2.866 -0.1215  0.1396 -0.5150
   11MOL   C84712067   1.416   4.141   2.951  0.0067  0.7624  0.0152
   11MOL   C84812068   1.507   4.058   3.044 -0.4186  0.3044 -0.5894
   11MOL   C84912069   1.597   4.139   3.139 -0.1710 -0.1369 -0.5987
   11MOL   C85012070   1.674   4.062   3.250 -0.2471  0.0904 -0.5058
   11MOL   C85112071   1.800   3.986   3.201  0.1782 -0.5606 -0.2208
   11MOL   C85212072   1.864   3.904   3.317 -0.0978  0.5457 -1.0284
   11MOL   C85312073   1.778   3.787   3.361 -0.8729 -0.3479  0.3285
   11MOL   C85412074   1.770   3.662   3.259 -0.0343  1.0059  0.3012
   11MOL   O85512075   1.860   3.626   3.181 -0.3013 -0.5148  0.1760
   11MOL   N85612076   1.662   3.588   3.265 -0.8797 -0.0459  0.0152
   11MOL   C85712077   1.631   3.470   3.182 -0.8304  0.9717  0.5723
   11MOL   C85812078   1.631   3.334   3.273 -0.0664  0.3477 -0.1245
   11MOL   C85912079   1.771   3.303   3.335  0.8692 -0.6224  0.5389
   11MOL   C86012080   1.766   3.169   3.413  0.1044 -0.4925  0.6905
   11MOL   C86112081   1.897   3.129   3.482 -0.4833  0.1127  0.0352
   11MOL   C86212082   1.875   3.005   3.569 -0.3595  0.5754 -0.3907
   11MOL   N86312083   1.994   2.946   3.623  0.1513 -0.6853  0.5107
   11MOL   H86412084   1.734   4.307   2.653  1.7706 -0.8126  2.4967
   11MOL   H86512085   1.605   4.412   2.662  1.5180  1.4742  0.4991
   11MOL   H86612086   1.682   4.157   2.822 -0.1422 -0.8957 -0.0029
   11MOL   H86712087   1.563   4.153   2.698  2.5563 -0.4096 -1.3584
   11MOL   H86812088   1.489   4.339   2.930 -0.5127  0.5228 -0.9572
   11MOL   H86912089   1.397   4.279   2.797 -1.0993  0.6044  0.7668
   11MOL   H87012090   1.365   4.076   2.880 -0.1660 -1.5236  2.1600
   11MOL   H87112091   1.331   4.178   3.009 -0.4408  0.6218 -0.5480
   11MOL   H87212092   1.455   3.980   3.099  0.0098 -0.3120 -1.0592
   11MOL   H87312093   1.575   4.000   2.982 -0.3038 -1.6642  1.3288
   11MOL   H87412094   1.667   4.208   3.090 -0.3535  2.4188  2.5399
   11MOL   H87512095   1.538   4.211   3.195 -0.6073 -0.7151 -0.3171
   11MOL   H87612096   1.709   4.127   3.330 -0.4551  1.0798 -1.2217
   11MOL   H87712097   1.601   3.989   3.287  1.1328 -0.6305  0.8631
   11MOL   H87812098   1.876   4.050   3.155 -0.5082 -1.4052 -2.5812
   11MOL   H87912099   1.768   3.934   3.111 -0.9079 -0.7182  0.2445
   11MOL   H88012100   1.877   3.972   3.401 -1.9940  1.3486 -1.3596
   11MOL   H88112101   1.966   3.873   3.293 -0.0421  0.1799 -0.3552
   11MOL   H88212102   1.820   3.744   3.453 -1.0277  0.1553  0.6350
   11MOL   H88312103   1.677   3.822   3.383 -0.1844  2.0917 -0.2550
   11MOL   H88412104   1.592   3.617   3.332 -0.8569 -1.5533  0.6991
   11MOL   H88512105   1.701   3.457   3.099 -1.4596 -2.2373  0.5043
   11MOL   H88612106   1.533   3.486   3.137 -0.6314 -1.1125 -0.6844
   11MOL   H88712107   1.612   3.257   3.198  1.3307  1.5850 -1.7798
   11MOL   H88812108   1.552   3.340   3.348 -2.2125 -1.2854 -2.1493
   11MOL   H88912109   1.806   3.380   3.405 -1.7795  0.3354  0.8759
   11MOL   H89012110   1.855   3.301   3.266  0.9280 -1.5386  0.6346
   11MOL   H89112111   1.727   3.092   3.346  0.4748  0.2144 -0.3525
   11MOL   H89212112   1.685   3.174   3.486 -1.3704  1.0668 -0.9575
   11MOL   H89312113   1.968   3.109   3.402 -2.0699 -2.5601 -0.7865
   11MOL   H89412114   1.936   3.221   3.525  1.6588 -0.4047 -0.7689
   11MOL   H89512115   1.806   3.023   3.652 -0.5285 -1.9955  0.0754
   11MOL   H89612116   1.825   2.927   3.512  1.3894 -1.3975  0.6812
   11MOL   H89712117   2.005   2.970   3.721 -0.2161  2.2212 -0.1056
   11MOL   C89812118   2.094   2.883   3.554 -0.5684 -0.7203 -0.4836
   11MOL   O89912119   2.079   2.847   3.437 -0.1455  0.1132  0.0345
   11MOL   C90012120   2.217   2.840   3.631  0.1002  0.3076  0.1234
   11MOL   C90112121   2.346   2.897   3.579  1.0844 -0.4740  0.1389
   11MOL   C90212122   2.362   3.048   3.576 -0.1364  0.0208  0.2269
   11MOL   C90312123   2.480   3.096   3.496  0.0329 -0.5444  0.1583
   11MOL   C90412124   2.480   3.248   3.496  0.4234 -0.1417 -0.5587
   11MOL   C90512125   2.605   3.325   3.465  0.0458  0.0627  0.3831
   11MOL   C90612126   2.578   3.477   3.476 -0.1636 -0.3610 -0.6496
   11MOL   C90712127   2.688   3.560   3.406 -0.2516  0.3303 -0.4321
   11MOL   C90812128   2.680   3.580   3.251 -0.4545 -0.4802 -0.5542
   11MOL   C90912129   2.785   3.679   3.199 -0.3839 -0.2055 -0.1695
   11MOL   C91012130   2.762   3.825   3.238 -0.1892 -0.2536  0.1470
   11MOL   O91112131   2.675   3.899   3.185 -0.2861 -0.2548 -0.2976
   11MOL   N91212132   2.836   3.871   3.342  0.1491 -0.3679  0.4331
   11MOL   C91312133   2.830   4.011   3.387 -0.8110 -0.4631 -0.9457
   11MOL   C91412134   2.875   4.030   3.536 -0.7372  0.3246  0.5903
   11MOL   C91512135   2.871   4.182   3.576  0.7579  0.3337  0.1005
   11MOL   C91612136   2.878   4.198   3.728 -1.3024 -0.4439 -0.1646
   11MOL   C91712137   3.023   4.188   3.781  0.3250  0.0676  0.1684
   11MOL   C91812138   3.027   4.195   3.939 -0.3992 -0.1277  0.5443
   11MOL   N91912139   2.993   4.332   3.981  0.2221  0.5294 -0.3379
   11MOL   H92012140   2.222   2.865   3.737 -1.5073 -0.3701  0.3683
   11MOL   H92112141   2.215   2.731   3.636 -0.7363  0.2688 -1.0110
   11MOL   H92212142   2.366   2.850   3.482 -0.6708  0.6683 -0.8014
   11MOL   H92312143   2.430   2.857   3.636  1.2887  0.9279  0.8358
   11MOL   H92412144   2.372   3.088   3.677  0.4668  0.8730 -0.1629
   11MOL   H92512145   2.270   3.092   3.536  0.5195 -1.0139 -2.5135
   11MOL   H92612146   2.573   3.055   3.536  0.4420  0.4350  0.2176
   11MOL   H92712147   2.475   3.047   3.398 -1.7300  0.9462 -0.5407
   11MOL   H92812148   2.443   3.285   3.592 -2.5821 -2.7325 -0.6072
   11MOL   H92912149   2.399   3.273   3.427 -1.5552 -0.0762  1.7384
   11MOL   H93012150   2.678   3.310   3.545 -1.7501  1.0616  2.2750
   11MOL   H93112151   2.636   3.301   3.363 -3.8742 -0.7427 -0.6937
   11MOL   H93212152   2.548   3.519   3.572  0.7730  2.2136 -1.4443
   11MOL   H93312153   2.487   3.499   3.418  0.6088  0.3868 -1.5929
   11MOL   H93412154   2.784   3.522   3.442  0.2056  1.1761 -0.7420
   11MOL   H93512155   2.682   3.657   3.456 -2.1399 -0.4150  0.8423
   11MOL   H93612156   2.697   3.488   3.195  2.1227 -0.3409 -0.0512
   11MOL   H93712157   2.576   3.606   3.228  0.4933  0.1799 -4.4322
   11MOL   H93812158   2.881   3.653   3.244  0.0440  0.5028 -0.6594
   11MOL   H93912159   2.791   3.671   3.090  1.6258  0.3369 -0.1189
   11MOL   H94012160   2.904   3.812   3.388  0.3637 -0.7003 -0.2867
   11MOL   H94112161   2.726   4.039   3.372 -0.9628  0.5844  1.6941
   11MOL   H94212162   2.891   4.073   3.321  0.3585 -2.2316 -1.5715
   11MOL   H94312163   2.807   3.970   3.598 -1.9631  1.5177  0.4422
   11MOL   H94412164   2.971   3.982   3.552 -0.3520  1.2534  1.1292
   11MOL   H94512165   2.946   4.248   3.532 -0.7141  0.7092 -1.8873
   11MOL   H94612166   2.779   4.230   3.541 -0.4509 -0.0576  2.5915
   11MOL   H94712167   2.818   4.122   3.778 -1.3064 -1.3523 -1.5121
   11MOL   H94812168   2.834   4.295   3.753  1.1803  1.0028 -1.2431
   11MOL   H94912169   3.071   4.103   3.734  0.5220  0.8511 -1.0835
   11MOL   H95012170   3.085   4.265   3.734 -0.2120  1.0276  1.0106
   11MOL   H95112171   3.126   4.167   3.974  0.2496  1.2473 -0.1712
   11MOL   H95212172   2.960   4.121   3.984 -1.8711  0.5186 -0.5195
   11MOL   H95312173   2.904   4.371   3.952  0.4246  0.5941 -0.8758
   11MOL   C95412174   3.078   4.420   4.036  0.2345  0.3369  0.0537
   11MOL   O95512175   3.186   4.390   4.085  0.1837  0.1096 -0.3793
   11MOL   C95612176   3.046   4.570   4.016  0.9255 -0.1857  0.0821
   11MOL   C95712177   3.146   4.653   3.936 -0.2655  0.1421  0.0258
   11MOL   C95812178   3.154   4.624   3.788  0.4501  0.8707 -0.9835
   11MOL   C95912179   3.058   4.697   3.690  0.5045  0.7196 -0.2894
   11MOL   C96012180   2.923   4.633   3.676 -0.1619  0.0888 -0.1806
   11MOL   C96112181   2.841   4.683   3.555  0.1928 -0.4008  0.1674
   11MOL   C96212182   2.715   4.599   3.533 -0.6488  0.0334 -0.1373
   11MOL   C96312183   2.629   4.653   3.413 -0.4337 -0.0811  0.0187
   11MOL   C96412184   2.519   4.560   3.375  0.7438  0.2923 -0.0005
   11MOL   C96512185   2.388   4.569   3.470  0.0713 -0.2588  0.3737
   11MOL   C96612186   2.321   4.702   3.452  0.3281  0.5670  0.1726
   11MOL   O96712187   2.258   4.724   3.354 -0.0520 -0.1527  0.3582
   11MOL   N96812188   2.338   4.800   3.550 -0.2399 -0.4703 -1.0338
   11MOL   C96912189   2.271   4.927   3.549  0.4418  0.0606 -0.0070
   11MOL   C97012190   2.121   4.911   3.571  0.4427 -0.4323  0.2694
   11MOL   C97112191   2.039   5.040   3.565 -0.5291  0.3423  0.0896
   11MOL   C97212192   2.033   5.101   3.422  0.0510 -0.4102 -0.0907
   11MOL   C97312193   1.950   5.222   3.418  0.5024  0.1489  0.0143
   11MOL   C97412194   1.929   5.289   3.277 -0.4485 -0.2709  0.1686
   11MOL   N97512195   1.805   5.356   3.277  0.5544  0.4106  0.1563
   11MOL   H97612196   2.944   4.585   3.981 -0.6606 -0.2812  4.3384
   11MOL   H97712197   3.028   4.613   4.114 -3.7206 -1.2215 -0.1917
   11MOL   H97812198   3.245   4.646   3.980  0.7453 -0.6194 -2.2571
   11MOL   H97912199   3.114   4.757   3.940 -0.7936  0.0254 -0.9220
   11MOL   H98012200   3.257   4.634   3.756  0.2519  4.7134 -0.5832
   11MOL   H98112201   3.128   4.519   3.772 -0.8606  0.5807  2.5315
   11MOL   H98212202   3.047   4.803   3.716  1.6566  1.3737 -2.3312
   11MOL   H98312203   3.101   4.701   3.590 -0.2322 -1.6725 -0.7378
   11MOL   H98412204   2.927   4.524   3.682  0.4604  0.2301  2.0831
   11MOL   H98512205   2.857   4.645   3.762  1.3336  2.3287  0.7011
   11MOL   H98612206   2.811   4.787   3.565  2.0088  0.2909 -1.1846
   11MOL   H98712207   2.905   4.684   3.466 -2.4884  1.2744 -1.8263
   11MOL   H98812208   2.746   4.495   3.519 -1.1998 -0.3417  1.3871
   11MOL   H98912209   2.656   4.592   3.624  0.1571 -0.1423  0.3775
   11MOL   H99012210   2.610   4.759   3.428 -2.0568 -0.2549 -0.7447
   11MOL   H99112211   2.697   4.637   3.329 -0.2487 -0.4547  0.2359
   11MOL   H99212212   2.554   4.456   3.376  0.2668  0.1210 -0.7505
   11MOL   H99312213   2.486   4.576   3.273 -0.2337 -1.4195  0.0167
   11MOL   H99412214   2.317   4.494   3.435  0.3848 -1.4881  2.3318
   11MOL   H99512215   2.394   4.543   3.576 -0.6811  0.9187  0.7186
   11MOL   H99612216   2.399   4.782   3.628 -1.9839  1.8420  0.9357
   11MOL   H99712217   2.297   4.984   3.460 -1.7593  0.2454 -0.5424
   11MOL   H99812218   2.317   4.981   3.633  2.0410  1.5450 -1.7747
   11MOL   H99912219   2.105   4.862   3.667  2.4604  1.3340  1.5517
   11MOL     H112220   2.072   4.852   3.494 -1.6052 -0.5761  1.6568
   11MOL     H212221   2.072   5.118   3.634 -3.3063 -0.4981  2.4992
   11MOL     H312222   1.934   5.043   3.596 -0.8771 -1.9177 -0.7990
   11MOL     H412223   2.128   5.122   3.373 -0.6853  0.8388 -1.0207
   11MOL     H512224   1.987   5.028   3.355  1.3026 -1.0257 -0.2861
   11MOL     H612225   1.992   5.297   3.485  0.4619  0.3873 -0.2260
   11MOL     H712226   1.853   5.204   3.463  0.6294 -1.0844 -0.1950
   11MOL     H812227   2.011   5.355   3.251 -0.6125 -0.1667 -0.0850
   11MOL     H912228   1.924   5.216   3.197  1.4608  1.8053 -1.9132
   11MOL    H1012229   1.720   5.302   3.266  0.2673  0.9720 -0.4911
   11MOL    C1112230   1.795   5.492   3.280 -0.4383  0.4405  0.5702
   11MOL    O1212231   1.887   5.570   3.269 -0.0100 -0.0060 -0.2488
   11MOL    C1312232   1.655   5.550   3.301 -0.1204  0.3690  0.9879
   11MOL    C1412233   1.629   5.658   3.185 -0.1170 -0.0053  0.0878
   11MOL    C1512234   1.489   5.707   3.202  0.3814  0.5124  0.3242
   11MOL    C1612235   1.457   5.799   3.084 -0.2631 -0.1986 -0.4825
   11MOL    C1712236   1.521   5.940   3.094 -0.4427  0.1411  0.1661
   11MOL    C1812237   1.469   6.043   2.993  0.0510  0.7059  0.1537
   11MOL    C1912238   1.511   6.187   3.011  0.3297 -0.4249 -0.4846
   11MOL    C2012239   1.414   6.276   2.925  0.6289  0.3819 -0.8294
   11MOL    C2112240   1.482   6.402   2.861 -1.0044  0.2249  0.5064
   11MOL    C2212241   1.570   6.371   2.742 -0.1104 -0.3607 -0.4639
   11MOL    C2312242   1.505   6.284   2.635 -0.0261  0.3421  0.6115
   11MOL    O2412243   1.427   6.330   2.552 -0.0616  0.4607 -0.1241
   11MOL    N2512244   1.541   6.159   2.638  0.0195  0.2711  0.4548
   11MOL    C2612245   1.491   6.055   2.555 -0.3057 -0.3467  0.2687
   11MOL    C2712246   1.580   6.026   2.432  0.4106 -0.1659 -0.1478
   11MOL    C2812247   1.507   5.941   2.319  0.5376 -1.1386  0.3444
   11MOL    C2912248   1.589   5.935   2.186 -0.6823  0.3660 -0.4558
   11MOL    C3012249   1.526   5.844   2.095  0.0072 -0.7438  0.1785
   11MOL    C3112250   1.540   5.690   2.142 -0.1535  0.6387 -0.2689
   11MOL    N3212251   1.672   5.635   2.132  0.0676  0.3284 -0.4399
   11MOL    H3312252   1.637   5.579   3.405  0.2117  0.9438  0.8871
   11MOL    H3412253   1.585   5.468   3.285  1.7895 -0.7857 -1.8673
   11MOL    H3512254   1.629   5.606   3.089  0.8724 -0.2207  0.1975
   11MOL    H3612255   1.711   5.728   3.169 -1.3798  1.5357  0.3297
   11MOL    H3712256   1.456   5.754   3.295  2.4259 -0.0439  1.3786
   11MOL    H3812257   1.429   5.617   3.192  0.1266  0.8218 -0.9504
   11MOL    H3912258   1.499   5.752   2.995 -0.9412 -1.0134 -0.3779
   11MOL    H4012259   1.348   5.805   3.079 -0.5535 -1.3918  3.0115
   11MOL    H4112260   1.503   5.979   3.194 -0.0246 -0.2976  0.4202
   11MOL    H4212261   1.627   5.929   3.070 -0.5410  0.9399 -0.6435
   11MOL    H4312262   1.485   6.007   2.891 -0.8227 -2.5619  1.0947
   11MOL    H4412263   1.361   6.038   3.002  0.0699 -0.4278 -0.0996
   11MOL    H4512264   1.525   6.215   3.115  0.1968  0.0313 -0.5888
   11MOL    H4612265   1.612   6.197   2.973  0.6306  1.7821  0.8202
   11MOL    H4712266   1.350   6.213   2.863  0.1521  0.4000 -0.3596
   11MOL    H4812267   1.334   6.310   2.991 -1.1721 -2.4793 -1.4140
   11MOL    H4912268   1.542   6.456   2.934 -0.5651  0.4429 -0.0160
   11MOL    H5012269   1.405   6.472   2.830 -1.1184 -0.0806  0.0864
   11MOL    H5112270   1.608   6.466   2.704 -1.3236  0.6811  0.8579
   11MOL    H5212271   1.664   6.331   2.782 -0.0670 -0.4817 -0.6858
   11MOL    H5312272   1.596   6.120   2.713 -3.2589 -2.4927  1.5811
   11MOL    H5412273   1.387   6.081   2.538  0.1437  1.2410 -0.1475
   11MOL    H5512274   1.487   5.959   2.607 -0.9556  0.7076  2.2524
   11MOL    H5612275   1.655   5.962   2.479  0.9061 -0.0212 -0.7234
   11MOL    H5712276   1.627   6.112   2.384 -0.2290  0.9293  1.1613
   11MOL    H5812277   1.416   5.992   2.288  1.5533 -0.0394 -0.8597
   11MOL    H5912278   1.463   5.846   2.349 -2.9189  0.3103  0.0733
   11MOL    H6012279   1.692   5.915   2.216 -1.7756 -0.0754  3.2119
   11MOL    H6112280   1.595   6.039   2.152  2.4633  0.2538 -0.4309
   11MOL    H6212281   1.568   5.847   1.995 -3.0543 -0.6296 -1.1780
   11MOL    H6312282   1.420   5.865   2.081  0.0501 -1.2817 -0.9990
   11MOL    H6412283   1.478   5.638   2.070  0.5218 -0.8013  0.1674
   11MOL    H6512284   1.506   5.669   2.244 -1.6481  3.5916 -0.0903
   11MOL    H6612285   1.741   5.639   2.205  0.6070 -1.2433 -0.8429
   11MOL    C6712286   1.726   5.582   2.019  0.2563  0.1391  0.2254
   11MOL    O6812287   1.669   5.580   1.908 -0.3035 -0.0244  0.4103
   11MOL    C6912288   1.861   5.507   2.041  0.3925 -0.4801 -0.3552
   11MOL    C7012289   1.922   5.440   1.921 -0.4041 -0.7772 -0.5431
   11MOL    C7112290   2.041   5.345   1.956  1.0563  0.4646 -0.0057
   11MOL    C7212291   2.164   5.420   2.007 -0.6903  0.5370  0.3457
   11MOL    C7312292   2.245   5.489   1.896 -1.1533 -0.6299 -0.3288
   11MOL    C7412293   2.383   5.538   1.949  0.4928  0.0593  0.3823
   11MOL    C7512294   2.443   5.663   1.869  0.0997  0.3476  0.2982
   11MOL    C7612295   2.568   5.716   1.940 -0.0818  0.1553 -0.3237
   11MOL    C7712296   2.625   5.831   1.870  0.3423 -0.4775 -0.4381
   11MOL    C7812297   2.552   5.968   1.885 -0.4144  0.2586 -0.4707
   11MOL    C7912298   2.563   6.020   2.033 -0.1930  0.2078  0.0234
   11MOL    O8012299   2.672   6.042   2.082 -0.4410 -0.0385  0.3789
   11MOL    N8112300   2.454   6.021   2.103  0.1008  0.0046  0.0054
   11MOL    C8212301   2.440   6.042   2.240 -0.7578 -0.1051  0.8652
   11MOL    C8312302   2.296   6.043   2.280  0.6853 -0.3039 -0.6843
   11MOL    C8412303   2.212   5.916   2.254 -0.6733 -0.0345 -0.7386
   11MOL    C8512304   2.060   5.943   2.271 -0.4552  0.5175 -0.9777
   11MOL    C8612305   1.987   5.814   2.251 -0.1639 -0.2480 -0.3891
   11MOL    C8712306   1.933   5.749   2.379  0.2386 -0.5966  0.1246
   11MOL    N8812307   1.863   5.626   2.352  0.6848  0.4579  0.0404
   11MOL    H8912308   1.849   5.432   2.119  1.9227 -1.0413 -0.6450
   11MOL    H9012309   1.931   5.573   2.092  0.6604 -1.5570  0.7081
   11MOL    H9112310   1.844   5.374   1.882  0.5121 -2.4101  0.3358
   11MOL    H9212311   1.946   5.515   1.847  1.2032  1.4628  2.1569
   11MOL    H9312312   2.029   5.264   2.028  1.5343 -0.8152 -1.3385
   11MOL    H9412313   2.074   5.296   1.864 -1.2992 -0.7062 -0.2760
   11MOL    H9512314   2.147   5.495   2.084 -1.0644  0.5909  0.2092
   11MOL    H9612315   2.235   5.344   2.041 -1.0925 -0.1312 -0.3146
   11MOL    H9712316   2.274   5.420   1.817  2.8104 -0.6177  1.0085
   11MOL    H9812317   2.188   5.567   1.846  0.4993  1.4846  0.9886
   11MOL    H9912318   2.379   5.561   2.055  0.9419 -1.1388  0.6693
   11MOL   H10012319   2.456   5.457   1.946  1.5190  1.0022 -0.9741
   11MOL   H10112320   2.374   5.746   1.851 -2.3192 -1.8883 -1.1990
   11MOL   H10212321   2.457   5.618   1.771 -0.0433  0.4295  0.2400
   11MOL   H10312322   2.541   5.737   2.044 -2.1114  0.5328 -0.9049
   11MOL   H10412323   2.646   5.645   1.965 -0.4141  0.1678  0.8027
   11MOL   H10512324   2.625   5.803   1.764 -0.6396  0.8478 -0.8015
   11MOL   H10612325   2.729   5.852   1.895  1.1013 -1.5861 -2.5104
   11MOL   H10712326   2.603   6.042   1.824  1.0007  0.6638  1.1678
   11MOL   H10812327   2.451   5.973   1.843 -0.1017 -2.5933 -1.6805
   11MOL   H10912328   2.370   5.980   2.065  1.1221 -2.6828  0.4797
   11MOL   H11012329   2.499   6.129   2.269 -0.4866 -0.3459  1.0453
   11MOL   H11112330   2.487   5.960   2.295  0.5719 -0.1060 -0.2557
   11MOL   H11212331   2.261   6.138   2.238 -0.9293 -0.0986  1.0674
   11MOL   H11312332   2.275   6.075   2.382  0.0309  0.2910 -0.9978
   11MOL   H11412333   2.247   5.841   2.324  0.2666  0.1634 -0.9935
   11MOL   H11512334   2.237   5.872   2.158 -2.4749  0.8420 -1.6462
   11MOL   H11612335   2.039   5.990   2.367 -1.3823 -0.4459 -0.6934
   11MOL   H11712336   2.027   6.015   2.197 -1.0844  1.0362 -0.1969
   11MOL   H11812337   1.906   5.837   2.183  0.4718  0.7878 -0.8018
   11MOL   H11912338   2.043   5.731   2.207  1.3142  0.5351 -0.0192
   11MOL   H12012339   2.019   5.724   2.440  0.3402 -4.5683 -1.5328
   11MOL   H12112340   1.858   5.811   2.429 -0.1260  0.3621 -1.5403
   11MOL   H12212341   1.873   5.578   2.440  2.2388 -0.3376 -0.5385
   11MOL   H12312342   1.932   5.568   2.305  1.9845  1.9712  0.0229
   12MOL     C112343   6.778   3.503   0.838  0.2281 -0.7442  0.8740
   12MOL     O212344   6.773   3.620   0.800 -0.2114 -0.3248  0.3501
   12MOL     C312345   6.778   3.476   0.989 -0.4145 -0.3804  0.2417
   12MOL     C412346   6.667   3.544   1.072  0.2616  0.0005 -0.1403
   12MOL     C512347   6.532   3.498   1.033  0.7548  0.1381  1.3940
   12MOL     C612348   6.415   3.580   1.085 -0.0276  0.2485  0.1730
   12MOL     C712349   6.389   3.573   1.239  0.1971  0.5380  0.3670
   12MOL     C812350   6.253   3.638   1.279  0.1967  0.5524  0.0215
   12MOL     C912351   6.242   3.651   1.424  0.5929 -0.6414 -0.1445
   12MOL    C1012352   6.109   3.716   1.464  0.3197 -0.9264 -0.3904
   12MOL    C1112353   6.095   3.718   1.618  0.4561 -0.5900  0.0790
   12MOL    C1212354   5.963   3.786   1.664  0.4577  0.2345 -0.5819
   12MOL    C1312355   5.963   3.805   1.812  0.8173  0.0388  0.1307
   12MOL    O1412356   6.054   3.865   1.865  0.7743  0.4601  0.5291
   12MOL    N1512357   5.866   3.752   1.883  0.0110  0.3340  0.5262
   12MOL    C1612358   5.849   3.790   2.020  0.3821 -0.6331 -0.1431
   12MOL    C1712359   5.712   3.858   2.045 -0.2136  0.3036 -0.1237
   12MOL    C1812360   5.688   3.904   2.187 -0.3256  0.1088 -0.5553
   12MOL    C1912361   5.539   3.952   2.216 -0.6383 -0.2953 -0.5030
   12MOL    C2012362   5.513   4.016   2.360  0.3504  0.1429 -0.0326
   12MOL    C2112363   5.365   4.034   2.392  0.9244 -0.0535  0.0887
   12MOL    N2212364   5.346   4.051   2.537  0.1038  0.3201  0.4627
   12MOL    H2312365   6.875   3.501   1.032 -0.5493  1.6526 -0.5744
   12MOL    H2412366   6.764   3.368   0.993 -0.5172 -0.3358  1.2158
   12MOL    H2512367   6.684   3.652   1.072  1.4362 -0.1264  2.7378
   12MOL    H2612368   6.675   3.504   1.173 -1.6171 -0.9701 -0.3538
   12MOL    H2712369   6.516   3.393   1.061  1.5625 -0.1642  0.7532
   12MOL    H2812370   6.524   3.502   0.925  0.7400 -2.2756  1.2686
   12MOL    H2912371   6.414   3.679   1.040 -1.2909 -0.7496 -2.1101
   12MOL    H3012372   6.326   3.532   1.043 -0.0874  0.4660  0.0519
   12MOL    H3112373   6.472   3.619   1.294  1.0989  0.7423 -1.1490
   12MOL    H3212374   6.386   3.468   1.269 -0.5121  0.9567  1.8236
   12MOL    H3312375   6.244   3.731   1.222 -0.9807  0.2083 -0.3684
   12MOL    H3412376   6.173   3.575   1.241  1.5984 -0.3696 -1.5051
   12MOL    H3512377   6.242   3.556   1.476 -1.5809 -1.9257 -2.3769
   12MOL    H3612378   6.317   3.721   1.461 -0.9763  1.1832 -0.3357
   12MOL    H3712379   6.092   3.818   1.432 -0.1359 -0.7160  0.5302
   12MOL    H3812380   6.036   3.650   1.417  0.3602  0.7168 -2.8199
   12MOL    H3912381   6.179   3.767   1.668 -0.3308 -1.1213  1.9780
   12MOL    H4012382   6.094   3.618   1.661 -0.4971 -0.3390  0.6791
   12MOL    H4112383   5.937   3.879   1.615  0.6903  0.7971  0.3433
   12MOL    H4212384   5.868   3.738   1.643 -0.6031  1.5568  1.0702
   12MOL    H4312385   5.816   3.670   1.855  1.4094  0.6282 -3.0691
   12MOL    H4412386   5.929   3.853   2.058 -0.4367  0.2857  0.0679
   12MOL    H4512387   5.858   3.699   2.079  1.1123  0.1811  1.0139
   12MOL    H4612388   5.632   3.789   2.017  0.9804  0.1454 -3.3289
   12MOL    H4712389   5.699   3.946   1.983  0.1184  0.1331 -0.4383
   12MOL    H4812390   5.723   3.823   2.251 -1.7322  1.2651  1.7503
   12MOL    H4912391   5.754   3.988   2.211  1.2671 -0.7653 -1.7691
   12MOL    H5012392   5.466   3.872   2.205  1.1275 -1.8734 -0.8968
   12MOL    H5112393   5.501   4.018   2.138 -3.4618 -0.2619  0.8285
   12MOL    H5212394   5.560   3.952   2.434 -0.1111 -0.2698 -0.0970
   12MOL    H5312395   5.557   4.113   2.384  1.3784 -0.2932 -0.1506
   12MOL    H5412396   5.335   4.126   2.341  1.5510 -0.2576 -0.6518
   12MOL    H5512397   5.306   3.954   2.348 -0.2666  0.0021  1.5606
   12MOL    H5612398   5.377   4.139   2.578  0.5777 -0.6344  2.2003
   12MOL    H5712399   6.782   3.417   0.771 -0.9725  0.7050 -1.1056
   12MOL    C5812400   5.310   3.952   2.621  0.0931 -0.1143  0.3154
   12MOL    O5912401   5.290   3.839   2.581  0.2568 -0.0678  0.2383
   12MOL    C6012402   5.301   3.994   2.766 -0.5255 -0.5569  0.1311
   12MOL    C6112403   5.210   3.915   2.858  0.1962 -0.1555  0.2038
   12MOL    C6212404   5.275   3.793   2.923  0.0392  0.3695 -0.2477
   12MOL    C6312405   5.364   3.838   3.045 -0.6024  0.4036  0.0002
   12MOL    C6412406   5.425   3.725   3.127  0.0749  0.3065  0.7372
   12MOL    C6512407   5.527   3.777   3.232 -0.5493 -0.0853 -0.6493
   12MOL    C6612408   5.625   3.673   3.288 -0.7268  0.4533  0.2990
   12MOL    C6712409   5.717   3.706   3.400 -0.2603 -1.0667 -0.1393
   12MOL    C6812410   5.841   3.623   3.404  0.1777  0.0708 -0.5933
   12MOL    C6912411   5.817   3.484   3.471 -0.0686  0.6954  0.5263
   12MOL    C7012412   5.945   3.404   3.488  0.1357 -0.1508  0.5237
   12MOL    O7112413   6.031   3.448   3.564 -0.0398  0.6243  0.1888
   12MOL    N7212414   5.964   3.295   3.410 -0.3280  0.8993 -0.9217
   12MOL    C7312415   6.081   3.210   3.392  0.5282 -0.7148 -0.0457
   12MOL    C7412416   6.060   3.108   3.288 -0.6429  0.1993 -0.4880
   12MOL    C7512417   6.141   2.982   3.331 -0.7109 -0.5125 -0.1429
   12MOL    C7612418   6.115   2.860   3.239 -0.3700 -0.5856  0.7574
   12MOL    C7712419   6.180   2.737   3.285  0.7120  0.4025  0.7698
   12MOL    C7812420   6.130   2.610   3.220  0.0588  0.5878 -0.0226
   12MOL    N7912421   6.167   2.612   3.081  0.8692 -0.3665 -0.2510
   12MOL    H8012422   5.264   4.096   2.760  3.9812  1.1898  0.5007
   12MOL    H8112423   5.398   4.021   2.807 -2.5220 -0.0753  4.7950
   12MOL    H8212424   5.159   3.986   2.923  1.8507  1.0158  0.2434
   12MOL    H8312425   5.136   3.868   2.792 -0.2102 -1.9732  1.9032
   12MOL    H8412426   5.329   3.731   2.852 -1.2881 -1.0591 -0.0357
   12MOL    H8512427   5.192   3.731   2.958  1.4694 -0.6300  1.4487
   12MOL    H8612428   5.307   3.901   3.113  0.4083  1.1789  0.1423
   12MOL    H8712429   5.449   3.896   3.009  1.5293 -1.9914  1.0393
   12MOL    H8812430   5.355   3.662   3.182 -0.5722  1.6666  1.4860
   12MOL    H8912431   5.476   3.670   3.048  1.3020  0.1068  1.6575
   12MOL    H9012432   5.466   3.812   3.314 -1.4126 -0.5619 -1.0797
   12MOL    H9112433   5.578   3.860   3.182 -0.4166 -0.1811 -0.6738
   12MOL    H9212434   5.685   3.633   3.207 -0.9798 -0.0593  0.3624
   12MOL    H9312435   5.558   3.602   3.337 -0.3262  0.5180  0.9428
   12MOL    H9412436   5.749   3.806   3.369  0.2008 -1.1967 -0.0932
   12MOL    H9512437   5.677   3.718   3.500  2.6353 -0.3456  0.9968
   12MOL    H9612438   5.919   3.675   3.460 -0.6219 -1.8878  2.5400
   12MOL    H9712439   5.875   3.612   3.302 -0.5821  0.3525 -0.8813
   12MOL    H9812440   5.779   3.504   3.571 -2.3288  0.5482 -0.2869
   12MOL    H9912441   5.742   3.427   3.416  1.1695  0.4773 -0.9763
   12MOL   H10012442   5.896   3.299   3.336 -0.7689  0.0638 -0.5755
   12MOL   H10112443   6.112   3.167   3.488  0.5743  1.5578  0.9872
   12MOL   H10212444   6.167   3.271   3.361  0.2669 -1.0929 -1.5323
   12MOL   H10312445   5.956   3.076   3.301 -0.2062 -0.2937  2.0803
   12MOL   H10412446   6.074   3.135   3.183  0.0702 -1.1489 -0.7614
   12MOL   H10512447   6.124   2.942   3.431 -1.1801  0.5223  0.1942
   12MOL   H10612448   6.248   3.000   3.338 -0.9878  1.1379 -0.1113
   12MOL   H10712449   6.008   2.839   3.243 -0.3301 -0.8440  0.5158
   12MOL   H10812450   6.137   2.874   3.133 -0.6741  1.2510  0.9243
   12MOL   H10912451   6.174   2.724   3.394  0.9380  0.6818  0.8165
   12MOL   H11012452   6.287   2.736   3.268  0.6911  0.2583  0.6505
   12MOL   H11112453   6.021   2.619   3.227 -0.0670 -0.8928  0.2228
   12MOL   H11212454   6.174   2.523   3.268  1.2757  1.3555  0.2556
   12MOL   H11312455   6.139   2.693   3.028  1.6386  0.4050  0.5098
   12MOL   C11412456   6.251   2.538   3.018 -0.1122  0.7291 -0.2206
   12MOL   O11512457   6.301   2.438   3.078 -0.1296  0.4462 -0.5417
   12MOL   C11612458   6.276   2.567   2.871  0.3587  0.1113 -0.0388
   12MOL   C11712459   6.395   2.660   2.845 -0.4828 -0.2113 -0.3624
   12MOL   C11812460   6.406   2.788   2.925  1.1626  0.3742 -0.3869
   12MOL   C11912461   6.524   2.878   2.894 -0.1218  0.0588 -0.0770
   12MOL   C12012462   6.505   3.011   2.974 -0.0827 -0.6063 -0.0613
   12MOL   C12112463   6.603   3.129   2.949  0.2224  0.0315 -0.3910
   12MOL   C12212464   6.748   3.077   2.957 -0.5003  0.2089 -0.2171
   12MOL   C12312465   6.846   3.193   2.937  0.1569  0.1497  0.2731
   12MOL   C12412466   6.996   3.170   2.973 -0.2015 -0.2220 -0.3596
   12MOL   C12512467   7.040   3.250   3.095  0.0158  0.3608  0.5822
   12MOL   C12612468   6.947   3.227   3.216 -0.3020 -0.7231 -0.6872
   12MOL   O12712469   6.919   3.117   3.246 -0.1104  0.4107 -0.3952
   12MOL   N12812470   6.892   3.332   3.281 -0.3474 -0.2386 -0.6161
   12MOL   C12912471   6.794   3.321   3.390  0.0700  0.7048  0.2655
   12MOL   C13012472   6.662   3.392   3.356  0.1551  0.4444  0.1007
   12MOL   C13112473   6.534   3.356   3.446 -0.3000 -0.1159 -0.8747
   12MOL   C13212474   6.425   3.458   3.431 -0.2127 -0.1743  0.1596
   12MOL   C13312475   6.355   3.489   3.291 -1.2276  0.1234 -0.2514
   12MOL   C13412476   6.250   3.595   3.316  0.3379  0.1138  0.1107
   12MOL   N13512477   6.252   3.700   3.213 -0.0823 -0.5173  0.0659
   12MOL   H13612478   6.297   2.468   2.829 -1.4877 -0.3113  0.0186
   12MOL   H13712479   6.190   2.607   2.819 -1.1545 -2.1232  0.6827
   12MOL   H13812480   6.392   2.708   2.747 -1.1913 -0.9099 -0.6837
   12MOL   H13912481   6.481   2.597   2.867 -0.3066  0.2114  0.1877
   12MOL   H14012482   6.313   2.837   2.899  0.0096 -1.6887 -0.3160
   12MOL   H14112483   6.416   2.767   3.032 -0.3587  0.4808 -0.2177
   12MOL   H14212484   6.622   2.838   2.921 -0.6512  0.2287  2.2378
   12MOL   H14312485   6.526   2.903   2.788 -2.7222  2.0025  0.2875
   12MOL   H14412486   6.411   3.060   2.949  0.4872 -0.4135 -1.9169
   12MOL   H14512487   6.498   2.991   3.081 -0.2608  1.5961  0.3682
   12MOL   H14612488   6.573   3.204   3.022 -0.8383  0.5626 -1.3403
   12MOL   H14712489   6.577   3.168   2.851  0.6232 -1.0834 -0.9502
   12MOL   H14812490   6.753   3.033   3.057  0.0393  0.3671 -0.1722
   12MOL   H14912491   6.772   3.002   2.882 -0.7003 -0.5071  0.4224
   12MOL   H15012492   6.814   3.287   2.982 -1.5314  0.5163 -1.6241
   12MOL   H15112493   6.841   3.211   2.829  0.2822  2.0317  0.5568
   12MOL   H15212494   7.053   3.217   2.893 -0.9404  0.2083 -0.6292
   12MOL   H15312495   7.037   3.068   2.969  2.5295  0.8550 -1.2685
   12MOL   H15412496   7.052   3.355   3.067 -1.3620  0.2458 -0.5311
   12MOL   H15512497   7.136   3.209   3.125  0.8415 -0.2455 -2.6745
   12MOL   H15612498   6.911   3.425   3.244 -2.2474  0.9662  1.3468
   12MOL   H15712499   6.844   3.367   3.476  0.4399  0.1163  0.3680
   12MOL   H15812500   6.773   3.219   3.420 -0.3259  0.2719 -1.4496
   12MOL   H15912501   6.641   3.375   3.250 -1.2964  1.3926  0.2212
   12MOL   H16012502   6.676   3.500   3.360 -1.1963  0.6851 -1.2738
   12MOL   H16112503   6.491   3.266   3.400 -2.6813  1.1918 -1.2944
   12MOL   H16212504   6.567   3.343   3.548 -1.1565 -0.2371 -0.6095
   12MOL   H16312505   6.346   3.415   3.493 -0.6336 -0.4399 -0.5546
   12MOL   H16412506   6.453   3.554   3.475  0.7538  0.1719 -1.1873
   12MOL   H16512507   6.301   3.408   3.241 -1.2217 -0.3266  0.4605
   12MOL   H16612508   6.430   3.523   3.219 -0.7971  0.4381  0.3474
   12MOL   H16712509   6.153   3.547   3.308 -0.2959  1.3207  0.3937
   12MOL   H16812510   6.244   3.652   3.409 -1.4302  1.7224 -0.9586
   12MOL   H16912511   6.171   3.700   3.154 -0.2181 -1.1312  0.2482
   12MOL   C17012512   6.349   3.790   3.200 -1.2086  0.0356  0.2604
   12MOL   O17112513   6.458   3.791   3.252 -0.5675  0.3260  0.1337
   12MOL   C17212514   6.327   3.909   3.094  0.0375 -0.0005 -1.1259
   12MOL   C17312515   6.398   4.039   3.120  0.6112  0.1202 -0.8461
   12MOL   C17412516   6.349   4.159   3.037  0.7800 -0.0087 -0.3645
   12MOL   C17512517   6.365   4.141   2.881  1.2014 -0.2062 -0.0439
   12MOL   C17612518   6.286   4.256   2.819  0.6006  0.4363 -0.2288
   12MOL   C17712519   6.280   4.271   2.663  0.7340  0.2527  0.1506
   12MOL   C17812520   6.412   4.287   2.598  0.0535 -0.1479  0.2781
   12MOL   C17912521   6.398   4.294   2.443 -1.0007 -0.0670  1.0030
   12MOL   C18012522   6.538   4.307   2.389 -0.3762 -0.7631 -0.5363
   12MOL   C18112523   6.537   4.313   2.224 -0.0165  0.3913 -0.1383
   12MOL   C18212524   6.524   4.454   2.166  0.9986 -0.0666  0.3870
   12MOL   O18312525   6.558   4.548   2.234  0.3685  0.1534 -0.2310
   12MOL   N18412526   6.470   4.477   2.046 -0.4506  0.1374 -0.0209
   12MOL   C18512527   6.486   4.603   1.973 -0.2030 -0.1096  0.3136
   12MOL   C18612528   6.616   4.596   1.879 -0.1857 -0.3632 -0.2173
   12MOL   C18712529   6.612   4.484   1.778 -0.2946  0.5386 -0.0391
   12MOL   C18812530   6.748   4.465   1.693 -0.0084  0.0928 -0.2665
   12MOL   C18912531   6.730   4.395   1.556  0.1034  0.2260 -0.7252
   12MOL   C19012532   6.868   4.338   1.500  0.1461  0.5679  0.3282
   12MOL   N19112533   6.956   4.452   1.470 -0.5967  0.0752  0.3914
   12MOL   H19212534   6.351   3.876   2.993  0.3160 -0.6904 -0.8384
   12MOL   H19312535   6.219   3.922   3.088 -0.5437 -0.5623  5.0983
   12MOL   H19412536   6.504   4.031   3.097  0.5466  0.5903 -1.3246
   12MOL   H19512537   6.396   4.069   3.225 -0.9276  0.5953 -0.9822
   12MOL   H19612538   6.399   4.249   3.069 -0.4738  0.0758  1.4342
   12MOL   H19712539   6.245   4.164   3.072  0.9682  1.5345 -0.0148
   12MOL   H19812540   6.472   4.138   2.860  1.5116 -1.7407  1.5996
   12MOL   H19912541   6.315   4.049   2.848 -1.6225  1.1898  0.2003
   12MOL   H20012542   6.185   4.261   2.859  1.3505  2.4320  1.5515
   12MOL   H20112543   6.329   4.346   2.863  0.5514  0.1258  0.4608
   12MOL   H20212544   6.206   4.346   2.632  1.1912 -0.4808 -2.9358
   12MOL   H20312545   6.231   4.178   2.636  0.8568  0.3914 -0.5657
   12MOL   H20412546   6.456   4.381   2.631  1.5265 -0.8942  0.4810
   12MOL   H20512547   6.473   4.205   2.636 -0.8977 -0.8480  0.3005
   12MOL   H20612548   6.371   4.199   2.397  1.8484  0.2784 -1.5879
   12MOL   H20712549   6.329   4.370   2.408 -1.2670 -0.2839  1.0579
   12MOL   H20812550   6.600   4.222   2.418 -0.2266  0.3184  2.5910
   12MOL   H20912551   6.595   4.387   2.438 -1.1217 -2.2920  3.0033
   12MOL   H21012552   6.622   4.263   2.176 -0.0550 -1.2400  1.4196
   12MOL   H21112553   6.455   4.262   2.173 -1.5272  0.6133  2.0129
   12MOL   H21212554   6.410   4.407   2.004  0.0175 -0.2913  0.0224
   12MOL   H21312555   6.494   4.685   2.045 -1.1774  1.0134 -0.8311
   12MOL   H21412556   6.391   4.607   1.919 -0.2792  3.2212  0.5655
   12MOL   H21512557   6.610   4.693   1.829 -0.5934 -0.9546 -1.3396
   12MOL   H21612558   6.706   4.587   1.940 -0.6018  1.2304  0.6914
   12MOL   H21712559   6.594   4.388   1.827 -2.8429  1.0687  0.1108
   12MOL   H21812560   6.533   4.495   1.704  2.5057 -1.0662 -3.4108
   12MOL   H21912561   6.818   4.407   1.754  0.4593  1.2440  0.2999
   12MOL   H22012562   6.788   4.563   1.668  0.8085 -0.5995 -1.7779
   12MOL   H22112563   6.686   4.462   1.482 -2.3329 -2.6682 -1.9728
   12MOL   H22212564   6.655   4.317   1.568  0.6166 -0.1483  0.0812
   12MOL   H22312565   6.855   4.279   1.410  4.5801  1.6533 -1.1605
   12MOL   H22412566   6.917   4.272   1.571  0.7498 -1.7019 -2.1227
   12MOL   H22512567   6.920   4.524   1.409 -0.1008  1.0093  1.1879
   12MOL   C22612568   7.074   4.478   1.527  0.4030  0.1472  0.6685
   12MOL   O22712569   7.137   4.388   1.582  0.2443  0.6651 -0.2358
   12MOL   C22812570   7.134   4.614   1.498  0.2909  0.4134  0.9709
   12MOL   C22912571   7.261   4.596   1.406  0.4035 -0.9316  0.2847
   12MOL   C23012572   7.237   4.565   1.256  0.0851  0.0671 -0.3340
   12MOL   C23112573   7.366   4.582   1.171  0.5279 -0.3523  0.0514
   12MOL   C23212574   7.404   4.724   1.151 -0.2215 -0.3432  0.2325
   12MOL   C23312575   7.539   4.749   1.079 -0.5865  1.0126 -0.0944
   12MOL   C23412576   7.581   4.897   1.054  0.2932  0.1332 -0.1162
   12MOL   C23512577   7.679   4.937   1.166  0.0456  0.0674  0.4072
   12MOL   C23612578   0.063   5.061   1.140  0.0458 -0.3952  0.4837
   12MOL   C23712579   0.192   5.058   1.238  0.1877 -0.3448 -0.3408
   12MOL   C23812580   0.257   5.195   1.237 -0.2927  0.5952  0.7304
   12MOL   O23912581   0.200   5.285   1.301  0.0296  0.1127 -0.5175
   12MOL   N24012582   0.363   5.212   1.168 -0.6736  0.1640  0.3932
   12MOL   C24112583   0.442   5.335   1.153 -0.0550  0.1109  0.6106
   12MOL   C24212584   0.495   5.382   1.288  0.1907  0.2196  0.1539
   12MOL   C24312585   0.594   5.493   1.269 -0.1159 -0.0368 -0.4815
   12MOL   C24412586   0.541   5.619   1.207 -0.1146  0.1080  0.0864
   12MOL   C24512587   0.632   5.730   1.242 -0.6082  0.3699 -0.1110
   12MOL   C24612588   0.593   5.862   1.166  0.6243  0.1132 -0.3136
   12MOL   N24712589   0.694   5.968   1.187  0.2281 -0.4452 -0.3656
   12MOL   H24812590   7.153   4.656   1.597 -2.0915 -0.0656  1.6677
   12MOL   H24912591   7.070   4.684   1.444  0.8332 -0.0628 -0.2938
   12MOL   H25012592   7.312   4.692   1.412 -0.5913 -0.3617 -0.3210
   12MOL   H25112593   7.327   4.519   1.446  0.5313 -1.4350 -0.8806
   12MOL   H25212594   7.199   4.463   1.248 -0.2335  0.1818 -0.2930
   12MOL   H25312595   7.154   4.627   1.222 -0.8917 -0.8472  0.3260
   12MOL   H25412596   7.353   4.547   1.069 -1.5370 -1.1735  0.5770
   12MOL   H25512597   7.447   4.520   1.212  1.3387  0.4294 -0.3448
   12MOL   H25612598   7.413   4.774   1.247  1.4726  1.6214 -0.9069
   12MOL   H25712599   7.328   4.775   1.091 -1.3781  0.0283  1.9893
   12MOL   H25812600   7.610   4.689   1.136 -0.1937  2.2826  0.7931
   12MOL   H25912601   7.524   4.710   0.978 -0.5576  1.5960 -0.3259
   12MOL   H26012602   7.488   4.954   1.053 -0.9695 -1.8597  0.6328
   12MOL   H26112603   7.631   4.903   0.957  1.0430  2.0575  0.3860
   12MOL   H26212604   7.626   4.948   1.261  2.9121  1.1196  1.9495
   12MOL   H26312605   0.067   4.863   1.174  1.2252  1.3863  1.1435
   12MOL   H26412606   0.106   5.075   1.041  1.7680  3.8233  1.7011
   12MOL   H26512607   0.009   5.153   1.164 -0.3922 -0.5091 -0.0493
   12MOL   H26612608   0.176   5.035   1.344 -0.0034 -1.5869 -0.6358
   12MOL   H26712609   0.258   4.979   1.202  0.5914 -0.9185  1.5797
   12MOL   H26812610   0.392   5.135   1.109  0.2021  0.0793  0.9309
   12MOL   H26912611   0.371   5.412   1.120 -0.7655  0.1360  2.1692
   12MOL   H27012612   0.504   5.308   1.068 -1.1148  0.7867 -0.4008
   12MOL   H27112613   0.530   5.299   1.350 -3.0763 -0.3446  1.3320
   12MOL   H27212614   0.407   5.424   1.336  0.5832  2.3630 -0.9573
   12MOL   H27312615   0.632   5.521   1.367 -1.5695  1.0191 -0.1953
   12MOL   H27412616   0.675   5.456   1.206  1.4925  1.4991  0.6487
   12MOL   H27512617   0.436   5.637   1.230 -0.1961  0.1244 -0.2926
   12MOL   H27612618   0.547   5.617   1.098 -0.5753 -1.6056  0.0784
   12MOL   H27712619   0.733   5.700   1.217 -1.1516 -0.4799 -1.2859
   12MOL   H27812620   0.638   5.754   1.349 -1.6272  1.5482 -0.2987
   12MOL   H27912621   0.506   5.899   1.219  0.8921  1.4250 -0.7638
   12MOL   H28012622   0.577   5.854   1.058 -0.2498  0.3399 -0.1999
   12MOL   H28112623   0.707   5.998   1.283 -0.8674  0.0474 -0.3592
   12MOL   C28212624   0.793   5.997   1.104  0.1412  0.1201 -0.3139
   12MOL   O28312625   0.796   5.955   0.994  0.4166 -0.4143 -0.3506
   12MOL   C28412626   0.900   6.093   1.156  0.3839  0.7021 -0.2610
   12MOL   C28512627   1.041   6.025   1.162 -0.0140 -0.1326 -0.5494
   12MOL   C28612628   1.070   5.911   1.263  0.3807  0.4956 -0.2026
   12MOL   C28712629   1.053   5.940   1.416  0.2750 -0.1972 -0.3232
   12MOL   C28812630   1.056   5.820   1.516  0.2553 -0.0170 -0.1582
   12MOL   C28912631   0.918   5.754   1.521  0.3110  0.2712  0.3695
   12MOL   C29012632   0.889   5.683   1.643 -0.4912  0.4877 -0.7548
   12MOL   C29112633   0.756   5.598   1.633 -0.1164  0.0616 -0.8894
   12MOL   C29212634   0.723   5.539   1.765  1.1528 -0.2414 -0.2249
   12MOL   C29312635   0.578   5.486   1.784 -0.9294 -0.7181 -0.5240
   12MOL   C29412636   0.541   5.368   1.697 -0.3473 -0.1802 -0.7448
   12MOL   O29512637   0.625   5.306   1.626  0.3134 -0.1325  0.0795
   12MOL   N29612638   0.416   5.343   1.702 -0.0526  0.7992  0.5371
   12MOL   C29712639   0.343   5.231   1.637  0.2850 -0.4710  0.0801
   12MOL   C29812640   0.387   5.100   1.707 -0.2798 -0.1833 -0.0780
   12MOL   C29912641   0.289   4.982   1.679  0.1188  0.1664  0.4810
   12MOL   C30012642   0.342   4.848   1.729  0.5644  1.4222 -0.5364
   12MOL   C30112643   0.353   4.830   1.882 -0.1791 -0.4106  0.1935
   12MOL   C30212644   0.490   4.855   1.947 -0.3736 -0.2642  0.4852
   12MOL   N30312645   0.489   4.826   2.090  0.0289  0.5203  0.0991
   12MOL   H30412646   0.905   6.171   1.080  1.2154  0.7755 -0.1260
   12MOL   H30512647   0.869   6.143   1.248 -1.6057  1.6429 -1.4134
   12MOL   H30612648   1.113   6.098   1.198 -0.6968 -1.7513  4.4700
   12MOL   H30712649   1.067   6.003   1.059 -2.6858 -3.2145 -0.6241
   12MOL   H30812650   0.994   5.837   1.238 -1.9751  2.1060  2.0225
   12MOL   H30912651   1.173   5.880   1.246  0.4970  0.8096 -0.0692
   12MOL   H31012652   0.968   6.007   1.428 -0.1453 -0.4294 -1.8526
   12MOL   H31112653   1.140   5.995   1.452  0.2192  0.5566 -1.3250
   12MOL   H31212654   1.122   5.744   1.475 -2.0591 -1.1762 -1.8266
   12MOL   H31312655   1.097   5.853   1.611 -0.5746 -0.6171  0.4072
   12MOL   H31412656   0.845   5.828   1.487  0.1211 -0.5901 -1.1818
   12MOL   H31512657   0.923   5.689   1.433  2.0832  1.7293 -0.6509
   12MOL   H31612658   0.881   5.763   1.717  1.1259  2.5880 -2.7333
   12MOL   H31712659   0.979   5.631   1.676 -0.5510  2.1861  2.2022
   12MOL   H31812660   0.772   5.531   1.548  1.1581  0.7691 -1.2049
   12MOL   H31912661   0.682   5.667   1.591  1.1255  1.9827  0.0415
   12MOL   H32012662   0.787   5.451   1.772  0.1523 -0.7412  3.4628
   12MOL   H32112663   0.763   5.590   1.853  0.0129  0.1244  0.0828
   12MOL   H32212664   0.553   5.487   1.891 -1.0298  1.2305 -0.5361
   12MOL   H32312665   0.512   5.566   1.749  0.1207 -0.1534 -1.2203
   12MOL   H32412666   0.364   5.393   1.772  1.5010  0.0330  2.2856
   12MOL   H32512667   0.336   5.229   1.528 -1.0908 -1.9712  0.1833
   12MOL   H32612668   0.240   5.249   1.666  0.8200  2.4913  0.3084
   12MOL   H32712669   0.392   5.113   1.815 -0.5552 -0.6007 -0.0106
   12MOL   H32812670   0.484   5.064   1.671 -0.0184 -1.3949  1.7742
   12MOL   H32912671   0.254   4.981   1.576 -1.5290  0.2023  1.0206
   12MOL   H33012672   0.195   5.013   1.724 -1.0826  0.0290 -1.8513
   12MOL   H33112673   0.286   4.762   1.693  2.8308 -0.3986  0.1670
   12MOL   H33212674   0.439   4.835   1.681  0.6129  1.1893 -0.3778
   12MOL   H33312675   0.341   4.725   1.908 -0.8133 -0.5660 -0.7044
   12MOL   H33412676   0.272   4.877   1.937 -1.2202 -1.3977 -0.4849
   12MOL   H33512677   0.574   4.798   1.909  1.4944  2.3481  0.5497
   12MOL   H33612678   0.513   4.958   1.920  2.8100 -1.3028 -0.9854
   12MOL   H33712679   0.471   4.733   2.125  1.1991 -0.0260 -0.7411
   12MOL   C33812680   0.497   4.913   2.187 -0.2571 -0.7197 -0.4181
   12MOL   O33912681   0.518   5.031   2.170 -0.1647  0.1658 -0.2205
   12MOL   C34012682   0.491   4.852   2.324  0.1673  1.0229  0.1255
   12MOL   C34112683   0.545   4.943   2.436  0.4155  0.2402  0.2959
   12MOL   C34212684   0.604   4.862   2.551 -0.4490 -0.0163  0.5871
   12MOL   C34312685   0.490   4.769   2.597  0.1195 -0.6142 -0.2813
   12MOL   C34412686   0.531   4.717   2.735 -0.2885  0.7699 -0.1647
   12MOL   C34512687   0.623   4.591   2.723  0.0896 -0.4473 -0.5084
   12MOL   C34612688   0.711   4.567   2.845  0.1785 -0.8426 -0.3165
   12MOL   C34712689   0.789   4.431   2.845 -0.2607 -0.1236  0.0522
   12MOL   C34812690   0.883   4.404   2.962  0.6417 -0.5874  0.4646
   12MOL   C34912691   0.961   4.274   2.963 -0.1965  0.0353  0.5680
   12MOL   C35012692   1.041   4.245   3.085 -0.8200 -0.1086  0.1791
   12MOL   O35112693   1.105   4.334   3.137  0.5278 -0.1227 -0.0427
   12MOL   N35212694   1.058   4.114   3.119 -0.0488 -0.7028  0.0143
   12MOL   C35312695   1.148   4.070   3.225 -0.2524  0.2606  0.0591
   12MOL   C35412696   1.198   3.928   3.208 -0.4651  0.2443  0.8028
   12MOL   C35512697   1.300   3.904   3.317 -0.1708 -0.6780 -0.1316
   12MOL   C35612698   1.387   3.776   3.305  0.2305 -0.0474 -0.0905
   12MOL   C35712699   1.309   3.648   3.307 -0.2081 -0.0861  0.0196
   12MOL   C35812700   1.322   3.578   3.442 -0.9040  0.1000  0.5019
   12MOL   N35912701   1.268   3.440   3.445 -0.0867  0.3847 -0.1055
   12MOL   H36012702   0.544   4.757   2.314 -0.9485 -0.1171  4.0258
   12MOL   H36112703   0.385   4.841   2.344  0.2904  1.5716  1.1202
   12MOL   H36212704   0.617   5.020   2.409  0.8028  0.3483  1.6080
   12MOL   H36312705   0.463   4.999   2.481 -0.8800 -0.2453 -1.3721
   12MOL   H36412706   0.636   4.927   2.633  1.5132 -2.2438  1.6477
   12MOL   H36512707   0.694   4.807   2.524  0.0555  0.9927  0.1484
   12MOL   H36612708   0.397   4.825   2.596  1.2076  1.2547  0.6550
   12MOL   H36712709   0.471   4.681   2.536  3.9102 -1.5648 -0.2131
   12MOL   H36812710   0.590   4.787   2.794  0.5206  0.4349 -0.5638
   12MOL   H36912711   0.443   4.698   2.797  0.5974  2.7035  1.7506
   12MOL   H37012712   0.566   4.504   2.690 -0.1148 -0.2975 -0.5523
   12MOL   H37112713   0.708   4.607   2.656 -0.2581 -0.3610 -0.9341
   12MOL   H37212714   0.782   4.650   2.844 -0.4091 -0.3119  1.0283
   12MOL   H37312715   0.653   4.573   2.937  1.2705  2.6482  0.2108
   12MOL   H37412716   0.724   4.348   2.822 -1.5362  0.7128  0.5804
   12MOL   H37512717   0.853   4.429   2.757 -1.5648 -0.3452 -0.8864
   12MOL   H37612718   0.829   4.405   3.057  2.8036 -0.7101  1.7040
   12MOL   H37712719   0.964   4.476   2.958  0.1113  0.0533  1.1941
   12MOL   H37812720   0.897   4.187   2.946 -1.4903  1.4801 -2.4442
   12MOL   H37912721   1.034   4.274   2.882 -1.3435 -0.4576 -0.4973
   12MOL   H38012722   1.013   4.045   3.060 -0.2833  0.5110 -1.2768
   12MOL   H38112723   1.088   4.072   3.316  1.4143  1.2523  1.1786
   12MOL   H38212724   1.224   4.148   3.236 -1.1933  1.0141  1.3595
   12MOL   H38312725   1.248   3.910   3.113  0.1530 -0.5727  1.2706
   12MOL   H38412726   1.115   3.857   3.210 -0.7979  0.6244  0.7325
   12MOL   H38512727   1.358   3.996   3.320  0.8991 -1.3081 -0.8951
   12MOL   H38612728   1.255   3.892   3.415  1.9442  0.0632  0.9416
   12MOL   H38712729   1.445   3.773   3.213 -1.9907 -0.0017 -1.5339
   12MOL   H38812730   1.452   3.775   3.393  0.5025  0.9005 -0.2730
   12MOL   H38912731   1.364   3.575   3.247  0.1503  1.5258 -1.6490
   12MOL   H39012732   1.208   3.649   3.265  0.9948  2.1327 -2.9492
   12MOL   H39112733   1.424   3.580   3.479 -0.2356 -1.5047 -1.1600
   12MOL   H39212734   1.274   3.649   3.509 -0.4033 -1.1243  2.1704
   12MOL   H39312735   1.272   3.385   3.360 -2.7542 -0.0013 -0.0283
   12MOL   C39412736   1.202   3.397   3.556 -1.0456 -0.0265  0.8558
   12MOL   O39512737   1.169   3.476   3.645 -0.1928  0.3477 -0.6969
   12MOL   C39612738   1.167   3.250   3.569 -0.2550 -0.3141  0.1200
   12MOL   C39712739   1.219   3.186   3.695 -0.0192 -0.0947 -0.2761
   12MOL   C39812740   1.352   3.115   3.664 -0.1475 -0.0764 -0.3505
   12MOL   C39912741   1.340   2.995   3.577  0.7252 -0.0414  0.7608
   12MOL   C40012742   1.470   2.911   3.573 -0.0253  0.1876 -0.1962
   12MOL   C40112743   1.473   2.809   3.462  0.2185 -0.8380  0.3681
   12MOL   C40212744   1.598   2.722   3.454  0.6246  0.2628 -0.7062
   12MOL   C40312745   1.570   2.600   3.365  0.0565  0.8092 -0.0890
   12MOL   C40412746   1.710   2.537   3.328 -0.5200  0.1223  0.5820
   12MOL   C40512747   1.807   2.625   3.242 -0.3240 -0.0197  0.5567
   12MOL   C40612748   1.944   2.562   3.202  0.3937 -0.3970  0.0883
   12MOL   O40712749   1.939   2.448   3.165 -0.0020  0.4070  0.2631
   12MOL   N40812750   2.053   2.632   3.221  0.0889  0.0119  0.1950
   12MOL   C40912751   2.187   2.584   3.185  0.0497  0.1608  0.1623
   12MOL   C41012752   2.262   2.557   3.311 -0.5969  0.3228 -0.0564
   12MOL   C41112753   2.203   2.445   3.401 -0.1635  0.2991  0.2888
   12MOL   C41212754   2.275   2.431   3.537 -0.5470  0.1860 -0.2092
   12MOL   C41312755   2.203   2.362   3.659 -0.3660  0.3152 -0.3908
   12MOL   C41412756   2.281   2.306   3.776  0.1056 -0.4184  0.2991
   12MOL   N41512757   2.375   2.414   3.827 -0.2372  0.3974  0.0482
   12MOL   H41612758   1.203   3.193   3.483 -0.2449 -1.2601  0.7351
   12MOL   H41712759   1.059   3.236   3.571 -0.5100  1.5892  0.1788
   12MOL   H41812760   1.148   3.107   3.721 -1.3640  1.0446 -0.4305
   12MOL   H41912761   1.231   3.261   3.772 -0.5391 -0.9191  0.6172
   12MOL   H42012762   1.397   3.085   3.758  0.9500  1.8193 -0.2326
   12MOL   H42112763   1.429   3.181   3.623 -0.3869 -0.7242 -1.8534
   12MOL   H42212764   1.304   3.012   3.475 -0.3156 -0.0848  1.1096
   12MOL   H42312765   1.259   2.928   3.606  0.5778 -0.9875 -1.6958
   12MOL   H42412766   1.554   2.978   3.558 -0.6419  0.8715 -0.6247
   12MOL   H42512767   1.482   2.852   3.664 -0.4750  1.4420  0.6879
   12MOL   H42612768   1.382   2.752   3.475 -1.2517  1.5602  1.0006
   12MOL   H42712769   1.474   2.850   3.361 -0.7639 -2.4471 -0.3031
   12MOL   H42812770   1.682   2.785   3.423  0.9083 -1.3506 -3.3835
   12MOL   H42912771   1.619   2.685   3.554 -1.9786  1.9810  0.5231
   12MOL   H43012772   1.493   2.533   3.403  0.4943 -0.1366 -0.8197
   12MOL   H43112773   1.533   2.630   3.267  0.0313  3.7702  0.8079
   12MOL   H43212774   1.693   2.440   3.281 -1.3480 -0.6613  2.4370
   12MOL   H43312775   1.758   2.524   3.424 -1.2881 -0.8281  0.8446
   12MOL   H43412776   1.760   2.651   3.147  0.0268  1.2672  0.7193
   12MOL   H43512777   1.821   2.713   3.304 -1.4122  2.2084 -2.2395
   12MOL   H43612778   2.036   2.724   3.260  3.4558  2.0202 -2.7578
   12MOL   H43712779   2.244   2.658   3.130  0.3780 -0.2414 -0.0389
   12MOL   H43812780   2.191   2.490   3.131 -1.1853  0.4716 -0.4971
   12MOL   H43912781   2.262   2.648   3.371 -1.3752 -0.9648  1.9959
   12MOL   H44012782   2.369   2.549   3.292 -0.6736  0.2481 -0.4490
   12MOL   H44112783   2.100   2.464   3.431 -0.1981  1.8198 -0.7215
   12MOL   H44212784   2.196   2.345   3.358  1.0645  1.3650 -2.5282
   12MOL   H44312785   2.369   2.378   3.519 -0.3199  0.7041 -0.5596
   12MOL   H44412786   2.282   2.534   3.570 -0.7923  0.7957 -2.0256
   12MOL   H44512787   2.124   2.424   3.701 -0.2280  0.7360 -0.7426
   12MOL   H44612788   2.138   2.286   3.616  0.5364  0.5317 -2.1726
   12MOL   H44712789   2.211   2.268   3.852  1.3905 -2.8093  0.3445
   12MOL   H44812790   2.345   2.226   3.740 -0.5091 -1.5996  1.7650
   12MOL   H44912791   2.468   2.395   3.793  0.1459  1.6544  0.3740
   12MOL   C45012792   2.334   2.524   3.898  1.0817  0.4464 -0.6102
   12MOL   O45112793   2.214   2.536   3.928 -0.1341 -0.1236  0.0161
   12MOL   C45212794   2.437   2.623   3.941  0.4483  0.4579 -0.0530
   12MOL   C45312795   2.422   2.678   4.088 -0.1033  0.4397 -0.0642
   12MOL   C45412796   2.472   2.577   4.196 -0.5646 -0.0134  0.4770
   12MOL   C45512797   2.385   2.451   4.233  0.3465  0.1398 -0.4404
   12MOL   C45612798   2.436   2.386   4.373 -0.0533 -0.3571 -0.2259
   12MOL   C45712799   2.342   2.276   4.430  0.5061 -0.5040 -0.1290
   12MOL   C45812800   2.406   2.192   4.534  0.3407  0.6849  0.2585
   12MOL   C45912801   2.513   2.093   4.492 -0.2347  0.6020 -0.1930
   12MOL   C46012802   2.581   2.029   4.607  0.7074 -0.0294 -0.0634
   12MOL   C46112803   2.697   1.938   4.554 -0.3869 -0.3006  0.6583
   12MOL   C46212804   2.794   1.910   4.669 -0.6570 -0.4658 -0.6299
   12MOL   O46312805   2.785   1.797   4.721 -0.3777 -0.1681  0.1729
   12MOL   N46412806   2.862   2.010   4.718  0.4134 -0.4768 -0.0690
   12MOL   C46512807   2.969   2.001   4.814 -0.8147  0.3813 -0.4000
   12MOL   C46612808   3.112   2.011   4.751  0.0815  0.0945  0.3596
   12MOL   C46712809   3.219   1.996   4.868  0.0667 -0.2354  0.7540
   12MOL   C46812810   3.361   2.028   4.826  0.1382  0.8510  0.0591
   12MOL   C46912811   3.469   2.035   4.943 -1.4502  0.0050  0.0109
   12MOL   C47012812   3.479   1.906   5.025  0.6535 -0.1150 -0.2899
   12MOL   N47112813   3.588   1.918   5.120  0.2459  0.1434 -0.4546
   12MOL   H47212814   2.531   2.573   3.918 -0.2160 -0.2757 -1.2634
   12MOL   H47312815   2.437   2.714   3.881  3.3417  1.2714  1.1079
   12MOL   H47412816   2.319   2.709   4.104 -1.1599 -2.9733  0.0663
   12MOL   H47512817   2.477   2.772   4.101  2.6549 -1.1836  0.3828
   12MOL   H47612818   2.487   2.642   4.282 -0.5176 -1.2303  1.4050
   12MOL   H47712819   2.571   2.538   4.171 -0.9109 -0.9718  0.5947
   12MOL   H47812820   2.389   2.379   4.152 -0.0545  0.3384 -0.6361
   12MOL   H47912821   2.284   2.491   4.246 -0.0466 -0.6650 -1.0254
   12MOL   H48012822   2.455   2.460   4.451  1.8682 -1.3006  0.2252
   12MOL   H48112823   2.530   2.345   4.338  0.3182 -0.6776  1.1395
   12MOL   H48212824   2.316   2.204   4.352  0.2672  0.7270 -1.2043
   12MOL   H48312825   2.253   2.326   4.468  0.9739 -1.0265  1.6718
   12MOL   H48412826   2.438   2.260   4.613 -0.9431  0.3980  1.0449
   12MOL   H48512827   2.327   2.133   4.580  0.4150 -2.0999 -3.0141
   12MOL   H48612828   2.460   2.023   4.427  1.2440  0.7042 -1.5572
   12MOL   H48712829   2.595   2.143   4.440 -0.3610  0.4394 -0.5515
   12MOL   H48812830   2.504   1.973   4.659  0.1426 -1.0055 -1.8949
   12MOL   H48912831   2.622   2.107   4.672 -2.9958  1.1027  0.9971
   12MOL   H49012832   2.657   1.849   4.505  1.7128  0.1038 -1.9386
   12MOL   H49112833   2.751   1.987   4.473 -0.1907 -0.1109  0.9035
   12MOL   H49212834   2.848   2.099   4.672  2.4448 -1.2230 -2.2257
   12MOL   H49312835   2.965   1.909   4.872 -2.2491  0.7779  0.1583
   12MOL   H49412836   2.951   2.085   4.882 -0.4714  1.2027 -1.3032
   12MOL   H49512837   3.124   1.935   4.674 -1.0507 -0.7251  0.9767
   12MOL   H49612838   3.113   2.107   4.700  0.4289  0.0511  0.2805
   12MOL   H49712839   3.220   1.893   4.902 -1.9431 -0.8681 -0.9854
   12MOL   H49812840   3.193   2.068   4.946 -1.5434  1.2544 -1.0781
   12MOL   H49912841   3.363   2.115   4.760 -2.0821  1.5330  0.8485
   12MOL   H50012842   3.395   1.948   4.760  1.1911 -0.3648  2.0307
   12MOL   H50112843   3.564   2.050   4.891 -0.5966  1.3024  1.8851
   12MOL   H50212844   3.444   2.122   5.003  1.6443  0.1734  1.1663
   12MOL   H50312845   3.384   1.874   5.067  0.4288  1.1228  0.1823
   12MOL   H50412846   3.507   1.833   4.949  1.2462 -1.2223  0.9557
   12MOL   H50512847   3.677   1.959   5.093 -0.5556  1.9517 -0.3944
   12MOL   C50612848   3.577   1.895   5.250  0.3090 -0.0610  0.5264
   12MOL   O50712849   3.477   1.841   5.308  0.0068  0.8345 -0.1567
   12MOL   C50812850   3.694   1.950   5.328 -0.3068 -0.3874  0.2021
   12MOL   C50912851   3.757   1.836   5.417  0.4751  0.6374  0.6194
   12MOL   C51012852   3.860   1.899   5.513  0.3324  0.2392  0.1145
   12MOL   C51112853   3.940   1.790   5.579 -0.0914 -0.3487  0.2515
   12MOL   C51212854   4.031   1.849   5.686  0.1372 -0.5837 -0.4129
   12MOL   C51312855   4.105   1.735   5.769  0.0197  0.2071 -0.2863
   12MOL   C51412856   4.184   1.790   5.890 -1.2714 -0.0317 -0.7247
   12MOL   C51512857   4.312   1.866   5.853  0.0275  0.4114 -0.1002
   12MOL   C51612858   4.403   1.803   5.745  0.7966  0.4591  0.0190
   12MOL   C51712859   4.544   1.854   5.756  0.2682  0.5115 -0.3196
   12MOL   C51812860   4.633   1.797   5.639 -0.0329 -0.3126 -0.0597
   12MOL   O51912861   4.583   1.781   5.529  0.0370  0.3919  0.7538
   12MOL   N52012862   4.756   1.760   5.665 -0.5312  0.3950 -0.2130
   12MOL   C52112863   4.850   1.700   5.569 -0.3167  0.0740  0.3630
   12MOL   C52212864   4.816   1.549   5.563 -0.0285  0.7609  1.1573
   12MOL   C52312865   4.913   1.462   5.480  1.0502  0.0628 -0.1905
   12MOL   C52412866   4.868   1.319   5.469 -0.4325  0.8720  0.1118
   12MOL   C52512867   4.988   1.229   5.418  0.8963 -0.1343  0.9132
   12MOL   C52612868   4.950   1.078   5.405 -0.0883  1.0681 -0.7073
   12MOL   N52712869   4.837   1.066   5.304  0.0025 -0.7272 -0.1087
   12MOL   H52812870   3.651   2.028   5.391 -1.0501  0.2843 -1.1264
   12MOL   H52912871   3.777   1.983   5.266 -1.1542  0.0719 -0.6943
   12MOL   H53012872   3.799   1.753   5.360 -0.1821  0.6846  0.0565
   12MOL   H53112873   3.676   1.793   5.476  0.6539 -0.2089  0.2647
   12MOL   H53212874   3.808   1.979   5.566 -0.2506  0.3666 -0.6439
   12MOL   H53312875   3.924   1.964   5.454 -1.2153  0.9676 -0.7954
   12MOL   H53412876   3.881   1.716   5.632  1.7917  0.5688  3.7464
   12MOL   H53512877   3.990   1.730   5.502  0.0413 -0.1713  0.1977
   12MOL   H53612878   4.113   1.902   5.637 -0.0323 -0.1348 -0.2174
   12MOL   H53712879   3.986   1.924   5.751 -0.5483 -1.5114  0.1925
   12MOL   H53812880   4.029   1.663   5.799  0.3552 -0.2669 -0.5667
   12MOL   H53912881   4.162   1.690   5.688 -0.7369  0.8766 -1.1970
   12MOL   H54012882   4.122   1.860   5.946  1.7599  1.2175  1.2070
   12MOL   H54112883   4.208   1.701   5.950 -0.8748  1.8820  2.0427
   12MOL   H54212884   4.278   1.962   5.814  0.6544  0.7594  0.1952
   12MOL   H54312885   4.367   1.868   5.947  0.0894 -1.0689 -0.1014
   12MOL   H54412886   4.372   1.812   5.641  2.3141 -1.5099 -0.6272
   12MOL   H54512887   4.414   1.696   5.762 -0.4709  0.3105 -0.0468
   12MOL   H54612888   4.540   1.962   5.749  0.6569  0.4163 -2.2887
   12MOL   H54712889   4.583   1.831   5.855  1.8540 -0.7446 -1.2122
   12MOL   H54812890   4.802   1.798   5.746 -0.0542  1.4145 -0.9550
   12MOL   H54912891   4.950   1.711   5.610  0.5548 -1.5962 -1.2099
   12MOL   H55012892   4.842   1.743   5.470  1.7195 -3.3265 -1.3623
   12MOL   H55112893   4.722   1.542   5.508  1.8572  1.6505 -2.3301
   12MOL   H55212894   4.811   1.503   5.662  0.3610  2.8787  2.1738
   12MOL   H55312895   5.007   1.460   5.536 -1.0808 -2.3729  3.4681
   12MOL   H55412896   4.936   1.501   5.380  0.8978  0.8053  0.0546
   12MOL   H55512897   4.790   1.326   5.393 -1.1380 -2.4582  0.4587
   12MOL   H55612898   4.817   1.267   5.551  0.2044  0.7942  0.4636
   12MOL   H55712899   5.018   1.254   5.316 -0.5180  0.2241  0.5657
   12MOL   H55812900   5.077   1.238   5.479  1.3596  2.4729 -0.0934
   12MOL   H55912901   5.040   1.021   5.381 -0.9070  0.0557 -1.4364
   12MOL   H56012902   4.916   1.034   5.499 -1.4807  0.3993 -1.5138
   12MOL   H56112903   4.776   1.145   5.290 -1.5444 -1.7721  0.5124
   12MOL   C56212904   4.806   0.965   5.226  0.2721  0.0780  0.3821
   12MOL   O56312905   4.876   0.862   5.233 -0.3893 -0.1020  0.0750
   12MOL   C56412906   4.683   0.979   5.138 -0.0937 -0.4212 -0.3796
   12MOL   C56512907   4.704   0.915   4.994 -0.9870 -0.9037  0.1210
   12MOL   C56612908   4.591   0.935   4.892 -0.4697 -0.1516 -0.0674
   12MOL   C56712909   4.464   0.856   4.922  0.8204 -0.3980 -0.1885
   12MOL   C56812910   4.487   0.709   4.944  0.6130 -0.1289  0.1282
   12MOL   C56912911   4.363   0.622   4.916  0.7324  0.2205 -0.0059
   12MOL   C57012912   4.238   0.658   5.004  1.0507  0.3099 -0.4570
   12MOL   C57112913   4.115   0.572   4.974 -0.3813 -0.4560  0.0027
   12MOL   C57212914   3.999   0.596   5.076  0.0239  0.6799  0.3027
   12MOL   C57312915   3.874   0.505   5.062  0.3954 -0.3363  0.5943
   12MOL   C57412916   3.777   0.518   5.175  0.2653 -0.2904  0.6574
   12MOL   O57512917   3.801   0.461   5.279  0.2776  0.1032  0.0956
   12MOL   N57612918   3.664   0.581   5.152 -0.0944 -0.0943  0.3146
   12MOL   C57712919   3.554   0.571   5.244  0.4531 -0.9168 -0.5631
   12MOL   C57812920   3.469   0.448   5.217  0.1773 -1.1825 -0.0363
   12MOL   C57912921   3.393   0.455   5.084  0.7304 -0.3045 -0.3468
   12MOL   C58012922   3.278   0.350   5.082  0.1933 -0.2256 -0.8626
   12MOL   C58112923   3.195   0.352   4.954 -0.7236 -0.4001 -0.4561
   12MOL   C58212924   3.125   0.224   4.920  0.2254  0.7754  0.5980
   12MOL   N58312925   3.069   0.220   4.779 -0.5435  0.5947 -0.0939
   12MOL   H58412926   4.609   0.918   5.189 -1.8179  1.9983  0.1079
   12MOL   H58512927   4.640   1.079   5.127  0.5456 -0.2062 -0.9391
   12MOL   H58612928   4.792   0.960   4.948  0.1612 -2.8852  0.3156
   12MOL   H58712929   4.738   0.812   5.008 -1.7971 -1.0488  1.0301
   12MOL   H58812930   4.639   0.907   4.797 -0.5287 -0.1978 -0.0833
   12MOL   H58912931   4.560   1.040   4.886  1.6622  0.6782  2.5745
   12MOL   H59012932   4.408   0.902   5.004  0.3352 -2.1250  0.4715
   12MOL   H59112933   4.419   0.866   4.824  0.4343 -1.0469 -0.0816
   12MOL   H59212934   4.558   0.674   4.869  0.4471  0.9941 -0.5722
   12MOL   H59312935   4.525   0.693   5.045 -2.7712  2.3540  1.9141
   12MOL   H59412936   4.336   0.618   4.810  2.2859  1.6481 -0.4833
   12MOL   H59512937   4.399   0.522   4.938  1.7024  0.7362  0.8116
   12MOL   H59612938   4.262   0.652   5.110  0.4722  0.8175 -0.2931
   12MOL   H59712939   4.207   0.763   5.003 -0.6845 -0.1907 -1.5433
   12MOL   H59812940   4.130   0.465   4.985 -0.3673 -0.4900 -0.3677
   12MOL   H59912941   4.065   0.592   4.880  0.2296 -0.2660 -0.2808
   12MOL   H60012942   3.983   0.702   5.095 -0.0297  0.5364  1.0628
   12MOL   H60112943   4.048   0.573   5.171 -0.1038  1.8075  0.6546
   12MOL   H60212944   3.822   0.524   4.968  1.1566  0.8471  0.3957
   12MOL   H60312945   3.894   0.399   5.048  1.8852  0.1688 -1.4573
   12MOL   H60412946   3.670   0.633   5.066 -1.2164  0.0434  0.3168
   12MOL   H60512947   3.484   0.655   5.235  1.4776  0.1029  0.7315
   12MOL   H60612948   3.574   0.580   5.351 -1.9187 -0.3298 -0.1223
   12MOL   H60712949   3.403   0.447   5.304  1.2803 -0.5163  0.8156
   12MOL   H60812950   3.532   0.359   5.221  2.2185 -0.0063 -3.7252
   12MOL   H60912951   3.464   0.426   5.006  0.9396 -0.1866 -0.1998
   12MOL   H61012952   3.354   0.553   5.059  0.2967 -0.2912  0.3573
   12MOL   H61112953   3.318   0.251   5.102 -0.6283 -0.2804  0.5986
   12MOL   H61212954   3.212   0.373   5.166  0.3045  0.8771 -1.0750
   12MOL   H61312955   3.256   0.381   4.868 -0.3969 -0.8649 -0.3792
   12MOL   H61412956   3.129   0.439   4.955 -0.2861 -0.0509 -1.1844
   12MOL   H61512957   3.192   0.140   4.934 -0.4066 -0.1728 -1.7955
   12MOL   H61612958   3.044   0.196   4.987  2.1471 -0.1934  2.5654
   12MOL   H61712959   3.016   0.304   4.760  1.5977  1.8949 -0.5767
   12MOL   C61812960   3.093   0.136   4.679  0.3043  0.1929 -0.1805
   12MOL   O61912961   3.057   0.153   4.563  0.1902 -0.5854 -0.0700
   12MOL   C62012962   3.169   0.011   4.712  1.0461  0.3284 -0.1295
   12MOL   C62112963   3.096   7.606   4.809 -0.2218 -0.2603  0.0830
   12MOL   C62212964   2.977   7.534   4.740 -0.3499  0.2645 -0.0323
   12MOL   C62312965   2.932   7.411   4.820 -0.5297  0.0446  0.9294
   12MOL   C62412966   2.792   7.351   4.779  0.7250  0.0965 -0.0668
   12MOL   C62512967   2.803   7.269   4.652  0.0223  0.2732  0.1097
   12MOL   C62612968   2.682   7.185   4.625 -0.1117 -0.5004  0.0925
   12MOL   C62712969   2.658   7.133   4.485 -0.5590 -0.9688 -0.1185
   12MOL   C62812970   2.550   7.022   4.470 -0.1067  0.2823 -0.1523
   12MOL   C62912971   2.407   7.054   4.518  0.1180  0.0014 -0.7130
   12MOL   C63012972   2.315   7.113   4.405  0.1790 -0.1705 -0.0148
   12MOL   O63112973   2.350   7.085   4.289  0.3225 -0.0500 -0.2405
   12MOL   N63212974   2.212   7.189   4.438  0.3114  0.0394  0.6782
   12MOL   C63312975   2.147   7.276   4.344  0.0792 -0.3959 -0.2844
   12MOL   C63412976   2.010   7.328   4.395  0.1499  0.6793 -0.2407
   12MOL   C63512977   1.932   7.396   4.275  0.1636  0.9291  0.8126
   12MOL   C63612978   1.978   7.548   4.248  0.1163 -0.0238  0.1861
   12MOL   C63712979   1.887   7.612   4.135 -0.2287  0.0751  0.2437
   12MOL   C63812980   1.931   0.066   4.100  0.8117  0.5572 -0.0603
   12MOL   N63912981   1.820   0.128   4.015 -0.1823 -0.2798 -0.2984
   12MOL   H64012982   3.262   0.049   4.754 -0.1940  1.4971  1.6617
   12MOL   H64112983   3.189   7.658   4.615 -1.0617 -1.7155  0.3150
   12MOL   H64212984   3.042   7.658   4.887 -0.2682  0.0129 -0.1291
   12MOL   H64312985   3.156   7.528   4.855  1.0057  1.1939  0.9694
   12MOL   H64412986   3.001   7.495   4.641 -0.5409 -1.1594  0.4652
   12MOL   H64512987   2.904   7.615   4.742  1.8322  2.2805 -0.3543
   12MOL   H64612988   3.014   7.341   4.804 -0.3383  0.0649  1.7600
   12MOL   H64712989   2.928   7.431   4.927  0.9053 -1.2379  1.2404
   12MOL   H64812990   2.748   7.294   4.861 -1.8173  0.9432 -0.7779
   12MOL   H64912991   2.717   7.429   4.765 -0.9248 -0.9927  2.3936
   12MOL   H65012992   2.893   7.207   4.656  1.0389  1.6452 -0.9450
   12MOL   H65112993   2.826   7.345   4.578  2.2719 -1.7274 -1.3305
   12MOL   H65212994   2.690   7.098   4.691 -0.4725 -1.6674 -1.3945
   12MOL   H65312995   2.588   7.229   4.660 -0.9024 -0.7698 -1.6331
   12MOL   H65412996   2.621   7.212   4.420 -1.3743 -0.3824  1.0425
   12MOL   H65512997   2.756   7.110   4.441  0.3309  0.8162  0.8766
   12MOL   H65612998   2.589   6.938   4.527 -1.0541  0.3663  0.6471
   12MOL   H65712999   2.545   6.992   4.366  1.8430 -0.6348  0.0052
   12MOL   H65813000   2.362   6.960   4.551  2.3761  0.2078  3.2972
   12MOL   H65913001   2.407   7.114   4.609  0.1423 -2.0707  0.6818
   12MOL   H66013002   2.179   7.197   4.533 -0.6560 -1.2881  0.4663
   12MOL   H66113003   2.214   7.355   4.309 -0.1115 -0.9325 -1.9022
   12MOL   H66213004   2.124   7.217   4.255 -2.0577 -0.8477  0.5452
   12MOL   H66313005   2.017   7.397   4.479 -0.6184  0.9561 -0.3977
   12MOL   H66413006   1.960   7.242   4.439  1.8440 -0.2807 -0.1596
   12MOL   H66513007   1.924   7.338   4.183  3.3493 -0.1633  1.1674
   12MOL   H66613008   1.826   7.394   4.300  0.1464 -1.6016  0.7401
   12MOL   H66713009   2.082   7.552   4.215  0.7390 -0.7052  2.0344
   12MOL   H66813010   1.961   7.613   4.333  0.6012  0.2302  0.0893
   12MOL   H66913011   1.890   7.543   4.051  0.5793  1.5571 -0.9715
   12MOL   H67013012   1.782   7.608   4.163 -0.4026 -1.1833 -0.5568
   12MOL   H67113013   1.952   0.131   4.185 -0.1996  0.1333  0.5259
   12MOL   H67213014   2.020   0.046   4.041 -0.2475 -1.0152 -1.1842
   12MOL   H67313015   1.728   0.118   4.055 -1.1820  1.2198 -2.1504
   12MOL   C67413016   1.827   0.158   3.886  0.0215 -0.2029  0.9512
   12MOL   O67513017   1.931   0.163   3.820  0.1432  0.3383 -0.4214
   12MOL   C67613018   1.696   0.187   3.815 -0.0023 -0.4779  0.7266
   12MOL   C67713019   1.709   0.271   3.691 -0.1866  0.0981  0.1010
   12MOL   C67813020   1.581   0.332   3.634 -0.3801 -0.3996  0.0083
   12MOL   C67913021   1.603   0.383   3.492  0.4601  0.2858  0.1755
   12MOL   C68013022   1.486   0.473   3.444  0.0131  0.0531  0.3062
   12MOL   C68113023   1.483   0.490   3.289 -0.6941 -1.0006  0.1721
   12MOL   C68213024   1.354   0.549   3.234  0.0210 -0.2394  0.3479
   12MOL   C68313025   1.360   0.571   3.085  0.2625  0.0976 -0.0114
   12MOL   C68413026   1.221   0.585   3.035  0.2499  0.2170 -0.5084
   12MOL   C68513027   1.211   0.652   2.896  0.2287  0.4143 -0.4181
   12MOL   C68613028   1.211   0.810   2.904  0.1792 -0.1817  0.1219
   12MOL   O68713029   1.128   0.870   2.978 -0.5482  0.2281  0.2237
   12MOL   N68813030   1.300   0.873   2.819 -0.0494  0.5194 -0.0898
   12MOL   C68913031   1.307   1.020   2.811 -0.1211  0.2886  0.1804
   12MOL   C69013032   1.382   1.084   2.932  0.0086 -0.8236 -0.2081
   12MOL   C69113033   1.526   1.032   2.959  0.9127  0.4338  0.8666
   12MOL   C69213034   1.624   1.129   3.042  0.5337 -0.3997  0.1280
   12MOL   C69313035   1.572   1.174   3.178  0.3833  0.0921  0.3808
   12MOL   C69413036   1.658   1.280   3.241  0.4932 -1.2236  0.5754
   12MOL   N69513037   1.792   1.234   3.274 -0.2868 -0.4187 -0.3587
   12MOL   H69613038   1.629   0.242   3.881  1.5786  1.3408  0.8774
   12MOL   H69713039   1.666   0.084   3.799 -0.0571 -0.8288  2.9689
   12MOL   H69813040   1.755   0.199   3.623 -1.1873 -1.3755  0.9405
   12MOL   H69913041   1.781   0.350   3.711 -1.3601  1.2926 -0.3114
   12MOL   H70013042   1.504   0.255   3.632 -0.1496 -0.6715  1.2669
   12MOL   H70113043   1.543   0.412   3.697 -0.9349 -0.7720  0.1544
   12MOL   H70213044   1.606   0.299   3.422 -2.4618 -0.2002  0.5726
   12MOL   H70313045   1.698   0.437   3.490  0.5500  0.1170 -0.3450
   12MOL   H70413046   1.486   0.570   3.495  0.3251  0.1664  0.0939
   12MOL   H70513047   1.391   0.426   3.467  0.6924 -1.4190  0.1437
   12MOL   H70613048   1.563   0.560   3.262  0.2443 -2.2160 -0.2120
   12MOL   H70713049   1.519   0.402   3.236 -2.6193 -0.4242 -2.1511
   12MOL   H70813050   1.271   0.479   3.248  1.2295 -1.7995 -0.0555
   12MOL   H70913051   1.332   0.646   3.276 -1.1726 -0.2875 -0.1280
   12MOL   H71013052   1.420   0.659   3.062 -0.4157  0.4135 -0.5818
   12MOL   H71113053   1.418   0.498   3.028  0.4310  0.9104 -0.8954
   12MOL   H71213054   1.165   0.653   3.099  0.2147 -1.0133  0.7786
   12MOL   H71313055   1.162   0.494   3.040  1.9898 -0.9001  0.4947
   12MOL   H71413056   1.293   0.620   2.831  1.7335 -0.1983  1.7586
   12MOL   H71513057   1.121   0.614   2.847  0.5251 -0.6564 -0.1382
   12MOL   H71613058   1.365   0.818   2.767  1.2054  2.3999 -0.5633
   12MOL   H71713059   1.343   1.066   2.719 -1.7160  4.4064  1.5057
   12MOL   H71813060   1.205   1.057   2.813  0.2855  1.3770  4.2222
   12MOL   H71913061   1.324   1.085   3.024  0.5165  1.2576  0.1286
   12MOL   H72013062   1.378   1.191   2.909 -0.1025 -1.0427 -1.2250
   12MOL   H72113063   1.521   0.936   3.010 -1.6139 -0.1053 -0.3497
   12MOL   H72213064   1.560   1.013   2.857 -0.2501  1.8594  0.1953
   12MOL   H72313065   1.649   1.222   2.992 -0.1706 -0.2031  0.1412
   12MOL   H72413066   1.718   1.073   3.043 -0.3816 -1.9652  0.2768
   12MOL   H72513067   1.553   1.098   3.254 -1.0270 -0.8568 -0.8740
   12MOL   H72613068   1.474   1.219   3.166 -1.5190 -3.8528  0.1578
   12MOL   H72713069   1.664   1.373   3.184  0.2682  0.8913  3.8508
   12MOL   H72813070   1.615   1.331   3.327  0.4199  0.0553 -0.2024
   12MOL   H72913071   1.814   1.136   3.276 -0.5846 -0.4624  0.9324
   12MOL   C73013072   1.893   1.312   3.304 -0.4294 -0.1700 -0.1404
   12MOL   O73113073   1.881   1.433   3.306 -0.0267  0.1261 -0.4276
   12MOL   C73213074   2.026   1.244   3.323  0.2103 -0.5682 -0.6639
   12MOL   C73313075   2.132   1.279   3.220  0.1447 -0.9322 -0.2012
   12MOL   C73413076   2.130   1.190   3.098 -0.1304  0.3164  0.9869
   12MOL   C73513077   2.016   1.208   3.003 -0.3760  0.5519 -0.0357
   12MOL   C73613078   2.021   1.133   2.871  0.3737 -0.5611  0.0508
   12MOL   C73713079   1.898   1.163   2.779 -0.2811  0.0219  0.1744
   12MOL   C73813080   1.923   1.094   2.648 -0.1091 -0.3749  0.2364
   12MOL   C73913081   1.847   1.147   2.522 -1.1634 -0.3173 -0.0152
   12MOL   C74013082   1.877   1.062   2.396  0.2165 -0.3624  0.7633
   12MOL   C74113083   1.819   1.123   2.267 -0.2211 -0.4846 -0.7311
   12MOL   C74213084   1.682   1.076   2.228 -0.1101  0.7765  0.1743
   12MOL   O74313085   1.671   0.978   2.150  0.4818 -0.1411  0.0976
   12MOL   N74413086   1.580   1.134   2.289 -0.5773  0.3234 -0.3344
   12MOL   C74513087   1.439   1.118   2.272  0.2929  0.2014 -0.1689
   12MOL   C74613088   1.384   1.014   2.368  0.1516 -0.0063  0.2877
   12MOL   C74713089   1.235   0.980   2.346 -0.0585  0.6540 -0.1270
   12MOL   C74813090   1.171   0.890   2.454  0.1265 -0.5974 -0.5328
   12MOL   C74913091   1.026   0.831   2.426 -0.5211  0.5137  0.5378
   12MOL   C75013092   1.001   0.709   2.522  0.2052 -0.0504 -0.8826
   12MOL   N75113093   0.868   0.653   2.496 -0.0380  0.8653  0.4309
   12MOL   H75213094   2.034   1.139   3.348  1.4387 -0.5935 -1.1381
   12MOL   H75313095   2.046   1.301   3.414  1.3790  0.1306 -1.3465
   12MOL   H75413096   2.218   1.265   3.284  0.6020 -1.3226 -0.8959
   12MOL   H75513097   2.134   1.386   3.202  1.5790 -0.6390  1.5872
   12MOL   H75613098   2.112   1.088   3.133 -0.5106  0.7346  2.0287
   12MOL   H75713099   2.231   1.198   3.058 -0.1157  1.5885  1.2598
   12MOL   H75813100   1.993   1.313   2.984 -4.1087 -0.0327  0.8585
   12MOL   H75913101   1.928   1.170   3.056 -0.2211 -0.6097 -0.6095
   12MOL   H76013102   2.030   1.025   2.885  3.0567 -0.5815 -1.4942
   12MOL   H76113103   2.113   1.157   2.818 -1.4544  1.4284 -2.3595
   12MOL   H76213104   1.802   1.136   2.822  0.7461 -2.6652  0.8446
   12MOL   H76313105   1.900   1.272   2.776  1.5513  0.0009  0.4601
   12MOL   H76413106   2.030   1.096   2.630 -0.1420 -0.5750  0.0218
   12MOL   H76513107   1.895   0.990   2.665 -2.3954 -0.1488 -1.9160
   12MOL   H76613108   1.740   1.133   2.539 -1.2000 -0.0453 -0.0243
   12MOL   H76713109   1.865   1.253   2.508 -3.0729 -0.0749 -0.7975
   12MOL   H76813110   1.831   0.966   2.417 -0.0639 -0.7494 -1.4559
   12MOL   H76913111   1.982   1.034   2.384  0.2045 -0.2759  0.4455
   12MOL   H77013112   1.833   1.231   2.256 -0.6730 -0.4651 -1.1639
   12MOL   H77113113   1.880   1.082   2.186 -1.7013 -1.7861 -1.2106
   12MOL   H77213114   1.604   1.202   2.358 -0.6936  0.7548 -0.7154
   12MOL   H77313115   1.405   1.084   2.174 -2.4580  1.2175  0.3811
   12MOL   H77413116   1.393   1.214   2.295 -1.2584 -0.7513  0.8698
   12MOL   H77513117   1.398   1.050   2.470 -1.7955 -2.1920  1.3610
   12MOL   H77613118   1.450   0.928   2.360  1.0344  0.5711  1.2486
   12MOL   H77713119   1.222   0.925   2.253  1.8697 -2.2835  1.2677
   12MOL   H77813120   1.179   1.072   2.328  1.7778  1.6000 -1.0555
   12MOL   H77913121   1.233   0.805   2.481 -0.0650 -0.9500 -1.1771
   12MOL   H78013122   1.153   0.945   2.546 -4.1387 -1.2143 -0.8771
   12MOL   H78113123   1.029   0.790   2.325  1.2419 -1.9831  1.5331
   12MOL   H78213124   0.946   0.904   2.431 -0.7888  0.3441 -1.1280
   12MOL   H78313125   1.078   0.636   2.498  0.3010 -1.2389  2.6899
   12MOL   H78413126   1.001   0.734   2.628  1.5287  1.2045 -1.1552
   12MOL   H78513127   0.801   0.698   2.434 -1.8607 -0.4982  1.3566
   12MOL   C78613128   0.824   0.541   2.554  0.3140  0.6716  0.5878
   12MOL   O78713129   0.888   0.475   2.636  0.3492 -0.2214 -0.5945
   12MOL   C78813130   0.683   0.496   2.530 -0.0315 -0.0582 -0.3125
   12MOL   C78913131   0.593   0.549   2.644  0.1751  0.3795  0.3416
   12MOL   C79013132   0.547   0.688   2.610 -0.1242  0.3164  0.0932
   12MOL   C79113133   0.445   0.750   2.708 -1.2036 -0.0394 -0.2511
   12MOL   C79213134   0.401   0.885   2.662 -0.2412  0.0794  0.0889
   12MOL   C79313135   0.278   0.952   2.728 -0.1049 -0.1985  0.7618
   12MOL   C79413136   0.278   1.102   2.686 -0.1048  0.4778 -0.5287
   12MOL   C79513137   0.149   1.175   2.720  0.2116  0.3210  0.0878
   12MOL   C79613138   0.146   1.327   2.705  0.1445 -0.1599  0.1396
   12MOL   C79713139   0.219   1.402   2.810 -0.4504 -0.0166  0.1671
   12MOL   C79813140   0.278   1.535   2.764  0.1270  0.0702  0.5141
   12MOL   O79913141   0.221   1.605   2.679  0.0877 -0.0506 -0.3063
   12MOL   N80013142   0.387   1.575   2.825  0.1840 -0.2819 -0.0756
   12MOL   C80113143   0.452   1.703   2.815 -0.2255 -0.7310  0.1177
   12MOL   C80213144   0.533   1.721   2.685  0.5730 -0.4552 -0.3293
   12MOL   C80313145   0.647   1.617   2.689 -0.0531 -0.5610  0.3477
   12MOL   C80413146   0.729   1.629   2.559  0.0201 -0.8813  0.7094
   12MOL   C80513147   0.850   1.535   2.544  0.1075 -0.1323 -0.3716
   12MOL   C80613148   0.893   1.513   2.399 -0.2768  0.2588  0.2625
   12MOL   N80713149   0.907   1.646   2.339 -0.4682  0.1497 -0.6232
   12MOL   H80813150   0.672   0.388   2.539 -1.4035  0.1178  0.1502
   12MOL   H80913151   0.645   0.520   2.431 -0.9750  2.9478  0.7275
   12MOL   H81013152   0.497   0.499   2.648  0.4186 -0.2480 -1.2342
   12MOL   H81113153   0.641   0.550   2.742  0.4890  0.2820  0.1892
   12MOL   H81213154   0.508   0.704   2.509  1.3979 -1.1370 -0.7572
   12MOL   H81313155   0.636   0.751   2.608 -0.5282  0.8618 -1.8060
   12MOL   H81413156   0.359   0.683   2.709 -0.4746 -0.9799  1.1542
   12MOL   H81513157   0.506   0.755   2.798  1.2531  2.5583 -1.9658
   12MOL   H81613158   0.481   0.958   2.672 -0.2188 -0.1059  1.4125
   12MOL   H81713159   0.377   0.887   2.556  0.4743 -1.0481 -0.1026
   12MOL   H81813160   0.181   0.910   2.702  0.3406 -0.0039 -1.3048
   12MOL   H81913161   0.278   0.936   2.836 -0.6584  0.9968  0.9412
   12MOL   H82013162   0.364   1.137   2.743 -1.2857 -0.4043  1.8476
   12MOL   H82113163   0.304   1.109   2.580  2.6109 -2.0146 -0.0794
   12MOL   H82213164   0.072   1.138   2.652  1.1943  2.4486 -2.2203
   12MOL   H82313165   0.122   1.151   2.823  1.6457  2.1745  0.9160
   12MOL   H82413166   0.043   1.356   2.687  0.6743  2.3122  0.8216
   12MOL   H82513167   0.195   1.360   2.613 -0.4414 -1.4049 -0.6204
   12MOL   H82613168   0.162   1.430   2.898  1.8693  2.4499  0.9688
   12MOL   H82713169   0.306   1.353   2.851 -0.1637  0.7080  0.4349
   12MOL   H82813170   0.411   1.515   2.902  1.2925 -1.3123 -1.1896
   12MOL   H82913171   0.521   1.720   2.897 -0.7626  1.7777  0.0942
   12MOL   H83013172   0.375   1.781   2.814  0.5640  0.0418 -0.2854
   12MOL   H83113173   0.577   1.820   2.680  1.1793 -0.7094 -0.1446
   12MOL   H83213174   0.473   1.716   2.594 -0.6844 -0.3934  0.4939
   12MOL   H83313175   0.714   1.648   2.769  1.1640  1.6859 -1.4839
   12MOL   H83413176   0.612   1.516   2.707  0.4334 -0.7612  0.1770
   12MOL   H83513177   0.763   1.732   2.549  1.7685 -1.8276 -3.8630
   12MOL   H83613178   0.657   1.620   2.479 -1.6344 -0.6185  2.1326
   12MOL   H83713179   0.837   1.437   2.591 -0.7776 -0.3759 -1.1218
   12MOL   H83813180   0.940   1.574   2.591 -0.6231  0.4801  0.5454
   12MOL   H83913181   0.836   1.437   2.345  1.8876 -0.9393 -0.4108
   12MOL   H84013182   0.993   1.473   2.412 -1.1077 -2.1346 -0.3293
   12MOL   H84113183   0.966   1.709   2.392 -0.4485  1.1113 -1.7596
   12MOL   C84213184   0.856   1.663   2.218 -0.2221 -0.7738  0.6689
   12MOL   O84313185   0.784   1.589   2.158 -0.3502  0.4411 -0.0512
   12MOL   C84413186   0.869   1.802   2.160  0.4736  0.4428  0.4291
   12MOL   C84513187   0.736   1.871   2.124 -0.0319 -0.4275 -0.2001
   12MOL   C84613188   0.746   2.013   2.057  0.1710  0.0504  0.0247
   12MOL   C84713189   0.786   1.994   1.909  0.0826  0.8542  0.6494
   12MOL   C84813190   0.677   1.923   1.826 -0.2106 -0.2991 -0.5683
   12MOL   C84913191   0.707   1.905   1.680 -0.1114 -0.5216 -0.3405
   12MOL   C85013192   0.603   1.826   1.615 -1.1480  0.1055  0.6242
   12MOL   C85113193   0.634   1.803   1.469 -0.3360 -0.6179 -0.1082
   12MOL   C85213194   0.562   1.690   1.398 -0.3433  1.5915  0.5381
   12MOL   C85313195   0.622   1.552   1.426 -0.9997  0.0798 -0.1879
   12MOL   C85413196   0.572   1.441   1.334 -0.2993 -0.2768 -0.1609
   12MOL   O85513197   0.574   1.467   1.215  0.1174 -0.3604  0.7127
   12MOL   N85613198   0.524   1.331   1.387  0.2770  0.3019  0.2022
   12MOL   C85713199   0.463   1.227   1.305 -0.5983  0.1863 -0.3522
   12MOL   C85813200   0.321   1.192   1.357 -0.5611 -0.2009 -0.6539
   12MOL   C85913201   0.252   1.099   1.266 -0.5381  0.1902 -0.2228
   12MOL   C86013202   0.123   1.033   1.314 -0.1599 -0.3303 -0.3062
   12MOL   C86113203   0.058   0.974   1.192  0.4134 -0.0048  0.7339
   12MOL   C86213204   7.614   0.906   1.214  0.0737 -0.1332  0.0764
   12MOL   N86313205   7.618   0.796   1.303  0.4007 -0.8651 -0.2090
   12MOL   H86413206   0.929   1.781   2.071 -0.2304 -1.0186  0.2921
   12MOL   H86513207   0.928   1.856   2.234  0.0663 -0.5679  1.4954
   12MOL   H86613208   0.685   1.886   2.219 -1.0206  0.0375 -0.7975
   12MOL   H86713209   0.670   1.807   2.066 -1.0906 -0.8347  1.4096
   12MOL   H86813210   0.651   2.064   2.074 -1.1973 -2.3514 -0.2698
   12MOL   H86913211   0.819   2.074   2.111  0.9545 -0.7372 -0.1337
   12MOL   H87013212   0.879   1.938   1.900 -0.5882  0.1330 -2.0008
   12MOL   H87113213   0.812   2.096   1.880  2.3059 -0.0742 -0.7462
   12MOL   H87213214   0.665   1.822   1.865  1.4079 -0.6612 -0.9803
   12MOL   H87313215   0.579   1.967   1.845  0.9666  1.5937  1.3669
   12MOL   H87413216   0.715   2.010   1.651  1.6031 -0.7089 -0.6132
   12MOL   H87513217   0.810   1.870   1.671 -0.4619 -1.3666 -1.2013
   12MOL   H87613218   0.616   1.731   1.667 -0.3192 -0.1614 -0.0577
   12MOL   H87713219   0.500   1.862   1.618 -1.4854 -0.8683  0.9432
   12MOL   H87813220   0.740   1.799   1.443  0.2071  2.1809  1.4143
   12MOL   H87913221   0.598   1.894   1.420 -0.5806 -1.7637 -2.0816
   12MOL   H88013222   0.570   1.709   1.291  3.4506 -2.8705 -0.1873
   12MOL   H88113223   0.456   1.698   1.419 -0.3496 -0.2094  1.3130
   12MOL   H88213224   0.727   1.538   1.402 -0.9642  0.8723 -0.5105
   12MOL   H88313225   0.619   1.536   1.533 -0.5499 -0.5965 -0.2754
   12MOL   H88413226   0.516   1.312   1.486 -1.3388 -0.4027 -0.0376
   12MOL   H88513227   0.525   1.137   1.310 -0.6625  0.1629  0.0662
   12MOL   H88613228   0.453   1.263   1.203  1.4533  0.0685 -0.6061
   12MOL   H88713229   0.263   1.283   1.370 -3.1310 -1.6396 -1.7279
   12MOL   H88813230   0.334   1.147   1.455 -1.9574  1.7496  0.4640
   12MOL   H88913231   0.312   1.009   1.251  0.0553  0.1906  2.0115
   12MOL   H89013232   0.235   1.153   1.173 -1.5999  0.3419  0.0495
   12MOL   H89113233   0.053   1.107   1.354  0.8763  0.5315 -0.0689
   12MOL   H89213234   0.134   0.958   1.392 -0.7093 -0.3700 -0.2645
   12MOL   H89313235   0.042   1.053   1.119 -1.5729 -0.8156  0.2600
   12MOL   H89413236   0.117   0.896   1.142 -0.8209 -1.1948  1.0890
   12MOL   H89513237   7.543   0.978   1.254 -0.7092 -0.5190 -0.6191
   12MOL   H89613238   7.564   0.884   1.120  0.5642 -1.4389  0.1092
   12MOL   H89713239   0.012   0.771   1.350  0.7083 -0.8947 -0.7829
   12MOL   C89813240   7.514   0.726   1.351  0.3479  0.8141  0.5233
   12MOL   O89913241   7.400   0.726   1.306  0.1308  0.2771 -0.2651
   12MOL   C90013242   7.525   0.655   1.483 -1.2175 -0.0763 -0.2777
   12MOL   C90113243   7.492   0.750   1.603 -0.3319 -0.1112  0.0015
   12MOL   C90213244   7.606   0.842   1.644 -0.2559 -0.7173  0.7523
   12MOL   C90313245   7.555   0.942   1.750  0.7036 -0.3800 -0.4237
   12MOL   C90413246   7.656   1.013   1.841 -0.1358 -0.2132 -0.2583
   12MOL   C90513247   0.068   1.106   1.761 -0.5346 -0.2649  1.3237
   12MOL   C90613248   0.182   1.172   1.849 -0.2043 -0.6920  0.0819
   12MOL   C90713249   0.272   1.272   1.775 -0.4070 -0.5262  0.0195
   12MOL   C90813250   0.375   1.334   1.868 -0.1294 -0.1244  0.4168
   12MOL   C90913251   0.506   1.252   1.887 -0.3514 -0.3150  0.0270
   12MOL   C91013252   0.606   1.288   1.776 -0.1391  0.0007 -0.1795
   12MOL   O91113253   0.565   1.274   1.658 -0.2204 -0.1701 -0.0127
   12MOL   N91213254   0.722   1.341   1.812  0.6206  0.5523 -0.0904
   12MOL   C91313255   0.823   1.389   1.721  0.0576 -0.2742 -0.0308
   12MOL   C91413256   0.873   1.527   1.777 -0.7498  0.0412 -0.5474
   12MOL   C91513257   0.974   1.587   1.676 -0.4470 -0.1073  0.0588
   12MOL   C91613258   1.061   1.695   1.738 -0.7949 -0.3483 -0.4085
   12MOL   C91713259   1.191   1.727   1.659 -0.2855 -0.1302  0.1735
   12MOL   C91813260   1.314   1.768   1.736  0.1973  0.2137 -0.6233
   12MOL   N91913261   1.437   1.762   1.656  0.1892 -0.1930  0.4629
   12MOL   H92013262   7.456   0.571   1.473 -1.2621 -0.1370  0.5097
   12MOL   H92113263   7.622   0.606   1.497 -1.7451 -0.5685  1.8496
   12MOL   H92213264   7.473   0.687   1.690 -0.9668  0.8238  0.5465
   12MOL   H92313265   7.396   0.797   1.581  0.2612  1.8301  1.4105
   12MOL   H92413266   7.637   0.895   1.554  0.2818 -1.1367  0.6946
   12MOL   H92513267   7.689   0.784   1.683 -0.6845 -2.5956 -1.0365
   12MOL   H92613268   7.500   1.018   1.694 -0.2843  0.3556  1.4913
   12MOL   H92713269   7.484   0.885   1.810  0.2383 -0.4636 -1.0438
   12MOL   H92813270   0.022   0.946   1.904 -2.5006  1.8431  4.3608
   12MOL   H92913271   7.615   1.077   1.920 -0.2775 -1.8803  1.0315
   12MOL   H93013272   0.114   1.042   1.686 -1.7814  1.1349 -0.6865
   12MOL   H93113273   0.014   1.184   1.708  1.4280 -0.9108 -1.7346
   12MOL   H93213274   0.251   1.090   1.872  1.9013  0.6772 -1.1150
   12MOL   H93313275   0.135   1.199   1.943 -3.3849 -1.8611 -1.0952
   12MOL   H93413276   0.205   1.345   1.730 -0.3856  1.4722  3.0386
   12MOL   H93513277   0.325   1.217   1.698  0.0500  0.6851 -0.5507
   12MOL   H93613278   0.402   1.438   1.852 -1.4738  0.2368  0.4891
   12MOL   H93713279   0.324   1.339   1.964  0.6920  1.5676  0.7781
   12MOL   H93813280   0.543   1.280   1.985  2.0134  0.2675 -1.0021
   12MOL   H93913281   0.483   1.146   1.881  1.1087 -0.8433  2.8191
   12MOL   H94013282   0.758   1.342   1.907 -0.9003 -0.1415  0.5148
   12MOL   H94113283   0.794   1.384   1.616 -1.1425 -3.6704  0.3843
   12MOL   H94213284   0.914   1.332   1.741  1.1070  1.8117  1.3347
   12MOL   H94313285   0.794   1.601   1.794 -0.1831  0.4635  0.2584
   12MOL   H94413286   0.918   1.507   1.874 -0.9435 -2.4191 -0.9351
   12MOL   H94513287   1.045   1.516   1.635  1.4750  1.6358  0.3052
   12MOL   H94613288   0.917   1.623   1.590 -2.6916  0.4712  1.7175
   12MOL   H94713289   1.085   1.658   1.837 -1.3386 -0.0706 -0.1735
   12MOL   H94813290   1.007   1.789   1.742 -1.7133 -0.8254 -1.3110
   12MOL   H94913291   1.214   1.628   1.619 -0.3418 -0.8597  1.8843
   12MOL   H95013292   1.166   1.786   1.571 -1.3749  0.3331  0.7937
   12MOL   H95113293   1.324   1.698   1.818 -4.7996 -1.4536 -1.2516
   12MOL   H95213294   1.297   1.870   1.769 -1.8044 -0.4638  0.5197
   12MOL   H95313295   1.434   1.681   1.596 -0.3799 -0.6358  1.0725
   12MOL   C95413296   1.544   1.843   1.666 -0.2819 -0.1034  0.2123
   12MOL   O95513297   1.549   1.938   1.742 -0.4917 -0.2357 -0.8660
   12MOL   C95613298   1.674   1.807   1.582 -0.5176  0.4814  0.7128
   12MOL   C95713299   1.777   1.911   1.551  0.1084 -0.2133  0.0792
   12MOL   C95813300   1.716   2.008   1.448  0.3631  0.1036 -0.4542
   12MOL   C95913301   1.814   2.105   1.390 -0.3988 -0.1309 -0.1148
   12MOL   C96013302   1.853   2.224   1.474 -1.2023  1.2844 -1.0283
   12MOL   C96113303   1.963   2.305   1.401  0.2919  0.5486 -0.2462
   12MOL   C96213304   2.026   2.414   1.485 -0.3694 -0.0052 -0.7408
   12MOL   C96313305   2.134   2.501   1.427  0.0625  0.2723  0.6339
   12MOL   C96413306   2.178   2.620   1.508 -0.1866  0.1391 -0.6896
   12MOL   C96513307   2.298   2.694   1.451 -0.5639  0.5950  0.1055
   12MOL   C96613308   2.355   2.793   1.557 -0.1948 -0.0619  0.7710
   12MOL   O96713309   2.325   2.912   1.553 -0.0276 -0.5156  0.1352
   12MOL   N96813310   2.434   2.738   1.646 -0.4321 -0.9869 -0.4399
   12MOL   C96913311   2.504   2.800   1.750 -0.5588  0.5256  0.7923
   12MOL   C97013312   2.559   2.689   1.842 -0.0465  0.5560 -0.0922
   12MOL   C97113313   2.669   2.605   1.777 -0.2022  0.1066  0.0180
   12MOL   C97213314   2.738   2.507   1.872 -0.2211 -0.1104 -0.3154
   12MOL   C97313315   2.856   2.445   1.792  0.1580  0.5211  0.4223
   12MOL   C97413316   2.826   2.346   1.673  0.3558 -0.4177  0.4555
   12MOL   N97513317   2.952   2.307   1.622  0.1093  0.1968 -0.1595
   12MOL   H97613318   1.711   1.726   1.644 -2.1165  0.9871  2.3791
   12MOL   H97713319   1.642   1.757   1.490  0.3087  2.0758 -0.4716
   12MOL   H97813320   1.871   1.862   1.524  0.2207 -0.0851  0.2419
   12MOL   H97913321   1.802   1.976   1.635  0.5728 -1.1764  0.6944
   12MOL   H98013322   1.689   1.935   1.372  1.2213 -1.1668  0.4257
   12MOL   H98113323   1.624   2.053   1.485  0.5577  1.4891 -1.6438
   12MOL   H98213324   1.901   2.052   1.350 -0.6644  0.0933 -1.0143
   12MOL   H98313325   1.772   2.140   1.295  0.9764  2.5636  0.2350
   12MOL   H98413326   1.764   2.281   1.501 -0.9088  1.2517  0.0284
   12MOL   H98513327   1.890   2.190   1.571 -1.4465  1.3313 -0.9173
   12MOL   H98613328   2.046   2.235   1.388 -0.7574 -1.1325  1.9418
   12MOL   H98713329   1.925   2.347   1.308 -1.0315 -1.5796 -0.6883
   12MOL   H98813330   1.945   2.484   1.508  0.3799  0.0238  1.9826
   12MOL   H98913331   2.051   2.373   1.583  1.0874 -0.3512 -1.2478
   12MOL   H99013332   2.227   2.445   1.420  0.6691  1.3581 -0.1046
   12MOL   H99113333   2.100   2.531   1.328 -3.9741 -0.4090  1.7237
   12MOL   H99213334   2.206   2.581   1.606  2.5342  0.2516 -1.3699
   12MOL   H99313335   2.093   2.688   1.504 -0.5096 -0.1218  1.3675
   12MOL   H99413336   2.377   2.631   1.411 -0.7549  1.3052 -1.4292
   12MOL   H99513337   2.265   2.755   1.366 -1.7066  2.5430  1.9033
   12MOL   H99613338   2.440   2.637   1.637 -0.0838 -1.1676  1.5759
   12MOL   H99713339   2.435   2.863   1.807 -1.4794  2.0135 -1.8646
   12MOL   H99813340   2.586   2.858   1.707 -1.7154  0.2473 -1.9015
   12MOL   H99913341   2.479   2.627   1.883  0.3564 -0.5975 -1.0011
   12MOL     H113342   2.605   2.733   1.931 -0.6315 -0.0452  0.5170
   12MOL     H213343   2.730   2.677   1.722 -1.2215  1.0907  0.1626
   12MOL     H313344   2.627   2.540   1.701  2.0966  1.8662 -2.8908
   12MOL     H413345   2.776   2.567   1.954  0.9347  1.1417 -1.7382
   12MOL     H513346   2.653   2.445   1.901  0.5085 -0.2412  1.5862
   12MOL     H613347   2.908   2.383   1.864 -1.7693 -2.9405 -1.0611
   12MOL     H713348   2.938   2.511   1.765  0.1430 -0.1291 -1.2602
   12MOL     H813349   2.768   2.259   1.703 -0.6227 -0.1322 -0.5672
   12MOL     H913350   2.784   2.400   1.588  3.3795  0.0073 -0.8556
   12MOL    H1013351   3.039   2.342   1.661  1.1245 -1.3360 -0.9687
   12MOL    C1113352   2.964   2.201   1.541  0.2148  0.3421 -0.9079
   12MOL    O1213353   2.868   2.126   1.515  0.0094  0.6542 -0.3182
   12MOL    C1313354   3.104   2.191   1.464 -0.3802  0.9608 -0.0021
   12MOL    C1413355   3.115   2.117   1.329 -0.2639 -0.2625 -0.0263
   12MOL    C1513356   3.261   2.119   1.283  0.8395  0.0368 -0.7142
   12MOL    C1613357   3.364   2.036   1.371 -0.1548 -0.0570  0.2561
   12MOL    C1713358   3.504   2.042   1.308 -0.0994  0.8259 -0.2113
   12MOL    C1813359   3.611   1.975   1.398 -0.0884  0.0635  0.9402
   12MOL    C1913360   3.597   1.822   1.411  0.2831  0.6693  0.4470
   12MOL    C2013361   3.720   1.762   1.475 -0.3526 -0.2739  0.3158
   12MOL    C2113362   3.686   1.633   1.561 -0.3494 -0.2053 -0.4450
   12MOL    C2213363   3.806   1.581   1.653  0.3325  0.1809  0.0440
   12MOL    C2313364   3.937   1.551   1.575 -0.5804  0.9768  0.6612
   12MOL    O2413365   3.937   1.484   1.473 -0.2969  0.2001 -0.4562
   12MOL    N2513366   4.052   1.600   1.630  0.4880 -0.7121 -0.0302
   12MOL    C2613367   4.180   1.571   1.571  0.3548 -0.5550 -0.7279
   12MOL    C2713368   4.245   1.685   1.492 -0.2039  0.3260  0.1338
   12MOL    C2813369   4.152   1.735   1.385 -0.2266 -0.2767 -0.3511
   12MOL    C2913370   4.200   1.861   1.305 -0.1671 -0.4444 -0.0728
   12MOL    C3013371   4.081   1.948   1.251 -0.2413 -0.0619 -0.0804
   12MOL    C3113372   4.130   2.084   1.199 -0.0487 -0.2254  0.3176
   12MOL    N3213373   4.220   2.073   1.090  0.1532  0.6769  0.0072
   12MOL    H3313374   3.159   2.146   1.547  0.1724  0.6901 -0.5132
   12MOL    H3413375   3.142   2.293   1.458  1.5911  0.3414  1.3431
   12MOL    H3513376   3.058   2.170   1.252 -0.8995 -0.9634 -0.0416
   12MOL    H3613377   3.081   2.015   1.314 -1.1767 -0.2147  1.6508
   12MOL    H3713378   3.304   2.218   1.271 -0.0030  0.6833  1.3399
   12MOL    H3813379   3.268   2.086   1.180 -0.6082 -3.5899  0.2551
   12MOL    H3913380   3.369   2.086   1.467  1.5569 -0.8721  0.6061
   12MOL    H4013381   3.330   1.934   1.386  0.5794 -0.3071  0.2089
   12MOL    H4113382   3.504   1.990   1.212  2.6667  1.3805 -0.5543
   12MOL    H4213383   3.543   2.142   1.290  1.1692  0.0879 -1.6741
   12MOL    H4313384   3.712   2.003   1.369  0.4649 -1.4858  1.2835
   12MOL    H4413385   3.610   2.013   1.500 -0.5313  2.7117 -0.0153
   12MOL    H4513386   3.498   1.799   1.451 -0.0293  1.4462  0.1297
   12MOL    H4613387   3.584   1.776   1.312  0.0187 -0.3241  0.9333
   12MOL    H4713388   3.793   1.742   1.395 -1.3466  1.1386 -0.9647
   12MOL    H4813389   3.771   1.837   1.536 -0.4979 -1.8972  2.4842
   12MOL    H4913390   3.662   1.549   1.496 -1.3161 -0.1770 -0.1336
   12MOL    H5013391   3.603   1.641   1.631  0.7666  2.4236  0.6415
   12MOL    H5113392   3.839   1.650   1.731  1.0226  0.4857 -0.5097
   12MOL    H5213393   3.781   1.491   1.708  4.3001 -0.8986  0.1984
   12MOL    H5313394   4.044   1.642   1.722 -2.3434  1.1889 -1.0735
   12MOL    H5413395   4.182   1.482   1.508 -0.0358 -1.9358  1.1720
   12MOL    H5513396   4.238   1.553   1.661 -0.4780  0.8678  0.0991
   12MOL    H5613397   4.342   1.663   1.449 -0.3728  0.6344 -0.4025
   12MOL    H5713398   4.265   1.762   1.566  0.1960  1.8274 -1.5125
   12MOL    H5813399   4.063   1.776   1.431  0.8777 -0.5108  2.0812
   12MOL    H5913400   4.106   1.655   1.327  1.2672 -0.2957 -1.5632
   12MOL    H6013401   4.272   1.831   1.229 -1.1730  0.5887 -1.4745
   12MOL    H6113402   4.262   1.920   1.373 -2.9242  0.6761  1.5731
   12MOL    H6213403   4.009   1.985   1.323 -0.2880 -0.0596 -0.1276
   12MOL    H6313404   4.023   1.892   1.177  2.3706 -1.0752 -1.4552
   12MOL    H6413405   4.181   2.125   1.286 -0.0392 -0.5814  0.4808
   12MOL    H6513406   4.054   2.155   1.167  1.5148  1.1227 -0.4810
   12MOL    H6613407   4.316   2.053   1.115  0.1116  2.6648  1.8891
   12MOL    C6713408   4.196   2.080   0.960 -0.3997 -0.9204 -0.0758
   12MOL    O6813409   4.081   2.067   0.917  0.2371  0.2196  0.0253
   12MOL    C6913410   4.316   2.119   0.866 -0.5366 -0.6057 -0.7221
   12MOL    C7013411   4.371   2.011   0.769  0.0688  0.4960  0.1105
   12MOL    C7113412   4.475   1.902   0.815 -0.2358 -0.3046  0.4225
   12MOL    C7213413   4.519   1.799   0.709  0.0445  0.1941 -0.6019
   12MOL    C7313414   4.593   1.680   0.772 -0.2052 -0.2479 -0.9670
   12MOL    C7413415   4.638   1.562   0.692  0.3814 -0.4648  0.9385
   12MOL    C7513416   4.550   1.510   0.573 -0.8670  0.0490  0.2711
   12MOL    C7613417   4.554   1.599   0.438  0.0719 -0.7447  0.4262
   12MOL    C7713418   4.472   1.544   0.318 -0.5799 -0.0899 -0.1184
   12MOL    C7813419   4.313   1.546   0.341  0.4473  0.2635  0.1023
   12MOL    C7913420   4.265   1.688   0.346 -0.3285  0.2853 -0.2499
   12MOL    O8013421   4.280   1.763   0.253  0.0999 -0.2713  0.3169
   12MOL    N8113422   4.201   1.715   0.456  1.0577  0.1482 -0.0577
   12MOL    C8213423   4.150   1.847   0.481 -0.6048  1.0626 -0.1117
   12MOL    C8313424   3.991   1.849   0.487 -0.6196 -0.7143 -0.5229
   12MOL    C8413425   3.927   1.988   0.516 -0.1057  0.0237 -0.4283
   12MOL    C8513426   3.779   1.978   0.518  0.3064 -0.1075 -0.7591
   12MOL    C8613427   3.712   2.114   0.497  0.8882 -0.2818  0.5504
   12MOL    C8713428   3.561   2.091   0.498  0.0753  0.3831 -0.3439
   12MOL    N8813429   3.479   2.200   0.447 -0.4215 -0.3297  0.4333
   12MOL    H8913430   4.402   2.159   0.919 -1.3282  3.4771 -2.2939
   12MOL    H9013431   4.274   2.208   0.819 -1.2867  1.4850  3.5952
   12MOL    H9113432   4.287   1.954   0.731  2.9706 -3.7371 -0.3706
   12MOL    H9213433   4.415   2.056   0.680 -2.5084 -0.0983 -1.5195
   12MOL    H9313434   4.561   1.950   0.861 -0.1612  0.0077 -0.0327
   12MOL    H9413435   4.435   1.847   0.899  0.9643  1.2544  2.0502
   12MOL    H9513436   4.429   1.762   0.659  1.0142 -0.9412 -1.5084
   12MOL    H9613437   4.572   1.856   0.633  2.9220  1.3643  2.1998
   12MOL    H9713438   4.680   1.709   0.832  0.8499 -2.8049 -1.1946
   12MOL    H9813439   4.533   1.636   0.852 -1.2893 -1.3840 -2.3924
   12MOL    H9913440   4.729   1.596   0.642  1.0790 -0.2518  2.3308
   12MOL   H10013441   4.671   1.471   0.742  0.2729 -1.1292 -0.1733
   12MOL   H10113442   4.446   1.505   0.607 -1.4687 -2.0812 -1.7018
   12MOL   H10213443   4.589   1.409   0.560 -1.3738 -0.4304  2.2873
   12MOL   H10313444   4.521   1.701   0.461  0.0835 -1.0141  1.6575
   12MOL   H10413445   4.655   1.606   0.398 -0.5656 -0.4735 -1.1841
   12MOL   H10513446   4.500   1.444   0.286  2.1075 -0.3150  2.7233
   12MOL   H10613447   4.494   1.609   0.234  0.2245 -0.2185 -0.0057
   12MOL   H10713448   4.261   1.495   0.260 -0.9463 -1.1655  1.8487
   12MOL   H10813449   4.267   1.492   0.423 -0.8401  1.8118  0.4190
   12MOL   H10913450   4.179   1.643   0.523 -1.2216 -0.5570 -1.5254
   12MOL   H11013451   4.168   1.914   0.397 -1.8847  1.4392 -0.0904
   12MOL   H11113452   4.202   1.895   0.564 -0.4461  2.3860 -0.9659
   12MOL   H11213453   3.972   1.781   0.571  2.2902 -0.8303  0.0872
   12MOL   H11313454   3.959   1.799   0.396  1.3018  1.0813 -2.2316
   12MOL   H11413455   3.958   2.065   0.445 -0.6745 -0.0833 -0.7981
   12MOL   H11513456   3.952   2.021   0.617 -2.7832  0.3199  0.1794
   12MOL   H11613457   3.759   1.915   0.432 -2.8762  0.7527 -0.7200
   12MOL   H11713458   3.737   1.944   0.613 -2.1761  1.3169 -1.3133
   12MOL   H11813459   3.744   2.193   0.565  4.6464  0.2114 -1.6387
   12MOL   H11913460   3.731   2.152   0.396  0.6849 -0.0450  0.6008
   12MOL   H12013461   3.531   2.009   0.432  0.1133 -0.2890  0.4648
   12MOL   H12113462   3.521   2.047   0.590 -0.0077 -0.7980 -0.9332
   12MOL   H12213463   3.382   2.181   0.467 -0.5217 -0.8118 -0.4795
   12MOL   H12313464   3.503   2.286   0.494  0.2058 -0.9500  1.2445
   13MOL     C113465   4.028   0.601   2.985 -0.3567  0.5389 -0.0533
   13MOL     O213466   3.942   0.617   2.893  0.1462 -0.1513  0.6005
   13MOL     C313467   4.135   0.490   2.971 -0.0539 -0.4537 -0.1350
   13MOL     C413468   4.249   0.541   2.872 -0.3776 -1.0765 -0.6721
   13MOL     C513469   4.376   0.599   2.935  0.0408 -0.0854  0.0676
   13MOL     C613470   4.497   0.610   2.832  0.2827 -0.4510 -0.1501
   13MOL     C713471   4.641   0.632   2.876 -0.6877  0.2884  0.7724
   13MOL     C813472   4.743   0.648   2.760 -0.3402 -0.3904  0.6778
   13MOL     C913473   4.726   0.773   2.671  0.2712 -0.0010  0.6680
   13MOL    C1013474   4.861   0.817   2.605  0.2049  0.3451  0.0745
   13MOL    C1113475   4.837   0.919   2.494 -0.2820  0.7525 -0.1784
   13MOL    C1213476   4.975   0.967   2.445 -0.1271  0.6620 -0.0087
   13MOL    C1313477   5.057   0.868   2.367  0.3138  0.4001 -0.2987
   13MOL    O1413478   5.026   0.854   2.254  0.0687 -0.1443 -0.2247
   13MOL    N1513479   5.173   0.829   2.425  0.8884  0.1291  0.3009
   13MOL    C1613480   5.277   0.763   2.344  0.4936  0.1875  0.4686
   13MOL    C1713481   5.281   0.615   2.384 -0.3489  0.0339 -0.4205
   13MOL    C1813482   5.372   0.542   2.278 -0.8110  0.6536 -0.1385
   13MOL    C1913483   5.415   0.404   2.334 -0.0189  0.2442  0.5259
   13MOL    C2013484   5.505   0.321   2.248  0.2015  0.2272  0.0405
   13MOL    C2113485   5.515   0.174   2.307  0.1291 -0.0486 -0.0661
   13MOL    N2213486   5.620   0.096   2.234  0.1403 -0.7141 -0.1575
   13MOL    H2313487   4.086   0.408   2.919 -0.4319 -0.8978  0.9147
   13MOL    H2413488   4.164   0.453   3.069 -0.1107 -2.2570 -0.7874
   13MOL    H2513489   4.209   0.606   2.795 -1.1774 -0.8869 -0.1046
   13MOL    H2613490   4.275   0.454   2.811 -0.4517  0.5075 -2.9816
   13MOL    H2713491   4.412   0.532   3.013 -0.4549  0.3193  0.6492
   13MOL    H2813492   4.361   0.689   2.995  2.4061  0.6264 -0.3491
   13MOL    H2913493   4.499   0.517   2.775  0.9778  0.1677 -1.1404
   13MOL    H3013494   4.463   0.686   2.762 -1.3472 -1.8614 -0.9397
   13MOL    H3113495   4.683   0.540   2.919  2.6445  0.2913 -2.1808
   13MOL    H3213496   4.652   0.721   2.937  1.3940  1.6105 -1.4390
   13MOL    H3313497   4.844   0.634   2.797 -0.7258 -0.6903  1.6351
   13MOL    H3413498   4.730   0.561   2.694  0.9086  2.0508 -2.9667
   13MOL    H3513499   4.649   0.745   2.599 -0.3831 -0.4361  1.5282
   13MOL    H3613500   4.690   0.859   2.729 -1.8183  1.3700 -2.5022
   13MOL    H3713501   4.931   0.856   2.679  0.7395  0.5476 -0.5385
   13MOL    H3813502   4.906   0.724   2.568 -1.7999 -0.1164 -1.2571
   13MOL    H3913503   4.784   1.008   2.528 -0.6368 -0.1841  1.7614
   13MOL    H4013504   4.782   0.882   2.407  0.2009 -0.5417  0.0651
   13MOL    H4113505   4.963   1.066   2.400  1.1776  0.4898 -0.7681
   13MOL    H4213506   5.032   0.978   2.538  1.2285  0.6864 -0.8262
   13MOL    H4313507   5.192   0.863   2.518  2.2317  0.6956 -0.1543
   13MOL    H4413508   5.372   0.815   2.361 -0.0513  0.9670  1.1725
   13MOL    H4513509   5.249   0.773   2.240 -2.9277 -0.1970  1.2894
   13MOL    H4613510   5.180   0.573   2.374  0.0534 -0.8412 -0.8445
   13MOL    H4713511   5.298   0.600   2.490  0.7347 -0.4503 -0.6589
   13MOL    H4813512   5.306   0.522   2.193 -1.4676  0.0854  0.5008
   13MOL    H4913513   5.457   0.607   2.256 -2.4419  2.0862 -2.4387
   13MOL    H5013514   5.324   0.353   2.365  0.2758 -0.0370  0.9299
   13MOL    H5113515   5.450   0.420   2.436  1.2632 -1.9976  0.4498
   13MOL    H5213516   5.470   0.321   2.145  0.3141  1.5174 -0.0012
   13MOL    H5313517   5.606   0.357   2.230  0.6407 -0.6826  0.6047
   13MOL    H5413518   5.535   0.174   2.414  0.4327 -1.8341 -0.1133
   13MOL    H5513519   5.418   0.124   2.308  0.6773 -1.1213 -0.2214
   13MOL    H5613520   5.702   0.149   2.208 -2.1608  3.9215  1.4887
   13MOL    H5713521   4.038   0.659   3.077  0.7930  4.7730 -2.6667
   13MOL    C5813522   5.606   7.653   2.214 -0.2907 -0.1836  0.7331
   13MOL    O5913523   5.510   7.589   2.255  0.8454 -0.3033  0.2055
   13MOL    C6013524   5.723   7.580   2.157 -0.4416 -0.5401 -0.3008
   13MOL    C6113525   5.682   7.487   2.040  0.4161  0.0200  0.2262
   13MOL    C6213526   5.629   7.573   1.925 -0.1840 -0.2002 -0.1285
   13MOL    C6313527   5.554   7.485   1.824 -0.2097  0.1668 -0.3211
   13MOL    C6413528   5.634   7.372   1.759 -0.3794 -0.0772  0.9522
   13MOL    C6513529   5.540   7.292   1.658 -0.4918  0.1884 -0.1135
   13MOL    C6613530   5.604   7.168   1.605  0.2592  0.8563 -0.1281
   13MOL    C6713531   5.539   7.104   1.471  0.2828  0.9070 -0.6947
   13MOL    C6813532   5.611   6.973   1.419  0.2689  0.6658 -0.0612
   13MOL    C6913533   5.553   6.845   1.471  0.2442  0.6965  0.3175
   13MOL    C7013534   5.608   6.719   1.397  0.0162  0.4116  0.3582
   13MOL    O7113535   5.551   6.674   1.299 -0.0467 -0.0520  0.6499
   13MOL    N7213536   5.718   6.669   1.453 -0.7931 -0.0399  0.1007
   13MOL    C7313537   5.805   6.565   1.383  0.2367  0.4746 -0.1224
   13MOL    C7413538   5.789   6.426   1.448  0.3089 -0.0121 -0.2609
   13MOL    C7513539   5.655   6.366   1.435  0.1704 -0.3865 -0.3917
   13MOL    C7613540   5.647   6.217   1.475 -0.5661 -0.1749 -0.5169
   13MOL    C7713541   5.532   6.125   1.426  0.1327 -0.3748 -0.1762
   13MOL    C7813542   5.560   5.982   1.458 -0.0310 -0.3176 -0.2927
   13MOL    N7913543   5.460   5.892   1.401  0.0227 -0.3734 -0.2608
   13MOL    H8013544   5.755   7.512   2.235 -2.1145 -0.1738  0.7421
   13MOL    H8113545   5.809   7.646   2.144  0.7178 -1.9928 -0.1431
   13MOL    H8213546   5.761   7.421   2.005 -0.5013  0.3113 -2.5110
   13MOL    H8313547   5.600   7.423   2.071 -0.2239 -0.1063 -1.6373
   13MOL    H8413548   5.710   7.618   1.867  0.9751  0.7562  2.1643
   13MOL    H8513549   5.566   7.658   1.951 -1.2972 -0.8040 -0.8151
   13MOL    H8613550   5.516   7.544   1.741  0.0507 -1.1000 -1.3613
   13MOL    H8713551   5.470   7.445   1.881  2.1463 -4.7327  0.0677
   13MOL    H8813552   5.716   7.411   1.699 -1.0766 -1.6381 -1.0509
   13MOL    H8913553   5.672   7.304   1.835 -1.7150  0.9305  2.5637
   13MOL    H9013554   5.509   7.357   1.576  0.9437  2.3426  1.0040
   13MOL    H9113555   5.445   7.265   1.704 -1.0985 -0.2332 -1.5937
   13MOL    H9213556   5.590   7.083   1.671 -1.2655 -1.6001 -3.4982
   13MOL    H9313557   5.710   7.182   1.583  0.8273  0.2202  2.0874
   13MOL    H9413558   5.431   7.088   1.474  0.6363 -1.3968  2.0799
   13MOL    H9513559   5.569   7.180   1.400  1.2552  1.4324  0.2579
   13MOL    H9613560   5.717   6.987   1.441 -0.2133  1.5434  1.8651
   13MOL    H9713561   5.597   6.973   1.311  0.4347  0.4684 -0.0845
   13MOL    H9813562   5.591   6.830   1.572 -0.7324 -0.4942  0.5173
   13MOL    H9913563   5.446   6.826   1.470  0.6338 -1.6512 -0.4643
   13MOL   H10013564   5.748   6.713   1.538 -0.4909 -1.0380  0.5219
   13MOL   H10113565   5.913   6.568   1.394  0.1287 -0.6874  1.3646
   13MOL   H10213566   5.782   6.571   1.276  0.0194  1.7032 -0.0191
   13MOL   H10313567   5.864   6.364   1.399 -0.8665 -0.6618 -1.2656
   13MOL   H10413568   5.814   6.446   1.552 -1.8678  0.7245  0.1399
   13MOL   H10513569   5.632   6.370   1.329 -0.7819 -2.0307 -0.2712
   13MOL   H10613570   5.590   6.436   1.488  2.3496 -0.5441  2.5954
   13MOL   H10713571   5.739   6.172   1.436  1.0694  0.6662  2.2310
   13MOL   H10813572   5.639   6.199   1.582 -1.6713 -0.2406 -0.6087
   13MOL   H10913573   5.525   6.132   1.317  0.8298 -3.0771 -0.4152
   13MOL   H11013574   5.434   6.154   1.463 -0.0430  0.2927 -1.1273
   13MOL   H11113575   5.568   5.968   1.566  1.6110  3.4557  0.1566
   13MOL   H11213576   5.660   5.949   1.428  0.0778  1.2998 -1.8332
   13MOL   H11313577   5.410   5.830   1.463  1.7618 -1.9064 -0.3552
   13MOL   C11413578   5.467   5.837   1.278  0.2179 -0.8627  0.0738
   13MOL   O11513579   5.534   5.887   1.190 -0.2994 -0.1952  0.7382
   13MOL   C11613580   5.393   5.707   1.249 -0.1893  0.2593  0.4331
   13MOL   C11713581   5.448   5.623   1.134  0.5031 -0.1291 -0.3958
   13MOL   C11813582   5.571   5.544   1.179  0.3648  0.0571 -0.0942
   13MOL   C11913583   5.591   5.415   1.099 -0.4946 -0.1572  0.2837
   13MOL   C12013584   5.703   5.332   1.151 -0.1006 -0.0953  0.0247
   13MOL   C12113585   5.734   5.213   1.056  0.2640  0.7677 -0.5638
   13MOL   C12213586   5.628   5.105   1.061  0.1924 -0.0294  0.4295
   13MOL   C12313587   5.663   4.984   0.975 -0.3316 -0.5018  0.7718
   13MOL   C12413588   5.543   4.893   0.946 -0.1906  0.3314 -0.3494
   13MOL   C12513589   5.457   4.844   1.063 -0.5249  0.2119  0.5334
   13MOL   C12613590   5.344   4.947   1.092 -0.2705 -0.2201  0.2936
   13MOL   O12713591   5.277   5.010   1.011 -0.1069 -0.3206 -0.0216
   13MOL   N12813592   5.329   4.971   1.218 -0.0079  0.5881 -0.5219
   13MOL   C12913593   5.249   5.084   1.275  0.0319  0.7519  0.5733
   13MOL   C13013594   5.332   5.138   1.387  0.0979 -0.1330 -0.4758
   13MOL   C13113595   5.261   5.254   1.460  0.1700 -0.8210  0.4704
   13MOL   C13213596   5.355   5.309   1.572 -0.7014  0.2095 -0.1267
   13MOL   C13313597   5.299   5.429   1.638  0.5092  0.1854  0.4403
   13MOL   C13413598   5.393   5.470   1.760  0.3951  0.0718  0.6637
   13MOL   N13513599   5.527   5.461   1.720  0.2543  0.2454 -0.0139
   13MOL   H13613600   5.398   5.647   1.340 -0.0775 -1.0215 -0.4093
   13MOL   H13713601   5.285   5.725   1.248 -0.3945 -0.9678 -0.8571
   13MOL   H13813602   5.467   5.689   1.050  0.0860  1.0100  0.3931
   13MOL   H13913603   5.363   5.562   1.103 -1.4673  1.5906  1.4421
   13MOL   H14013604   5.663   5.603   1.170 -0.1706  1.0196  0.7133
   13MOL   H14113605   5.564   5.522   1.285  0.2982  0.6799  0.0358
   13MOL   H14213606   5.498   5.360   1.081 -1.4151  1.1436  1.0024
   13MOL   H14313607   5.616   5.455   1.001 -0.5466 -2.6925 -0.8227
   13MOL   H14413608   5.788   5.397   1.172  1.2068 -1.4211 -1.0280
   13MOL   H14513609   5.676   5.296   1.250  0.8544  0.5841  0.5355
   13MOL   H14613610   5.824   5.175   1.106 -0.3973 -0.6033 -0.3896
   13MOL   H14713611   5.751   5.247   0.954 -0.9177  1.8363 -0.4110
   13MOL   H14813612   5.614   5.085   1.167  0.1374  1.6872  0.7622
   13MOL   H14913613   5.527   5.139   1.037  0.3827  0.1979 -0.0613
   13MOL   H15013614   5.747   4.926   1.013 -0.4006 -1.7209 -0.8661
   13MOL   H15113615   5.709   5.013   0.880 -0.5784  1.1998  1.1595
   13MOL   H15213616   5.573   4.806   0.888 -0.0914 -0.3830  0.7610
   13MOL   H15313617   5.485   4.952   0.875  0.4110  1.6604  0.2568
   13MOL   H15413618   5.516   4.813   1.150  0.4799 -3.3935 -1.3160
   13MOL   H15513619   5.410   4.751   1.031  2.1595 -1.1432  0.3841
   13MOL   H15613620   5.377   4.907   1.279  1.0974  1.5736 -0.3427
   13MOL   H15713621   5.157   5.047   1.319 -0.9555  1.2311 -1.0796
   13MOL   H15813622   5.228   5.165   1.206 -2.1198  0.5321  0.9359
   13MOL   H15913623   5.425   5.172   1.341 -0.0779  1.2772  0.1599
   13MOL   H16013624   5.359   5.064   1.462  0.2778  0.4108  0.0037
   13MOL   H16113625   5.224   5.331   1.392 -0.6388 -0.4471  1.3203
   13MOL   H16213626   5.168   5.223   1.508  0.0523 -0.7747  0.2719
   13MOL   H16313627   5.375   5.227   1.641  1.2847  0.8224  0.0304
   13MOL   H16413628   5.454   5.323   1.528 -1.2482  1.3328 -1.0415
   13MOL   H16513629   5.199   5.409   1.677 -0.2602  1.0345 -1.0308
   13MOL   H16613630   5.282   5.510   1.568 -1.7068 -0.2860  0.3912
   13MOL   H16713631   5.367   5.572   1.789  1.3747  0.5404 -0.0683
   13MOL   H16813632   5.369   5.411   1.849 -1.8448  0.3387  0.2637
   13MOL   H16913633   5.563   5.368   1.733 -1.3881 -0.5674 -1.0423
   13MOL   C17013634   5.599   5.573   1.689 -0.3227  0.0715  0.0168
   13MOL   O17113635   5.547   5.688   1.676  0.1985  0.3118 -0.2028
   13MOL   C17213636   5.751   5.553   1.661  0.0391 -0.6785  0.3622
   13MOL   C17313637   5.806   5.659   1.564  0.3553  0.2721 -0.1068
   13MOL   C17413638   5.959   5.659   1.533 -0.1722  0.0640  0.3120
   13MOL   C17513639   5.999   5.536   1.443  0.2471 -0.1817 -0.6340
   13MOL   C17613640   6.138   5.551   1.371  0.5894  0.4137 -0.2111
   13MOL   C17713641   6.185   5.425   1.293  0.7149  0.7621  0.0564
   13MOL   C17813642   6.334   5.436   1.264  0.0833  0.3252  0.2679
   13MOL   C17913643   6.404   5.319   1.193  0.2258 -0.2081  0.1348
   13MOL   C18013644   6.553   5.343   1.163 -0.1317 -0.2471  0.8028
   13MOL   C18113645   6.638   5.315   1.288 -0.0323 -0.5524 -0.1354
   13MOL   C18213646   6.659   5.172   1.309 -0.1043 -0.2014 -0.5723
   13MOL   O18313647   6.653   5.086   1.224 -0.5007  0.1278 -0.1550
   13MOL   N18413648   6.696   5.127   1.426  0.5991  0.1846  0.6631
   13MOL   C18513649   6.715   4.985   1.455  0.2310 -0.0824 -0.3336
   13MOL   C18613650   6.807   4.980   1.579 -0.5891  0.0857  0.6634
   13MOL   C18713651   6.821   4.838   1.625  0.4211  0.1552 -0.0135
   13MOL   C18813652   6.866   4.837   1.771  0.5686 -0.4145  0.4209
   13MOL   C18913653   7.012   4.866   1.795  0.1192 -0.1770 -0.0240
   13MOL   C19013654   7.044   4.852   1.943 -0.5070  0.1991 -0.0150
   13MOL   N19113655   7.189   4.860   1.970 -0.4882 -0.6946  0.4820
   13MOL   H19213656   5.811   5.547   1.752  0.2119 -3.6309  0.1044
   13MOL   H19313657   5.746   5.463   1.600  0.2457 -0.9520  0.7431
   13MOL   H19413658   5.779   5.756   1.605 -0.0753  0.5550 -1.0343
   13MOL   H19513659   5.755   5.658   1.467 -1.7817  0.4471  0.9956
   13MOL   H19613660   6.018   5.665   1.625  1.1686 -0.4946 -0.4847
   13MOL   H19713661   5.982   5.755   1.487 -1.2013 -0.1533 -0.6587
   13MOL   H19813662   6.006   5.452   1.512 -1.4254  0.6858  0.6189
   13MOL   H19913663   5.917   5.505   1.377 -1.3814  0.6886  0.9311
   13MOL   H20013664   6.151   5.632   1.299 -1.3280 -0.2306 -1.3177
   13MOL   H20113665   6.211   5.575   1.448  0.6833  1.5436 -0.6444
   13MOL   H20213666   6.134   5.408   1.198  1.7267 -1.1864 -0.1519
   13MOL   H20313667   6.172   5.339   1.359 -1.0745  1.8601  1.2126
   13MOL   H20413668   6.350   5.519   1.195  0.5891 -0.6167 -0.7612
   13MOL   H20513669   6.385   5.440   1.361  1.6102 -2.2186 -0.3891
   13MOL   H20613670   6.377   5.238   1.261  0.0742  1.3745  1.9946
   13MOL   H20713671   6.346   5.291   1.105  0.9238 -1.4744  0.0555
   13MOL   H20813672   6.559   5.445   1.124 -0.4117 -0.4497  0.2132
   13MOL   H20913673   6.579   5.279   1.078  0.0804  0.7051  0.1348
   13MOL   H21013674   6.739   5.352   1.270  0.3213 -0.3541  2.0484
   13MOL   H21113675   6.594   5.371   1.370 -0.4694  2.2462 -2.2206
   13MOL   H21213676   6.703   5.188   1.506 -0.3504 -1.8555  2.3530
   13MOL   H21313677   6.766   4.932   1.375  0.1839 -1.5296  0.5861
   13MOL   H21413678   6.617   4.938   1.464  0.1528 -0.5035 -2.9660
   13MOL   H21513679   6.905   5.019   1.553  0.5189 -2.7867  0.3627
   13MOL   H21613680   6.753   5.045   1.647  2.0875  4.0719 -0.8267
   13MOL   H21713681   6.719   4.801   1.632  0.2325  1.0480  2.2202
   13MOL   H21813682   6.883   4.771   1.565 -0.1960  1.7831 -2.5575
   13MOL   H21913683   6.848   4.733   1.799 -0.2017 -0.2833  0.4111
   13MOL   H22013684   6.797   4.895   1.832  2.5651  0.9258  1.4568
   13MOL   H22113685   7.014   4.973   1.775 -0.6054  0.6171  3.7984
   13MOL   H22213686   7.079   4.807   1.733  1.2211 -2.8091  3.5212
   13MOL   H22313687   7.026   4.751   1.979  1.2559 -0.3859 -0.7257
   13MOL   H22413688   6.980   4.921   1.999  0.6289  0.8200  0.5474
   13MOL   H22513689   7.250   4.781   1.953  1.6872  1.0119  0.0658
   13MOL   C22613690   7.246   4.960   2.039  0.1379  0.3633 -0.4524
   13MOL   O22713691   7.185   5.053   2.094  0.5223 -0.1927 -0.2723
   13MOL   C22813692   7.396   4.965   2.033  0.3239 -0.2852  0.7058
   13MOL   C22913693   7.445   5.042   1.910  0.9734 -0.7040  0.6193
   13MOL   C23013694   7.413   4.984   1.766 -0.3468  0.9738  0.0026
   13MOL   C23113695   7.486   5.056   1.652 -0.4928 -0.5832  0.2957
   13MOL   C23213696   7.446   5.195   1.616  0.4787 -0.3845  0.4713
   13MOL   C23313697   7.305   5.214   1.553 -0.6921 -0.3708 -0.3014
   13MOL   C23413698   7.297   5.176   1.407 -0.7279 -0.0033  0.2166
   13MOL   C23513699   7.152   5.171   1.364  0.0118  0.2395  0.0738
   13MOL   C23613700   7.130   5.100   1.231  0.3889  0.7126 -0.2374
   13MOL   C23713701   6.984   5.091   1.184 -0.2539  0.3237  0.2991
   13MOL   C23813702   6.964   5.001   1.066  0.7358  0.5331  0.5642
   13MOL   O23913703   7.065   4.959   0.998  0.4632  0.5816 -0.6146
   13MOL   N24013704   6.842   4.979   1.023  0.2492  0.4057  0.2902
   13MOL   C24113705   6.798   4.901   0.909  0.5259 -0.4200  0.0259
   13MOL   C24213706   6.653   4.943   0.872 -0.3669  0.0311  0.4437
   13MOL   C24313707   6.637   5.078   0.798 -0.2498  0.0816 -0.0177
   13MOL   C24413708   6.492   5.116   0.746 -0.2556  0.0111 -0.1645
   13MOL   C24513709   6.501   5.239   0.656 -0.2933 -0.1423 -0.8152
   13MOL   C24613710   6.373   5.320   0.662  0.4746 -0.2083  0.6237
   13MOL   N24713711   6.388   5.448   0.586 -0.1115  0.1369  0.2363
   13MOL   H24813712   7.451   4.871   2.042 -1.5753 -1.6079 -1.0922
   13MOL   H24913713   7.420   5.021   2.123  1.9466 -0.0243  0.1479
   13MOL   H25013714   7.398   5.140   1.910  0.2339 -1.0311 -1.6873
   13MOL   H25113715   7.549   5.070   1.921  0.8536  0.7538 -1.6400
   13MOL   H25213716   7.449   4.882   1.755 -3.1517 -0.0434 -0.1256
   13MOL   H25313717   7.308   4.975   1.736 -0.2935  2.9332 -0.8636
   13MOL   H25413718   7.483   4.982   1.572 -0.1553 -0.9083  0.5817
   13MOL   H25513719   7.592   5.067   1.674 -0.4704  0.5438 -0.3220
   13MOL   H25613720   7.515   5.231   1.540  0.6455 -1.8837 -0.1127
   13MOL   H25713721   7.451   5.263   1.701  0.7231  0.4847 -0.2295
   13MOL   H25813722   7.227   5.168   1.613 -0.6051  2.0612  1.7456
   13MOL   H25913723   7.292   5.322   1.564  1.1641 -0.0590 -1.0264
   13MOL   H26013724   7.333   5.074   1.390 -0.4942  0.1513 -0.2101
   13MOL   H26113725   7.368   5.238   1.352  0.4306 -0.8004  0.7826
   13MOL   H26213726   7.084   5.129   1.438 -0.3853  0.9513  0.1216
   13MOL   H26313727   7.110   5.271   1.349  2.2498  1.2932  0.6150
   13MOL   H26413728   7.179   5.155   1.151 -1.7770 -0.2129 -2.2517
   13MOL   H26513729   7.176   5.004   1.256  0.1327  1.7336  4.5985
   13MOL   H26613730   6.924   5.042   1.260  0.5395 -0.1684  0.6206
   13MOL   H26713731   6.936   5.187   1.171  1.2698  1.1006  0.3393
   13MOL   H26813732   6.769   5.030   1.072  0.0253  1.3915 -1.0301
   13MOL   H26913733   6.794   4.794   0.929  1.4472 -0.5693 -0.5841
   13MOL   H27013734   6.864   4.924   0.825  0.6113 -0.4521  0.0846
   13MOL   H27113735   6.585   4.958   0.955  0.2807  4.5276  0.3323
   13MOL   H27213736   6.604   4.870   0.808 -1.5643 -0.6612  2.1166
   13MOL   H27313737   6.661   5.158   0.867  1.7948 -2.2523  2.0662
   13MOL   H27413738   6.708   5.076   0.715  0.3812  0.6043  0.5043
   13MOL   H27513739   6.422   5.135   0.827 -0.1619  0.6951 -0.2454
   13MOL   H27613740   6.460   5.026   0.693  0.6769 -0.8224  0.6618
   13MOL   H27713741   6.526   5.211   0.553 -1.5332 -2.2402 -0.5640
   13MOL   H27813742   6.585   5.299   0.692 -1.0600  0.0096  0.7375
   13MOL   H27913743   6.347   5.341   0.766  2.7008 -0.2384  1.1988
   13MOL   H28013744   6.290   5.268   0.614 -0.4419  1.3305  0.5010
   13MOL   H28113745   6.465   5.459   0.521 -0.0868  0.1390  0.2655
   13MOL   C28213746   6.314   5.560   0.613  0.1562 -0.1386 -0.2389
   13MOL   O28313747   6.212   5.545   0.677  0.5785 -0.4993 -0.0347
   13MOL   C28413748   6.350   5.709   0.572  0.1911 -0.0797  0.0270
   13MOL   C28513749   6.225   5.791   0.535 -0.2224  0.0588 -0.6867
   13MOL   C28613750   6.154   5.864   0.654 -0.9582  0.2999 -0.2515
   13MOL   C28713751   6.059   5.977   0.609  0.2478 -0.3483 -0.3928
   13MOL   C28813752   5.964   6.028   0.720  0.4437  0.1248  0.3868
   13MOL   C28913753   5.882   6.158   0.686  0.2778  0.2919  0.4867
   13MOL   C29013754   5.767   6.129   0.584 -0.1457 -0.5258 -0.1733
   13MOL   C29113755   5.705   6.256   0.533 -0.4563  0.6273  0.9619
   13MOL   C29213756   5.641   6.347   0.645  0.3581  0.8307 -0.2978
   13MOL   C29313757   5.557   6.459   0.587  0.4929 -0.2448  0.3374
   13MOL   C29413758   5.621   6.595   0.557 -0.2344  0.2780  0.5386
   13MOL   O29513759   5.743   6.615   0.554 -0.1983 -0.1345  0.4038
   13MOL   N29613760   5.533   6.696   0.542  0.3404  0.3905 -0.2850
   13MOL   C29713761   5.569   6.832   0.512 -0.3912  0.1480  0.4657
   13MOL   C29813762   5.639   6.838   0.372  0.3138 -0.0454  1.3659
   13MOL   C29913763   5.715   6.970   0.358  0.0176 -0.1310 -0.0508
   13MOL   C30013764   5.806   6.983   0.228 -0.0566 -1.0271 -0.7032
   13MOL   C30113765   5.891   7.118   0.227  0.2720 -0.7341  0.2233
   13MOL   C30213766   5.802   7.246   0.243  0.1090  0.4434 -0.0063
   13MOL   N30313767   5.711   7.271   0.133  0.1418 -0.5327  0.6237
   13MOL   H30413768   6.398   5.753   0.659  0.0641  1.4348 -0.6414
   13MOL   H30513769   6.426   5.713   0.494  2.4627  2.2111  2.2579
   13MOL   H30613770   6.141   5.735   0.493 -0.1518  0.7212 -1.6997
   13MOL   H30713771   6.248   5.872   0.467  0.8266  0.9475  0.7039
   13MOL   H30813772   6.084   5.800   0.708 -1.4319  0.7081 -0.3799
   13MOL   H30913773   6.218   5.907   0.732 -1.0363 -1.1693  0.6440
   13MOL   H31013774   5.986   5.946   0.534  2.6321 -2.2527 -2.0543
   13MOL   H31113775   6.114   6.064   0.573 -0.7360  0.6636  0.5422
   13MOL   H31213776   5.894   5.951   0.753  2.4983 -1.4427  1.1634
   13MOL   H31313777   6.023   6.054   0.808 -0.8744  0.2277  1.2467
   13MOL   H31413778   5.837   6.193   0.779  1.3112  1.0155  0.7331
   13MOL   H31513779   5.950   6.233   0.645 -2.4851  1.4328 -2.1978
   13MOL   H31613780   5.698   6.056   0.627  0.2339  0.1680  1.6795
   13MOL   H31713781   5.812   6.070   0.504 -0.8871 -1.3924  0.0313
   13MOL   H31813782   5.627   6.231   0.462 -1.4944 -0.6507  2.5115
   13MOL   H31913783   5.794   6.300   0.488  1.0047 -2.0693  1.1426
   13MOL   H32013784   5.577   6.287   0.710  1.6677 -3.7558 -2.9943
   13MOL   H32113785   5.729   6.386   0.696  0.2817 -0.0928  0.5671
   13MOL   H32213786   5.490   6.429   0.507  0.3504 -1.3539  0.8626
   13MOL   H32313787   5.480   6.477   0.662 -1.0356 -0.5462 -1.1321
   13MOL   H32413788   5.438   6.668   0.560  0.1018  1.8160  0.8109
   13MOL   H32513789   5.633   6.865   0.594  0.6158  0.2316 -0.3376
   13MOL   H32613790   5.482   6.896   0.498 -0.6115 -0.2312  0.0568
   13MOL   H32713791   5.573   6.822   0.287  2.8601 -0.1682 -0.6715
   13MOL   H32813792   5.712   6.757   0.366 -0.8319 -1.0278  0.3008
   13MOL   H32913793   5.778   6.992   0.444  1.2490  0.5039 -1.1066
   13MOL   H33013794   5.645   7.054   0.360 -0.7423 -0.7307 -1.0500
   13MOL   H33113795   5.871   6.896   0.230  0.7287 -0.5237 -3.1111
   13MOL   H33213796   5.744   6.979   0.138 -1.7752  1.0595  0.3455
   13MOL   H33313797   5.952   7.129   0.138 -0.7899  0.6733 -0.3567
   13MOL   H33413798   5.963   7.101   0.307  1.5615  0.4770 -0.6811
   13MOL   H33513799   5.746   7.256   0.336  0.4990  1.9777  0.0660
   13MOL   H33613800   5.866   7.333   0.255 -1.9664  1.7380  2.0992
   13MOL   H33713801   5.611   7.258   0.142  0.0900 -1.0160 -0.5806
   13MOL   C33813802   5.762   7.326   0.019  0.6123  0.8188 -0.5929
   13MOL   O33913803   5.884   7.332   7.690 -0.1024  0.6274 -0.3759
   13MOL   C34013804   5.664   7.393   7.609  0.1093  0.6789 -0.3695
   13MOL   C34113805   5.648   7.542   7.637  0.4900  0.2678  0.5781
   13MOL   C34213806   5.559   7.579   0.063  0.2623  0.9124  0.0994
   13MOL   C34313807   5.505   0.030   0.064  0.9071 -0.3444  0.8953
   13MOL   C34413808   5.458   0.086   0.198  0.1456  0.3633  0.5219
   13MOL   C34513809   5.346   0.192   0.181  0.1419 -0.9437 -0.4187
   13MOL   C34613810   5.341   0.279   0.308  0.6302 -0.7943  0.2536
   13MOL   C34713811   5.271   0.407   0.276  0.1109 -0.3186  0.1146
   13MOL   C34813812   5.360   0.509   0.197  1.3155  0.5457 -0.5077
   13MOL   C34913813   5.288   0.637   0.160  0.2787 -1.7166 -0.6436
   13MOL   C35013814   5.330   0.703   0.030 -0.3360 -0.0835 -0.5596
   13MOL   O35113815   5.441   0.681   7.672 -0.1140 -0.2349  0.4195
   13MOL   N35213816   5.236   0.771   7.652 -0.4425 -0.2432 -0.4508
   13MOL   C35313817   5.261   0.832   7.526  0.1848 -0.5210  0.2411
   13MOL   C35413818   5.135   0.917   7.484 -0.1258  0.2702  0.2476
   13MOL   C35513819   5.162   0.994   7.355  0.9471 -0.5122 -0.5232
   13MOL   C35613820   5.034   1.045   7.284  0.9388  0.3117  0.3570
   13MOL   C35713821   4.968   1.158   7.361  0.2998 -0.0266 -0.5356
   13MOL   C35813822   4.831   1.195   7.302  0.0899  0.0074 -0.2849
   13MOL   N35913823   4.769   1.295   7.393  0.2933 -0.1838 -0.7466
   13MOL   H36013824   5.574   7.331   7.608  0.3967  0.2549 -0.2956
   13MOL   H36113825   5.718   7.378   7.515  1.9377  1.8793  0.4764
   13MOL   H36213826   5.739   7.601   7.624 -0.7157  1.9190 -0.6699
   13MOL   H36313827   5.587   7.571   7.551 -0.1906 -3.8253 -0.4084
   13MOL   H36413828   5.605   7.553   0.158  0.1063  2.1539  0.5222
   13MOL   H36513829   5.468   7.520   0.056 -0.0136  1.5410 -2.0090
   13MOL   H36613830   5.571   0.111   0.031 -1.8882  2.8042  2.7674
   13MOL   H36713831   5.430   0.039   7.677  1.2185 -1.1152  0.5020
   13MOL   H36813832   5.421   0.011   0.268  1.0143 -0.1273  0.4644
   13MOL   H36913833   5.538   0.142   0.246 -1.5411  1.8989  1.6043
   13MOL   H37013834   5.364   0.255   0.094 -0.2189 -1.9984 -1.2731
   13MOL   H37113835   5.255   0.135   0.162 -0.7217  0.6643 -1.1912
   13MOL   H37213836   5.299   0.219   0.388  1.0926 -2.9892 -1.0891
   13MOL   H37313837   5.442   0.298   0.344  0.3891  1.6038 -0.2456
   13MOL   H37413838   5.177   0.387   0.225  0.1230  2.3619 -1.0649
   13MOL   H37513839   5.242   0.447   0.373 -1.7774  0.2053 -0.6475
   13MOL   H37613840   5.395   0.449   0.114  0.3179 -0.3096 -0.3307
   13MOL   H37713841   5.447   0.527   0.260  0.7779  0.3434  0.3029
   13MOL   H37813842   5.185   0.604   0.142 -1.0710  0.8340  1.9477
   13MOL   H37913843   5.281   0.700   0.248 -0.5824 -1.7802 -0.6578
   13MOL   H38013844   5.148   0.790   0.004  0.1478 -2.0137  1.5503
   13MOL   H38113845   5.296   0.756   7.458  2.0650 -0.6997  1.3742
   13MOL   H38213846   5.350   0.892   7.543 -1.1794  1.7415 -0.3323
   13MOL   H38313847   5.108   0.984   7.566 -1.8819  1.3348 -1.1396
   13MOL   H38413848   5.055   0.845   7.467  1.6660 -2.0280  1.3827
   13MOL   H38513849   5.237   1.069   7.381  1.1023 -1.0035  0.4731
   13MOL   H38613850   5.205   0.925   7.283  1.1458  0.0202 -0.9256
   13MOL   H38713851   5.046   1.072   7.179 -2.6448 -0.7457 -0.4019
   13MOL   H38813852   4.965   0.961   7.291 -0.9168  1.5846 -1.7481
   13MOL   H38913853   5.026   1.249   7.369 -0.7233  0.5686  0.1371
   13MOL   H39013854   4.961   1.116   7.461  0.8226  0.5275 -0.2696
   13MOL   H39113855   4.845   1.238   7.203  0.8247 -0.9378 -0.5987
   13MOL   H39213856   4.756   1.120   7.280  0.0461  0.2366 -0.9412
   13MOL   H39313857   4.782   1.395   7.384  0.9151 -0.2433 -0.4720
   13MOL   C39413858   4.728   1.281   7.520  0.5647 -0.1054  0.2375
   13MOL   O39513859   4.712   1.165   7.563  0.4897  0.1106 -0.5098
   13MOL   C39613860   4.681   1.404   7.598 -0.1739  0.8700 -0.4892
   13MOL   C39713861   4.764   1.431   0.035 -0.1703  0.0536 -0.2057
   13MOL   C39813862   4.914   1.410   0.023 -0.1022  0.2102  0.7262
   13MOL   C39913863   4.978   1.496   7.609  0.0864 -0.1204  0.1222
   13MOL   C40013864   5.127   1.472   7.615 -0.8377 -0.6192 -0.2421
   13MOL   C40113865   5.200   1.546   7.494  0.5095 -0.0486 -0.1451
   13MOL   C40213866   5.349   1.510   7.488 -0.2347 -0.2735 -0.3527
   13MOL   C40313867   5.366   1.370   7.426 -0.5314  0.1341 -0.1710
   13MOL   C40413868   5.514   1.331   7.414 -0.2631  0.0908 -0.1423
   13MOL   C40513869   5.528   1.197   7.347 -0.4041  0.3118  0.3922
   13MOL   C40613870   5.675   1.157   7.317  0.2117 -0.2108 -0.2698
   13MOL   O40713871   5.733   1.209   7.219 -0.0069  0.5219  0.1273
   13MOL   N40813872   5.734   1.080   7.412  0.0184 -0.1444  0.1116
   13MOL   C40913873   5.866   1.017   7.425 -0.1327 -0.3320 -0.4767
   13MOL   C41013874   5.990   1.106   7.403 -0.7067  0.3783  0.5443
   13MOL   C41113875   6.125   1.033   7.434 -0.1811  0.2855  0.1976
   13MOL   C41213876   6.247   1.124   7.417  0.5365  0.9598  0.3770
   13MOL   C41313877   6.283   1.170   7.278 -0.4391 -0.4727 -0.3545
   13MOL   C41413878   6.414   1.260   7.278  1.2031  0.2015  0.6490
   13MOL   N41513879   6.427   1.321   7.147 -0.2400  0.4730 -0.2552
   13MOL   H41613880   4.575   1.385   7.619 -0.1681 -0.2511 -1.4077
   13MOL   H41713881   4.684   1.495   7.539 -2.3517  0.3636 -1.4437
   13MOL   H41813882   4.711   1.379   0.115  0.4838  0.7554  0.6957
   13MOL   H41913883   4.747   1.534   0.065  0.5608 -0.2129  1.1804
   13MOL   H42013884   4.923   1.304   7.690 -2.3502 -0.1380  1.3315
   13MOL   H42113885   4.961   1.430   0.119  0.7030  3.0429 -0.2089
   13MOL   H42213886   4.958   1.601   7.631  0.8219 -0.1340  0.8738
   13MOL   H42313887   4.937   1.483   7.509  2.5866  1.4427 -1.1462
   13MOL   H42413888   5.165   1.510   0.018 -1.3440 -0.6864 -0.0069
   13MOL   H42513889   5.132   1.363   7.613 -2.3561 -0.7198  0.3759
   13MOL   H42613890   5.153   1.530   7.397  3.0529 -2.4800 -1.0357
   13MOL   H42713891   5.192   1.654   7.509 -0.6981  0.0121 -1.0939
   13MOL   H42813892   5.400   1.576   7.419 -1.0721 -1.0334 -1.7327
   13MOL   H42913893   5.380   1.515   7.592 -2.5929  0.2941  0.3681
   13MOL   H43013894   5.321   1.298   7.494 -0.2801 -1.1912 -1.3935
   13MOL   H43113895   5.316   1.361   7.329  0.5482 -2.0012 -0.5546
   13MOL   H43213896   5.562   1.331   7.511  0.9700  0.4136 -0.7450
   13MOL   H43313897   5.552   1.417   7.358  0.4168  0.3922  0.7838
   13MOL   H43413898   5.467   1.127   7.404  1.5529 -0.7621  1.2190
   13MOL   H43513899   5.484   1.204   7.247 -0.5222 -0.3689  0.3921
   13MOL   H43613900   5.667   1.058   7.484 -1.2866 -1.5695 -1.5267
   13MOL   H43713901   5.883   0.930   7.361  1.7894  0.2016 -0.7341
   13MOL   H43813902   5.875   0.978   7.526 -0.1599 -0.0191 -0.3543
   13MOL   H43913903   5.969   1.190   7.469 -2.0447  1.1160 -0.7930
   13MOL   H44013904   5.989   1.155   7.306  1.1814  1.6914  1.1585
   13MOL   H44113905   6.109   0.991   7.533 -1.5623  0.2449 -0.0219
   13MOL   H44213906   6.131   0.948   7.367 -0.3297  0.3362  0.1179
   13MOL   H44313907   6.250   1.215   7.478  0.2487  0.2403  1.4714
   13MOL   H44413908   6.336   1.068   7.445 -0.4945  0.3876  2.5507
   13MOL   H44513909   6.301   1.084   7.214  2.3884 -0.2090  0.0053
   13MOL   H44613910   6.192   1.222   7.248  0.4171  2.3350  1.6918
   13MOL   H44713911   6.416   1.341   7.351  0.1670  0.7919  0.0294
   13MOL   H44813912   6.500   1.195   7.297  1.6326  1.1281  1.9564
   13MOL   H44913913   6.393   1.267   7.068  0.1834  2.2248 -1.6759
   13MOL   C45013914   6.493   1.430   7.119  0.0290  0.3100  0.6555
   13MOL   O45113915   6.546   1.499   7.205  0.2114  0.8451 -0.0996
   13MOL   C45213916   6.495   1.469   6.970  0.5776 -0.7624  0.0792
   13MOL   C45313917   6.622   1.539   6.930  0.7633  0.3417  1.3341
   13MOL   C45413918   6.601   1.631   6.807 -0.0988  0.5125  0.5623
   13MOL   C45513919   6.585   1.559   6.672 -0.1352  0.2240 -0.2285
   13MOL   C45613920   6.705   1.460   6.634 -0.0520  0.5377 -0.2252
   13MOL   C45713921   6.837   1.536   6.605  0.1550 -0.2990 -0.0369
   13MOL   C45813922   6.952   1.442   6.557  0.5124  0.0465 -0.6331
   13MOL   C45913923   7.089   1.507   6.537  0.2668  0.9995 -0.8202
   13MOL   C46013924   7.208   1.442   6.617  0.4396  0.1049 -0.3445
   13MOL   C46113925   7.270   1.318   6.564  0.3602  0.3596 -0.1281
   13MOL   C46213926   7.378   1.272   6.665 -0.4594  0.0003  0.1133
   13MOL   O46313927   7.461   1.351   6.711 -0.3372  0.3817  0.1108
   13MOL   N46413928   7.381   1.139   6.686  0.0365  0.3579  0.2892
   13MOL   C46513929   7.476   1.067   6.767 -0.1555  0.5690  0.1630
   13MOL   C46613930   7.601   1.012   6.700  0.3867 -0.1745  0.9308
   13MOL   C46713931   7.683   0.910   6.778  0.5348 -0.9400 -0.1999
   13MOL   C46813932   0.100   0.982   6.859 -0.0413  0.1922  0.8065
   13MOL   C46913933   0.168   0.890   6.962 -0.3327  0.4149  0.0055
   13MOL   C47013934   0.308   0.944   7.000 -0.0838 -0.0938 -0.3550
   13MOL   N47113935   0.409   0.904   6.905  0.5467 -0.2356  0.9523
   13MOL   H47213936   6.475   1.386   6.903 -2.0333 -0.3277  0.2434
   13MOL   H47313937   6.412   1.538   6.951 -1.7476 -3.5593 -0.3114
   13MOL   H47413938   6.697   1.464   6.903 -1.2215 -0.9150 -0.8952
   13MOL   H47513939   6.660   1.603   7.010  1.8716  1.6269 -0.1889
   13MOL   H47613940   6.687   1.698   6.800  0.5573 -0.3721  0.2231
   13MOL   H47713941   6.519   1.703   6.817 -1.5145 -1.0150  0.2372
   13MOL   H47813942   6.575   1.619   6.582  0.3494  0.5828 -0.0496
   13MOL   H47913943   6.502   1.489   6.678  0.3100 -0.2588  0.5047
   13MOL   H48013944   6.674   1.408   6.543  0.3400  0.7835 -0.4952
   13MOL   H48113945   6.714   1.378   6.706  0.1095  0.4884 -0.3012
   13MOL   H48213946   6.863   1.600   6.690  1.5278  0.7722 -1.2362
   13MOL   H48313947   6.814   1.606   6.525  0.8034 -0.0771 -0.0328
   13MOL   H48413948   6.951   1.360   6.628  0.8300  0.3380 -0.2885
   13MOL   H48513949   6.923   1.393   6.465  3.3209  1.0772 -2.1411
   13MOL   H48613950   7.111   1.509   6.430 -1.3845 -0.0037 -1.2000
   13MOL   H48713951   7.076   1.612   6.566 -0.8384  0.8142 -0.5919
   13MOL   H48813952   7.175   1.446   6.721  0.8288  0.7523 -0.2421
   13MOL   H48913953   7.285   1.519   6.621 -1.3212  1.9724 -1.4375
   13MOL   H49013954   7.185   1.251   6.547 -0.0451  1.1390 -1.2787
   13MOL   H49113955   7.310   1.343   6.466  2.3354  0.3171  0.6447
   13MOL   H49213956   7.305   1.080   6.655  0.4902 -0.5731  0.9138
   13MOL   H49313957   7.424   0.978   6.803  1.2703 -0.7125 -0.8784
   13MOL   H49413958   7.509   1.119   6.857  1.2515 -0.3738  0.2022
   13MOL   H49513959   7.552   0.962   6.617 -0.9677  2.6241  0.0043
   13MOL   H49613960   7.666   1.090   6.660 -1.0964  0.4196 -0.3591
   13MOL   H49713961   0.041   0.833   6.718  2.5592  0.4305 -0.3549
   13MOL   H49813962   7.618   0.859   6.848 -2.0989  1.3824 -0.8692
   13MOL   H49913963   0.064   1.073   6.906  0.8759  1.9340 -1.7483
   13MOL   H50013964   0.173   1.009   6.782  1.1892 -3.4537  0.6145
   13MOL   H50113965   0.111   0.871   7.053 -0.9162  0.1945 -0.4001
   13MOL   H50213966   0.191   0.796   6.911 -0.1350 -1.2783  3.0992
   13MOL   H50313967   0.310   1.052   7.015 -0.7316 -0.1690  0.3593
   13MOL   H50413968   0.324   0.904   7.101 -2.4733 -1.5740 -0.5096
   13MOL   H50513969   0.377   0.827   6.848 -0.6951  0.9688 -0.0455
   13MOL   C50613970   0.537   0.937   6.899 -0.1405  0.0834 -0.2680
   13MOL   O50713971   0.592   1.006   6.989  0.0731 -0.0294  0.2618
   13MOL   C50813972   0.615   0.884   6.782  0.8036 -0.0647 -0.5363
   13MOL   C50913973   0.702   0.766   6.817 -0.4117  0.1238 -0.2179
   13MOL   C51013974   0.637   0.627   6.818  0.1017  0.1089 -0.1750
   13MOL   C51113975   0.726   0.512   6.880 -0.3136 -0.4798 -0.2052
   13MOL   C51213976   0.672   0.370   6.895  0.5534  0.1951 -0.2656
   13MOL   C51313977   0.774   0.254   6.890  1.0982 -0.5370 -0.2183
   13MOL   C51413978   0.888   0.275   6.990 -0.2624 -0.7053 -0.4112
   13MOL   C51513979   0.836   0.288   7.136 -0.8868  0.6477 -0.0884
   13MOL   C51613980   0.953   0.292   7.231 -0.4649  0.5074 -0.6647
   13MOL   C51713981   0.909   0.295   7.380 -0.9277  0.2657  0.0047
   13MOL   C51813982   0.808   0.407   7.416 -0.0959 -0.1590  0.4203
   13MOL   O51913983   0.836   0.522   7.422  0.2573  0.7184  0.2223
   13MOL   N52013984   0.681   0.372   7.430  0.0117  0.1906 -0.3598
   13MOL   C52113985   0.565   0.462   7.437 -0.5798  0.0619 -0.2020
   13MOL   C52213986   0.509   0.502   7.303  0.2910  0.1700  0.7586
   13MOL   C52313987   0.409   0.615   7.324 -0.2627 -0.2810  0.3029
   13MOL   C52413988   0.325   0.632   7.195  0.3953  0.0487  0.3090
   13MOL   C52513989   0.245   0.511   7.143 -0.5880  0.6350 -0.5979
   13MOL   C52613990   0.141   0.526   7.026  0.1279  0.5286  0.0306
   13MOL   N52713991   0.056   0.404   7.024  0.7135 -0.6968 -0.0277
   13MOL   H52813992   0.676   0.968   6.750  0.1866  0.2353 -0.9211
   13MOL   H52913993   0.555   0.851   6.697 -0.4622 -0.1620  0.3863
   13MOL   H53013994   0.752   0.788   6.912 -1.2323  1.1966 -0.0223
   13MOL   H53113995   0.787   0.765   6.748  0.8126  1.4303  1.2219
   13MOL   H53213996   0.614   0.596   6.716  1.5849 -2.1703  0.1516
   13MOL   H53313997   0.541   0.643   6.866 -1.4327  0.3216 -3.1747
   13MOL   H53413998   0.813   0.502   6.814 -0.1795 -0.7816  0.0130
   13MOL   H53513999   0.772   0.548   6.972  0.9599 -2.3533 -0.0758
   13MOL   H53614000   0.606   0.373   6.981  0.7034  0.3544 -0.1547
   13MOL   H53714001   0.602   0.345   6.816  0.1134  0.4565  0.0452
   13MOL   H53814002   0.724   0.157   6.897 -2.3275  1.0766 -1.2881
   13MOL   H53914003   0.828   0.242   6.796 -0.4678  1.3651 -1.3889
   13MOL   H54014004   0.958   0.192   6.977  0.0991 -0.4969  0.2015
   13MOL   H54114005   0.948   0.359   6.955 -0.3279 -1.1469 -1.6109
   13MOL   H54214006   0.764   0.370   7.142 -1.6445  0.1893 -2.2979
   13MOL   H54314007   0.780   0.197   7.157 -0.4656  0.4593  0.2090
   13MOL   H54414008   1.019   0.378   7.214 -0.7617  0.3011 -3.1343
   13MOL   H54514009   1.013   0.202   7.216  1.3615  1.2157  2.0002
   13MOL   H54614010   0.855   0.201   7.398 -2.4059  1.3135  1.2770
   13MOL   H54714011   0.996   0.318   7.441 -0.9087  1.6801 -0.5399
   13MOL   H54814012   0.661   0.274   7.417  1.0574  0.1445 -1.6292
   13MOL   H54914013   0.596   0.547   7.497  0.2216 -0.8071  0.6486
   13MOL   H55014014   0.492   0.409   7.500  1.6011 -2.3278  0.4196
   13MOL   H55114015   0.472   0.416   7.247  0.2693  2.5718 -3.0844
   13MOL   H55214016   0.598   0.533   7.248  2.6572 -1.3201  3.5877
   13MOL   H55314017   0.449   0.712   7.354  0.0979 -0.0001 -1.0748
   13MOL   H55414018   0.351   0.585   7.411  0.0886  0.1593  0.6903
   13MOL   H55514019   0.395   0.675   7.123 -0.0329 -0.4892 -0.4349
   13MOL   H55614020   0.255   0.715   7.201  2.7960  2.2503 -0.9391
   13MOL   H55714021   0.314   0.445   7.090  0.7752  1.2614  0.3568
   13MOL   H55814022   0.207   0.452   7.226  0.6860 -0.7031 -0.9646
   13MOL   H55914023   0.084   0.619   7.018 -1.6406 -0.4396  1.1981
   13MOL   H56014024   0.204   0.528   6.936  0.4629  0.1155  0.2559
   13MOL   H56114025   0.094   0.313   7.044  0.4552 -0.4929  1.4411
   13MOL   C56214026   7.619   0.413   7.008 -0.6133 -0.2009  0.3913
   13MOL   O56314027   7.565   0.520   7.001  0.9529 -0.6659  0.0763
   13MOL   C56414028   7.533   0.281   7.004 -0.7013 -0.6402  0.1885
   13MOL   C56514029   7.450   0.251   7.126 -1.2698 -0.2959  0.8395
   13MOL   C56614030   7.324   0.340   7.145 -0.8600 -0.1516 -0.4082
   13MOL   C56714031   7.236   0.286   7.264  0.6042 -0.0133 -0.3101
   13MOL   C56814032   7.116   0.390   7.286 -0.3464 -0.2333  0.1340
   13MOL   C56914033   7.018   0.339   7.390 -0.4254  0.7753  0.1376
   13MOL   C57014034   6.898   0.435   7.417 -0.4851  0.4679  0.1451
   13MOL   C57114035   6.754   0.357   7.445 -0.4773 -0.3096 -0.2221
   13MOL   C57214036   6.779   0.263   7.562  0.0959  0.3917 -0.4610
   13MOL   C57314037   6.664   0.206   7.652  0.2861 -0.4936  0.3631
   13MOL   C57414038   6.593   0.102   7.573  0.1164 -0.2912  0.1487
   13MOL   O57514039   6.647   7.681   7.561 -0.6751 -0.2128 -0.1642
   13MOL   N57614040   6.471   0.121   7.522  0.0630  0.8710  0.3271
   13MOL   C57714041   6.392   0.023   7.450  0.0349  0.4733 -0.0173
   13MOL   C57814042   6.311   0.100   7.341 -0.7256 -0.0170 -0.4227
   13MOL   C57914043   6.402   0.184   7.251 -0.1494  0.3182 -0.4559
   13MOL   C58014044   6.336   0.227   7.116 -0.2318  0.3823 -0.3777
   13MOL   C58114045   6.423   0.318   7.023  0.5415  0.2818  0.3110
   13MOL   C58214046   6.350   0.350   6.894 -0.8092  0.4559  0.3192
   13MOL   N58314047   6.407   0.471   6.835 -0.6936  0.0957  0.2850
   13MOL   H58414048   7.468   0.293   6.917  2.5625 -1.2563 -2.4324
   13MOL   H58514049   7.594   0.195   6.974 -0.3398  0.0341 -1.0243
   13MOL   H58614050   7.411   0.152   7.104  1.0957 -1.5716  2.2086
   13MOL   H58714051   7.517   0.250   7.212  1.9805 -1.8819 -1.5709
   13MOL   H58814052   7.267   0.362   7.055 -2.8130 -1.0798  0.5543
   13MOL   H58914053   7.362   0.436   7.179 -0.2052 -0.5221 -0.0947
   13MOL   H59014054   7.188   0.191   7.242  1.2422 -0.0743 -1.4746
   13MOL   H59114055   7.294   0.282   7.356  2.3751 -2.8088 -1.4745
   13MOL   H59214056   7.149   0.491   7.308 -0.1651 -0.3526  0.4107
   13MOL   H59314057   7.074   0.409   7.187  2.7231 -0.0462 -1.1722
   13MOL   H59414058   6.989   0.237   7.363  0.4286  0.0704  1.8194
   13MOL   H59514059   7.057   0.316   7.489  1.4697  2.5716 -0.1624
   13MOL   H59614060   6.925   0.498   7.502 -1.4533 -0.8223  1.4300
   13MOL   H59714061   6.899   0.507   7.336  2.0205  0.2917 -0.0322
   13MOL   H59814062   6.707   0.296   7.368  0.2765 -2.3662  0.9033
   13MOL   H59914063   6.687   0.437   7.476  0.6518  0.0619  1.3513
   13MOL   H60014064   6.851   0.326   7.615  0.2442  0.5214 -0.8122
   13MOL   H60114065   6.830   0.180   7.514  0.0356  1.7265 -2.9406
   13MOL   H60214066   6.720   0.146   0.032 -1.5982  0.0577  2.3525
   13MOL   H60314067   6.590   0.276   7.690  1.1895  1.1483 -0.8324
   13MOL   H60414068   6.420   0.208   7.528 -4.2593 -1.3006 -2.0676
   13MOL   H60514069   6.331   7.656   7.520  1.2414  1.0465  1.5580
   13MOL   H60614070   6.465   7.648   7.405 -0.0528  1.1802 -1.2171
   13MOL   H60714071   6.235   0.158   7.393 -0.3460  1.2991 -1.3138
   13MOL   H60814072   6.269   0.027   7.273 -1.8035  0.1780  0.0217
   13MOL   H60914073   6.497   0.137   7.224 -0.4757 -1.4624  1.4134
   13MOL   H61014074   6.442   0.268   7.307  2.1006 -0.7018 -0.4669
   13MOL   H61114075   6.330   0.132   7.062  0.0337 -0.1644  0.5337
   13MOL   H61214076   6.237   0.271   7.127  0.0987  1.1527 -0.4707
   13MOL   H61314077   6.517   0.273   6.991 -0.7470 -1.4937 -1.1309
   13MOL   H61414078   6.447   0.411   7.074  0.0316  0.5526  0.0640
   13MOL   H61514079   6.388   0.279   6.821 -0.8502  1.9714 -1.2059
   13MOL   H61614080   6.242   0.342   6.905 -0.9330 -0.7318 -1.5753
   13MOL   H61714081   6.485   0.507   6.889  0.7121 -0.4199 -1.3594
   13MOL   C61814082   6.372   0.534   6.725  0.3328  0.0752  0.7088
   13MOL   O61914083   6.271   0.506   6.665  0.1043  0.3179 -0.0043
   13MOL   C62014084   6.458   0.654   6.683 -0.7525  0.2886  0.2441
   13MOL   C62114085   6.522   0.647   6.543 -0.7574 -0.1163  0.0894
   13MOL   C62214086   6.651   0.564   6.543  0.4180 -0.5293  0.4449
   13MOL   C62314087   6.748   0.601   6.426  0.5780 -0.6521  0.3227
   13MOL   C62414088   6.870   0.517   6.437 -0.0286 -1.0650 -0.2906
   13MOL   C62514089   6.939   0.513   6.297 -0.5218  0.3269  0.4280
   13MOL   C62614090   7.093   0.489   6.302 -0.3093  0.4805 -0.4160
   13MOL   C62714091   7.158   0.523   6.158  0.1828  0.2121  0.3941
   13MOL   C62814092   7.105   0.451   6.024  0.5725  0.4248  0.3541
   13MOL   C62914093   7.120   0.301   6.008  0.1444 -0.0046 -0.1389
   13MOL   C63014094   7.078   0.256   5.862 -0.1724  0.0006 -0.3736
   13MOL   O63114095   7.161   0.271   5.775 -0.1043 -0.2160  0.3051
   13MOL   N63214096   6.961   0.198   5.839 -0.0829 -0.4538 -0.5442
   13MOL   C63314097   6.909   0.180   5.706  0.0668 -0.4259  0.1407
   13MOL   C63414098   6.955   0.049   5.633  0.7287  0.2808 -0.1477
   13MOL   C63514099   6.938   0.064   5.485  0.3502 -0.9361 -0.4859
   13MOL   C63614100   6.999   7.629   5.416  0.5953  0.0616  0.2961
   13MOL   C63714101   6.993   7.644   5.257  0.2127 -0.0465  0.3607
   13MOL   C63814102   7.029   7.519   5.178 -0.6153 -0.0326 -0.2811
   13MOL   N63914103   6.988   7.538   5.040 -0.1905 -0.0682  0.0656
   13MOL   H64014104   6.530   0.669   6.763 -0.5817 -0.1641  0.1781
   13MOL   H64114105   6.395   0.742   6.692 -0.9203  0.3380 -1.2241
   13MOL   H64214106   6.536   0.750   6.512 -0.0613 -0.5011 -0.8831
   13MOL   H64314107   6.445   0.616   6.473 -1.6973 -0.5250  1.2880
   13MOL   H64414108   6.631   0.456   6.539  0.1862 -0.4312 -1.0617
   13MOL   H64514109   6.707   0.579   6.636  1.4523  1.3836 -0.4692
   13MOL   H64614110   6.699   0.578   6.332 -1.3980  1.5835  0.7673
   13MOL   H64714111   6.761   0.709   6.413 -0.3141 -0.7683 -1.6185
   13MOL   H64814112   6.931   0.565   6.513 -0.4825  0.8994 -1.1503
   13MOL   H64914113   6.854   0.411   6.458  1.6933 -0.7374  3.0881
   13MOL   H65014114   6.923   0.611   6.252  0.2941 -0.6736 -2.1331
   13MOL   H65114115   6.896   0.434   6.237 -1.1337  1.9346 -1.3158
   13MOL   H65214116   7.139   0.548   6.381 -2.2365  1.5418 -0.0642
   13MOL   H65314117   7.101   0.382   6.322  1.3087  0.2753 -2.0242
   13MOL   H65414118   7.153   0.632   6.150 -2.3120  0.1610  0.9358
   13MOL   H65514119   7.263   0.497   6.171 -0.2687 -2.0445 -0.2965
   13MOL   H65614120   7.176   0.490   5.951 -0.5031 -0.9411 -1.4772
   13MOL   H65714121   7.006   0.479   5.987  0.4823 -1.2704 -0.7844
   13MOL   H65814122   7.224   0.274   6.026  0.1901 -0.7792 -1.4943
   13MOL   H65914123   7.062   0.257   6.090  0.9159  1.2963  1.1328
   13MOL   H66014124   6.894   0.196   5.914  0.5665 -0.6446  0.0334
   13MOL   H66114125   6.802   0.197   5.693  0.1761  0.4362  0.3406
   13MOL   H66214126   6.945   0.267   5.650 -1.3491 -0.2182 -0.4731
   13MOL   H66314127   6.899   7.650   5.659  0.0318  0.4119 -1.1471
   13MOL   H66414128   7.054   0.011   5.657 -0.0672 -0.9185  1.3253
   13MOL   H66514129   6.832   0.068   5.457 -0.3756 -1.1297  2.1275
   13MOL   H66614130   6.991   0.157   5.464  1.2506 -1.4386 -0.4305
   13MOL   H66714131   6.966   7.532   5.452 -0.4220 -0.0285 -0.8435
   13MOL   H66814132   7.106   7.623   5.437  0.2363  0.8217  2.5053
   13MOL   H66914133   6.885   7.650   5.239  0.4908  0.0652 -1.3276
   13MOL   H67014134   7.062   0.028   5.221  1.6415 -1.6777 -0.3656
   13MOL   H67114135   7.137   7.503   5.181 -0.3457  1.4380 -1.5602
   13MOL   H67214136   6.995   7.425   5.221  2.1251 -0.9951 -0.1127
   13MOL   H67314137   6.957   7.629   5.011 -0.3174 -0.4560 -1.0134
   13MOL   C67414138   6.995   7.446   4.947 -0.1613  0.5379 -0.1100
   13MOL   O67514139   7.044   7.339   4.967  0.3581  0.8896  0.3004
   13MOL   C67614140   6.933   7.490   4.810 -0.3344  0.8161 -0.2938
   13MOL   C67714141   7.037   7.525   4.706 -0.4908  0.1499  0.0254
   13MOL   C67814142   6.995   7.513   4.566  0.4805 -0.4846 -0.6466
   13MOL   C67914143   6.881   7.614   4.534 -0.0633 -0.1244  0.5774
   13MOL   C68014144   6.812   7.582   4.399  0.3155 -0.3064  0.5822
   13MOL   C68114145   6.697   7.488   4.395 -1.2204  0.4610 -1.0612
   13MOL   C68214146   6.649   7.442   4.259  0.6256  0.2750 -0.9940
   13MOL   C68314147   6.558   7.320   4.267 -0.4660 -0.5131  0.0486
   13MOL   C68414148   6.500   7.295   4.124  0.2990 -0.0452 -0.1036
   13MOL   C68514149   6.414   7.161   4.121  0.0079 -0.0500  0.0293
   13MOL   C68614150   6.281   7.177   4.192 -0.5962  1.0552 -0.3011
   13MOL   O68714151   6.202   7.261   4.161  0.3343 -0.3532  0.4899
   13MOL   N68814152   6.258   7.096   4.298 -0.2235  0.2365  0.0186
   13MOL   C68914153   6.128   7.096   4.376 -0.3017 -0.7214 -0.0346
   13MOL   C69014154   6.023   7.000   4.312  0.1685 -0.0127 -0.0005
   13MOL   C69114155   5.934   6.931   4.410  0.8069 -0.3703 -0.3757
   13MOL   C69214156   5.828   6.834   4.342 -0.5696 -0.1529 -0.4388
   13MOL   C69314157   5.719   6.774   4.436 -0.0037 -0.1783  0.2943
   13MOL   C69414158   5.609   6.881   4.473  0.1218 -1.1872 -0.1852
   13MOL   N69514159   5.495   6.825   4.540 -0.0518  0.8478 -0.9008
   13MOL   H69614160   6.867   7.573   4.833 -0.6830  1.1191 -2.2866
   13MOL   H69714161   6.870   7.411   4.769  1.6669 -0.3037 -1.3298
   13MOL   H69814162   7.122   7.459   4.723 -0.1339  0.7186  0.4457
   13MOL   H69914163   7.089   7.619   4.718 -0.5569  0.1996 -0.0777
   13MOL   H70014164   7.074   7.511   4.492 -0.6045  2.6097 -2.0046
   13MOL   H70114165   6.947   7.417   4.545  0.7070 -0.7811  0.1497
   13MOL   H70214166   6.931   0.019   4.541 -0.5246  0.2643 -1.4162
   13MOL   H70314167   6.801   7.612   4.608 -1.0737  2.0396 -0.4252
   13MOL   H70414168   6.889   7.545   4.331 -0.4449 -0.2725 -0.3098
   13MOL   H70514169   6.777   7.673   4.349  1.0302 -0.4389 -0.1767
   13MOL   H70614170   6.709   7.403   4.462  0.2772  1.6773  0.2557
   13MOL   H70714171   6.604   7.538   4.421 -0.7522  0.5484  0.5205
   13MOL   H70814172   6.613   7.536   4.218  2.0687  1.7016  0.8474
   13MOL   H70914173   6.732   7.423   4.191  0.6862  0.0644 -0.8602
   13MOL   H71014174   6.613   7.234   4.303  0.9813  0.2313 -0.3612
   13MOL   H71114175   6.479   7.332   4.342 -1.0399 -0.3043 -0.5879
   13MOL   H71214176   6.580   7.297   4.050  0.1053  0.4650 -0.2967
   13MOL   H71314177   6.432   7.373   4.092  0.0193 -1.5134 -3.3082
   13MOL   H71414178   6.380   7.151   4.017  1.3878  0.8968 -0.5288
   13MOL   H71514179   6.467   7.072   4.154 -0.3421 -1.3971 -2.8129
   13MOL   H71614180   6.323   7.019   4.305 -0.7385 -0.3312 -1.3361
   13MOL   H71714181   6.136   7.080   4.483 -2.5762 -0.6488  0.1888
   13MOL   H71814182   6.081   7.195   4.375 -1.3071 -1.1919  0.3586
   13MOL   H71914183   6.072   6.913   4.267  1.3808  0.0674  1.1112
   13MOL   H72014184   5.979   7.054   4.228 -2.6130 -1.5262  0.4437
   13MOL   H72114185   5.985   6.879   4.491  0.2065 -0.1650  0.1422
   13MOL   H72214186   5.879   7.012   4.459 -0.9242 -0.5305 -1.9753
   13MOL   H72314187   5.892   6.755   4.303 -1.2290 -0.7065 -0.3935
   13MOL   H72414188   5.780   6.888   4.260 -0.8147 -0.4543 -0.4895
   13MOL   H72514189   5.777   6.749   4.524  2.4817 -0.6261 -1.4297
   13MOL   H72614190   5.669   6.694   4.381  0.9086 -1.5780  1.4649
   13MOL   H72714191   5.661   6.960   4.526 -0.6019 -1.7711  1.4364
   13MOL   H72814192   5.565   6.938   4.392  2.0455 -0.1723 -0.5337
   13MOL   H72914193   5.485   6.725   4.529  1.1912  0.5550  0.4712
   13MOL   C73014194   5.400   6.887   4.611 -0.6493 -0.2485  0.3150
   13MOL   O73114195   5.394   7.012   4.619  0.5562 -0.0839  0.2766
   13MOL   C73214196   5.291   6.795   4.665  0.1981  0.0115  0.2781
   13MOL   C73314197   5.228   6.836   4.790 -0.7924 -0.2732 -0.1521
   13MOL   C73414198   5.138   6.735   4.852  0.3943  0.4233  0.0198
   13MOL   C73514199   5.003   6.699   4.787 -0.7489 -0.1757 -0.1513
   13MOL   C73614200   5.010   6.584   4.685 -0.0670  0.0173  0.3137
   13MOL   C73714201   4.877   6.538   4.624  0.3373 -0.1933 -0.2397
   13MOL   C73814202   4.814   6.627   4.507 -0.1224 -0.1854  0.1365
   13MOL   C73914203   4.885   6.621   4.372 -0.4071  0.0596  0.1658
   13MOL   C74014204   4.866   6.484   4.299  0.1442  0.2935 -0.5951
   13MOL   C74114205   4.947   6.473   4.170 -0.3889 -0.0506 -0.7397
   13MOL   C74214206   5.090   6.413   4.198  0.1348 -0.2661  0.9455
   13MOL   O74314207   5.116   6.352   4.301  0.5224  0.1404 -0.1681
   13MOL   N74414208   5.177   6.429   4.097  0.0744  0.3815  0.1034
   13MOL   C74514209   5.314   6.384   4.093 -1.1658 -0.4011  0.8963
   13MOL   C74614210   5.397   6.474   4.001  0.4350 -0.2795  0.2321
   13MOL   C74714211   5.549   6.429   4.006 -0.0519 -0.2014 -0.4578
   13MOL   C74814212   5.616   6.461   4.138 -0.4522 -0.3074  0.4546
   13MOL   C74914213   5.756   6.389   4.143  0.3572  0.2119  0.1097
   13MOL   C75014214   5.835   6.425   4.273  0.2935  0.2843 -0.3224
   13MOL   N75114215   5.972   6.390   4.274 -0.5543  0.3557  0.0097
   13MOL   H75214216   5.329   6.694   4.683 -0.9072 -0.4529  0.0102
   13MOL   H75314217   5.208   6.789   4.596  2.6455 -1.7584 -2.6380
   13MOL   H75414218   5.187   6.937   4.792  1.7431  0.8446 -1.3758
   13MOL   H75514219   5.311   6.848   4.860 -1.6172  1.6768  0.5311
   13MOL   H75614220   5.129   6.758   4.958 -2.8168  0.6874 -0.2437
   13MOL   H75714221   5.192   6.641   4.861 -0.5784 -0.2304 -0.8157
   13MOL   H75814222   4.972   6.791   4.738  0.0440 -0.3146 -0.9301
   13MOL   H75914223   4.923   6.672   4.856 -3.4456  0.1875 -3.0485
   13MOL   H76014224   5.060   6.500   4.734 -0.8921 -1.8884 -2.0131
   13MOL   H76114225   5.085   6.603   4.609 -3.1955  1.4085 -2.5499
   13MOL   H76214226   4.894   6.439   4.581  0.8702 -0.4633  0.5818
   13MOL   H76314227   4.800   6.535   4.702  1.3822  0.2465  0.8311
   13MOL   H76414228   4.711   6.592   4.508  0.2317 -1.2409  1.2704
   13MOL   H76514229   4.787   6.732   4.518  0.8083  0.2351 -1.3898
   13MOL   H76614230   4.840   6.688   4.299  2.7842  0.6352 -1.3881
   13MOL   H76714231   4.991   6.648   4.374 -0.3657 -0.2265  2.8768
   13MOL   H76814232   4.763   6.467   4.267  0.1388  0.4328 -0.6492
   13MOL   H76914233   4.881   6.402   4.370  0.1207  0.4621 -0.3938
   13MOL   H77014234   4.912   6.382   4.120  0.3517 -0.5136 -0.4273
   13MOL   H77114235   4.948   6.564   4.111 -0.6464  2.4407  2.9161
   13MOL   H77214236   5.147   6.472   4.011  1.8299 -0.9029 -1.1603
   13MOL   H77314237   5.302   6.282   4.057  1.1056 -0.7527  1.0552
   13MOL   H77414238   5.350   6.385   4.195 -0.7899  1.1740  0.7604
   13MOL   H77514239   5.391   6.578   4.032  0.5123  0.1495 -1.1230
   13MOL   H77614240   5.362   6.467   3.898 -1.9477 -1.3683  1.0894
   13MOL   H77714241   5.602   6.470   3.920  0.6276 -2.3434 -1.0785
   13MOL   H77814242   5.551   6.323   3.982  1.5455 -0.4030  0.5223
   13MOL   H77914243   5.612   6.570   4.133 -1.3600 -0.2858  1.4372
   13MOL   H78014244   5.547   6.423   4.213  0.9390 -2.2949  0.7798
   13MOL   H78114245   5.811   6.413   4.052  2.1364  1.3820  1.4535
   13MOL   H78214246   5.738   6.282   4.139 -0.7968  0.2848  2.4331
   13MOL   H78314247   5.821   6.530   4.299 -1.4724 -0.4765  1.9839
   13MOL   H78414248   5.793   6.368   4.355  1.4813 -3.3874 -2.1687
   13MOL   H78514249   5.992   6.297   4.240 -0.0989 -0.4194  2.2414
   13MOL   C78614250   6.070   6.443   4.352 -0.1015 -0.0286  0.2384
   13MOL   O78714251   6.057   6.548   4.417 -0.4048  0.2848 -0.2667
   13MOL   C78814252   6.197   6.363   4.359  0.3905 -0.3236  0.1586
   13MOL   C78914253   6.254   6.362   4.501 -0.5072  0.4973  0.1621
   13MOL   C79014254   6.169   6.299   4.614  0.4325 -0.4521 -0.1188
   13MOL   C79114255   6.236   6.290   4.750 -0.2756  0.3984  0.8221
   13MOL   C79214256   6.142   6.285   4.872 -0.0072 -0.1583  0.6934
   13MOL   C79314257   6.214   6.281   5.003  0.2653 -0.0300  0.2780
   13MOL   C79414258   6.110   6.271   5.118 -0.4482 -0.7435  0.0461
   13MOL   C79514259   6.041   6.407   5.153 -0.3601  0.1107 -0.1206
   13MOL   C79614260   6.142   6.510   5.194  0.1209 -0.1821  0.3516
   13MOL   C79714261   6.074   6.645   5.248 -0.7642  0.1910 -0.0896
   13MOL   C79814262   6.169   6.764   5.238 -0.1769  0.1339  0.0131
   13MOL   O79914263   6.195   6.811   5.129 -0.5930 -0.2671 -0.6399
   13MOL   N80014264   6.215   6.816   5.353  0.0830  0.2559 -0.8777
   13MOL   C80114265   6.312   6.923   5.359 -0.0254 -0.0764 -0.0238
   13MOL   C80214266   6.324   6.980   5.498  0.0676  0.0337  0.6592
   13MOL   C80314267   6.438   7.079   5.506  0.0756 -0.6447 -0.6581
   13MOL   C80414268   6.450   7.136   5.652  0.0218  0.4353 -0.2690
   13MOL   C80514269   6.495   7.038   5.766  0.2077  0.0926  0.2616
   13MOL   C80614270   6.491   7.105   5.903 -0.0550  0.1157 -0.4286
   13MOL   N80714271   6.548   7.020   6.004 -0.6548 -0.1274 -0.0874
   13MOL   H80814272   6.274   6.397   4.289  0.1980  1.4470  0.7902
   13MOL   H80914273   6.183   6.257   4.338  0.3417 -0.0202 -1.4550
   13MOL   H81014274   6.351   6.312   4.505 -1.1165 -0.5096  2.7397
   13MOL   H81114275   6.282   6.464   4.527 -0.4069 -0.0890  2.3940
   13MOL   H81214276   6.130   6.201   4.587 -2.5216  1.0890 -1.6992
   13MOL   H81314277   6.086   6.368   4.625  1.5942  0.9524  0.0032
   13MOL   H81414278   6.294   6.197   4.748 -0.4827  0.2640  1.0806
   13MOL   H81514279   6.297   6.380   4.757  0.5255  0.2283 -3.0226
   13MOL   H81614280   6.086   6.378   4.868 -0.1984 -0.3478 -2.2350
   13MOL   H81714281   6.082   6.195   4.865  1.8690 -1.4531  0.8711
   13MOL   H81814282   6.267   6.186   5.004 -0.4954 -0.5480 -3.3024
   13MOL   H81914283   6.283   6.365   5.015 -0.0296  0.0274  1.5725
   13MOL   H82014284   6.031   6.202   5.087 -0.9252 -0.9555  1.7065
   13MOL   H82114285   6.178   6.238   5.196 -0.8170 -1.1266  0.2121
   13MOL   H82214286   5.980   6.440   5.070  1.3339 -0.1397 -1.4859
   13MOL   H82314287   5.974   6.396   5.238  0.9264  2.6003  1.2843
   13MOL   H82414288   6.214   6.535   5.116 -0.3450 -1.2822 -0.4478
   13MOL   H82514289   6.198   6.479   5.282 -1.6998  0.2343  1.6760
   13MOL   H82614290   5.981   6.664   5.193 -0.3630  0.6752 -0.6055
   13MOL   H82714291   6.049   6.627   5.352 -0.3744  0.0645 -0.0185
   13MOL   H82814292   6.191   6.764   5.436  1.7216 -1.2662 -1.3235
   13MOL   H82914293   6.286   7.006   5.294  2.5950  0.3493 -0.5610
   13MOL   H83014294   6.403   6.888   5.311  0.9252  2.2399  0.0402
   13MOL   H83114295   6.335   6.895   5.565 -1.7728 -0.4965  0.3041
   13MOL   H83214296   6.232   7.028   5.532  1.1659  1.2540  1.9982
   13MOL   H83314297   6.526   7.024   5.474  1.0645  0.4595  0.1275
   13MOL   H83414298   6.416   7.167   5.446  0.8147  0.9493  1.3479
   13MOL   H83514299   6.355   7.179   5.683  0.7646  1.3331  0.8291
   13MOL   H83614300   6.517   7.222   5.650 -1.2901  1.4701  0.1307
   13MOL   H83714301   6.601   7.019   5.744  0.6118 -1.2842  3.2530
   13MOL   H83814302   6.430   6.951   5.757 -0.1297  0.0370  2.7858
   13MOL   H83914303   6.388   7.137   5.919  0.2855  1.5328 -0.9121
   13MOL   H84014304   6.560   7.189   5.907  0.5372 -0.3843 -0.0678
   13MOL   H84114305   6.639   7.045   6.040 -0.2615 -0.1094 -1.0798
   13MOL   C84214306   6.492   6.908   6.054 -0.4413 -1.3984  0.0726
   13MOL   O84314307   6.385   6.855   6.014  0.2669 -0.0562 -0.1863
   13MOL   C84414308   6.568   6.839   6.165 -0.2385  0.0660 -0.0132
   13MOL   C84514309   6.589   6.691   6.145 -0.0011  0.1517 -0.3747
   13MOL   C84614310   6.688   6.659   6.028  0.2694 -1.3122 -0.1264
   13MOL   C84714311   6.707   6.512   6.011  0.2226 -0.1147  0.1572
   13MOL   C84814312   6.797   6.452   6.127  0.4749  0.4638 -0.4634
   13MOL   C84914313   6.828   6.303   6.103  0.1872  0.3245  0.4545
   13MOL   C85014314   6.705   6.215   6.107  0.4794 -0.6573 -0.0136
   13MOL   C85114315   6.619   6.225   6.238  0.0143  0.2939  0.3817
   13MOL   C85214316   6.488   6.141   6.225 -0.2359 -0.2636 -0.0336
   13MOL   C85314317   6.502   5.987   6.206 -0.4177  0.5030 -0.1170
   13MOL   C85414318   6.516   5.908   6.338 -0.0814  0.2389  0.4173
   13MOL   O85514319   6.498   5.964   6.447 -0.5331  0.0438 -0.3694
   13MOL   N85614320   6.564   5.785   6.335  0.0935 -0.4783  0.4077
   13MOL   C85714321   6.592   5.706   6.463 -0.5813 -0.4419 -0.0827
   13MOL   C85814322   6.715   5.615   6.453 -0.1736  0.7023 -0.1145
   13MOL   C85914323   6.744   5.530   6.579  0.5277 -0.1670  0.3105
   13MOL   C86014324   6.807   5.613   6.691  0.2811 -0.1055  0.0084
   13MOL   C86114325   6.846   5.519   6.808  0.2956 -0.1810 -0.3863
   13MOL   C86214326   6.989   5.529   6.862 -0.6721 -0.0076 -0.3025
   13MOL   N86314327   7.033   5.409   6.949  0.0810 -0.4869  0.5851
   13MOL   H86414328   6.509   6.845   6.256 -1.1961 -0.1356 -0.6048
   13MOL   H86514329   6.662   6.890   6.182  0.7152 -1.2359 -1.2226
   13MOL   H86614330   6.491   6.645   6.139 -0.8582  2.1486 -2.1492
   13MOL   H86714331   6.631   6.662   6.242 -1.5484  1.1934  0.6321
   13MOL   H86814332   6.646   6.700   5.936  0.4114  0.9411  0.7756
   13MOL   H86914333   6.779   6.718   6.036 -1.0343  0.7359  0.2890
   13MOL   H87014334   6.770   6.502   5.923  0.5606  0.8659  0.2826
   13MOL   H87114335   6.610   6.464   5.997  1.7632 -2.8190 -1.7938
   13MOL   H87214336   6.891   6.505   6.115 -0.8819  3.0588  0.1087
   13MOL   H87314337   6.763   6.472   6.229 -0.3362  0.0612 -0.6464
   13MOL   H87414338   6.879   6.311   6.008  1.6342  1.5552  1.3109
   13MOL   H87514339   6.895   6.276   6.185  1.5926 -0.9992 -1.1165
   13MOL   H87614340   6.638   6.222   6.021  0.4391  0.9179  0.1347
   13MOL   H87714341   6.735   6.111   6.095  0.2013 -0.9245  1.5277
   13MOL   H87814342   6.596   6.330   6.255  0.8046  0.3753  1.0134
   13MOL   H87914343   6.660   6.180   6.329  1.4161 -0.5206 -0.6381
   13MOL   H88014344   6.432   6.181   6.140 -0.6693  0.5125  0.6081
   13MOL   H88114345   6.422   6.160   6.310  0.7189  2.7888  0.0803
   13MOL   H88214346   6.418   5.949   6.148 -0.3183 -0.4359  0.3444
   13MOL   H88314347   6.585   5.970   6.138 -1.0762  2.3559 -1.4126
   13MOL   H88414348   6.601   5.741   6.252  0.7721 -0.0576  0.4801
   13MOL   H88514349   6.503   5.646   6.478 -0.8394  0.1879  0.9450
   13MOL   H88614350   6.606   5.780   6.541 -2.2356  0.6489 -0.8076
   13MOL   H88714351   6.805   5.665   6.416 -0.5396  2.3017  1.0685
   13MOL   H88814352   6.690   5.545   6.373 -0.9190  0.4724  0.3157
   13MOL   H88914353   6.814   5.452   6.547  1.6886  0.4917  1.2118
   13MOL   H89014354   6.654   5.476   6.608  0.3559 -0.1158 -0.1284
   13MOL   H89114355   6.726   5.681   6.717 -1.3796 -1.6084 -1.1342
   13MOL   H89214356   6.887   5.679   6.656 -1.3335  1.8234 -0.1021
   13MOL   H89314357   6.772   5.515   6.888 -0.4687 -0.9675 -1.1301
   13MOL   H89414358   6.848   5.418   6.767 -2.9814 -1.3664  2.1488
   13MOL   H89514359   7.059   5.528   6.779 -1.6013  0.4672 -1.0936
   13MOL   H89614360   7.010   5.615   6.927 -1.4120  0.3470 -0.5278
   13MOL   H89714361   7.096   5.346   6.900 -0.8525  1.0900 -2.8356
   13MOL   C89814362   6.999   5.393   7.079  0.3123  0.0352  0.7730
   13MOL   O89914363   6.941   5.477   7.142 -0.0160  0.5770 -0.2116
   13MOL   C90014364   7.011   5.252   7.133  0.1320  0.4348 -0.6127
   13MOL   C90114365   7.042   5.232   7.284  0.2078  0.3271 -0.3057
   13MOL   C90214366   7.180   5.281   7.329  0.0929 -0.2817 -0.6969
   13MOL   C90314367   7.239   5.228   7.461  0.6986 -0.4844 -0.1100
   13MOL   C90414368   7.301   5.086   7.444 -0.7205  0.4412  0.0864
   13MOL   C90514369   7.390   5.049   7.323 -0.5984  0.0535  0.1548
   13MOL   C90614370   7.502   4.950   7.356  0.8150  0.1899 -0.4434
   13MOL   C90714371   7.610   4.923   7.243 -0.2775  0.0416 -0.3270
   13MOL   C90814372   0.038   4.845   7.287 -0.5243 -0.7728  0.5245
   13MOL   C90914373   0.147   4.848   7.180  0.2935 -0.5798 -0.5946
   13MOL   C91014374   0.276   4.788   7.219 -0.2323 -0.1913 -0.3900
   13MOL   O91114375   0.297   4.735   7.324  0.4551 -0.7410 -0.1330
   13MOL   N91214376   0.381   4.802   7.137  0.3375  0.4439  0.0616
   13MOL   C91314377   0.512   4.742   7.161 -0.0316  0.5139 -0.8325
   13MOL   C91414378   0.622   4.837   7.215  0.0461 -0.4045  0.3446
   13MOL   C91514379   0.744   4.756   7.254  0.1749 -0.9341  0.6734
   13MOL   C91614380   0.864   4.855   7.264  0.0510 -0.4846  0.0497
   13MOL   C91714381   1.006   4.793   7.274  0.0275  0.3670 -0.7423
   13MOL   C91814382   1.063   4.786   7.419  0.6313 -0.2905 -0.7381
   13MOL   N91914383   1.202   4.764   7.402  0.4210  0.2827  0.2389
   13MOL   H92014384   6.914   5.204   7.118 -0.5184  2.2863 -2.5275
   13MOL   H92114385   7.090   5.203   7.077 -0.7312 -0.9694 -0.6356
   13MOL   H92214386   7.034   5.126   7.309  3.7444  0.3045  1.0169
   13MOL   H92314387   6.969   5.277   7.352  0.6895  0.1485  0.3324
   13MOL   H92414388   7.188   5.389   7.341  1.7163 -0.5475  0.8854
   13MOL   H92514389   7.248   5.249   7.251  1.4786  1.1263 -0.1064
   13MOL   H92614390   7.312   5.302   7.495  1.6186 -1.4261 -0.0082
   13MOL   H92714391   7.155   5.223   7.531  1.6447  0.0439  1.0879
   13MOL   H92814392   7.227   5.006   7.450  0.6814 -0.9367 -0.8211
   13MOL   H92914393   7.359   5.059   7.533  0.0273  1.5280 -0.0607
   13MOL   H93014394   7.338   5.010   7.236 -0.2686 -1.0951  0.4734
   13MOL   H93114395   7.441   5.140   7.289 -0.3493 -0.0615  0.2208
   13MOL   H93214396   7.469   4.854   7.396  2.5950  0.3661  1.5961
   13MOL   H93314397   7.552   4.999   7.440 -2.4766  1.4149  0.8765
   13MOL   H93414398   7.645   5.012   7.191  2.4130 -0.7628  0.0611
   13MOL   H93514399   7.568   4.859   7.164 -0.4105 -0.9862  0.5626
   13MOL   H93614400   0.063   4.876   7.389  2.1224  1.6913 -0.8027
   13MOL   H93714401   0.004   4.744   7.311 -0.8047 -0.7542  0.1983
   13MOL   H93814402   0.107   4.803   7.089 -2.0583  1.0922 -0.4299
   13MOL   H93914403   0.161   4.951   7.147 -0.4275  0.6846  2.8272
   13MOL   H94014404   0.363   4.849   7.050 -2.2375 -0.2589  0.1857
   13MOL   H94114405   0.536   4.719   7.057  0.3925  0.5974 -0.7549
   13MOL   H94214406   0.504   4.651   7.221 -0.3118 -1.6531 -4.0579
   13MOL   H94314407   0.651   4.895   7.128  2.2667 -1.1168  0.5721
   13MOL   H94414408   0.594   4.905   7.296  1.4031 -1.7455  1.9709
   13MOL   H94514409   0.730   4.715   7.354  0.4546  0.2524  1.2021
   13MOL   H94614410   0.761   4.680   7.177 -0.9816  0.1912 -0.7287
   13MOL   H94714411   0.862   4.946   7.324 -0.5828  0.1861 -0.9695
   13MOL   H94814412   0.875   4.883   7.159 -0.1239 -1.5113 -0.2539
   13MOL   H94914413   1.013   4.703   7.213 -0.1457 -1.9322  2.4732
   13MOL   H95014414   1.069   4.863   7.219  1.2866 -2.0978 -2.5440
   13MOL   H95114415   1.009   4.708   7.473 -0.8538 -0.0036 -1.7704
   13MOL   H95214416   1.049   4.880   7.471  0.2876 -1.0885  0.6561
   13MOL   H95314417   1.237   4.775   7.308  2.3002 -0.0443  0.8746
   13MOL   C95414418   1.294   4.726   7.496  0.5127  0.7452 -0.0857
   13MOL   O95514419   1.417   4.735   7.468  0.1092  0.7290 -0.4245
   13MOL   C95614420   1.245   4.650   7.620  0.1113  0.2464  0.2726
   13MOL   C95714421   1.325   4.517   7.645  0.0814 -0.6095  0.4693
   13MOL   C95814422   1.312   4.409   7.538 -0.1218  0.4187  0.8004
   13MOL   C95914423   1.386   4.277   7.566  0.1319  0.0665  0.1350
   13MOL   C96014424   1.371   4.167   7.454  0.0501  0.0701  0.2909
   13MOL   C96114425   1.404   4.025   7.514 -0.1285  0.2662 -0.1980
   13MOL   C96214426   1.442   3.911   7.416 -0.1664 -0.5907  0.2197
   13MOL   C96314427   1.455   3.785   7.496  0.1783 -0.4205  0.0342
   13MOL   C96414428   1.487   3.662   7.403 -0.4357 -0.4088  0.9263
   13MOL   C96514429   1.419   3.535   7.450 -0.2260  0.8696 -0.3542
   13MOL   C96614430   1.464   3.472   7.589 -1.0144 -0.0578 -0.6936
   13MOL   O96714431   1.533   3.533   7.670  0.6716  0.1285 -0.1371
   13MOL   N96814432   1.423   3.346   7.617  0.2307 -0.4077 -0.5786
   13MOL   C96914433   1.442   3.270   0.048 -0.0854 -0.2316 -0.1223
   13MOL   C97014434   1.588   3.236   0.090  0.5732 -0.4613  1.0382
   13MOL   C97114435   1.681   3.181   7.678 -0.0424 -0.0254 -0.7655
   13MOL   C97214436   1.820   3.159   0.042  0.1688  0.1865 -0.1917
   13MOL   C97314437   1.822   3.052   0.157 -0.0722  0.3619 -0.5152
   13MOL   C97414438   1.968   3.021   0.203 -0.6698 -0.4422  0.1194
   13MOL   N97514439   1.983   2.922   0.314  0.4387  0.9714 -0.0066
   13MOL   H97614440   1.243   4.719   0.012 -0.1963 -2.4486  2.5453
   13MOL   H97714441   1.141   4.618   7.616  0.8455 -2.1560 -0.2293
   13MOL   H97814442   1.291   4.476   0.048  0.4274  0.9401  1.2908
   13MOL   H97914443   1.432   4.532   7.650  0.3662 -2.6925  0.8659
   13MOL   H98014444   1.210   4.373   7.528  0.8805 -1.6543 -3.7010
   13MOL   H98114445   1.330   4.460   7.443 -1.9467 -0.2481  0.0877
   13MOL   H98214446   1.492   4.297   7.582  0.4850 -0.9167 -0.9297
   13MOL   H98314447   1.352   4.235   7.660  0.3044  0.2142  0.2628
   13MOL   H98414448   1.267   4.169   7.422 -0.0533 -1.2860  0.5223
   13MOL   H98514449   1.452   4.190   7.385  0.4725 -0.7450  0.5076
   13MOL   H98614450   1.483   4.028   7.589 -1.6703  0.8744  1.4319
   13MOL   H98714451   1.312   4.002   7.567 -0.5642 -0.4671 -1.2531
   13MOL   H98814452   1.360   3.894   7.346  0.7227 -1.1859 -0.6900
   13MOL   H98914453   1.535   3.925   7.360  0.1421 -0.6452  0.7181
   13MOL   H99014454   1.538   3.778   7.567  0.6571 -2.4812 -0.7059
   13MOL   H99114455   1.365   3.770   7.556 -1.7692 -0.0136 -2.7137
   13MOL   H99214456   1.591   3.643   7.378 -0.4070 -0.5726  1.1674
   13MOL   H99314457   1.450   3.685   7.303 -0.8091 -0.8642  0.9592
   13MOL   H99414458   1.312   3.554   7.453 -0.5632 -1.0355  2.3476
   13MOL   H99514459   1.411   3.460   7.371 -1.3220  0.5182  0.0735
   13MOL   H99614460   1.361   3.297   7.555  1.4445 -2.7133 -0.0077
   13MOL   H99714461   1.389   3.175   0.036  1.3252 -0.9313 -0.9407
   13MOL   H99814462   1.389   3.315   0.132  0.2985 -1.6391  0.8953
   13MOL   H99914463   1.588   3.172   0.178 -0.6617 -1.0257  0.6326
   13MOL     H114464   1.635   3.328   0.126 -1.2545  1.2802 -0.8636
   13MOL     H214465   1.686   3.242   7.588  0.0210 -0.4956 -1.0819
   13MOL     H314466   1.638   3.090   7.637  1.2884 -1.0412  0.0356
   13MOL     H414467   1.882   3.125   7.651  2.2521  2.0192  0.5649
   13MOL     H514468   1.866   3.253   0.071  0.6017  0.0529 -0.4538
   13MOL     H614469   1.774   2.966   0.110 -1.2405  0.9481 -0.4077
   13MOL     H714470   1.767   3.076   0.247 -1.6713 -1.4468 -0.9615
   13MOL     H814471   2.036   2.985   0.126 -0.8981 -1.4786  0.4031
   13MOL     H914472   2.009   3.116   0.238 -0.2253 -0.3464 -0.6332
   13MOL    H1014473   1.907   2.857   0.325  1.1784  0.3888  1.8121
   13MOL    C1114474   2.078   2.925   0.408  0.0400 -0.6213 -0.1819
   13MOL    O1214475   2.160   3.011   0.421  0.0362  0.9395 -0.1106
   13MOL    C1314476   2.062   2.814   0.515 -0.0061 -0.1854 -0.2327
   13MOL    C1414477   2.192   2.741   0.555 -0.2446 -0.4486  0.5172
   13MOL    C1514478   2.172   2.598   0.608  0.2210 -0.0146 -0.1407
   13MOL    C1614479   2.103   2.596   0.750  0.4154  0.0442 -0.3067
   13MOL    C1714480   2.057   2.454   0.786  0.2343  0.3236 -0.6480
   13MOL    C1814481   1.958   2.455   0.903 -0.6610  0.4857  0.2017
   13MOL    C1914482   1.948   2.317   0.969 -0.2039  0.1861 -0.3273
   13MOL    C2014483   1.885   2.212   0.872  0.2956  0.0836 -0.4051
   13MOL    C2114484   1.875   2.077   0.946 -0.3363  0.0857  0.6140
   13MOL    C2214485   1.794   1.969   0.879 -0.3486 -0.9180  0.0317
   13MOL    C2314486   1.770   1.851   0.967 -0.2845  0.2186  0.1996
   13MOL    O2414487   1.872   1.809   1.023 -0.4738  0.1620  0.2539
   13MOL    N2514488   1.653   1.784   0.972  0.5551  0.1854  0.1942
   13MOL    C2614489   1.649   1.644   1.028  0.1244 -0.6580  0.1618
   13MOL    C2714490   1.545   1.548   0.964  0.3856 -0.6892 -0.7865
   13MOL    C2814491   1.589   1.482   0.840 -0.3796 -0.0369 -0.4972
   13MOL    C2914492   1.478   1.422   0.751  0.0134  0.1307  0.0906
   13MOL    C3014493   1.369   1.348   0.826 -0.2747 -0.3425  0.7974
   13MOL    C3114494   1.270   1.279   0.738  0.0828  1.1023 -0.0178
   13MOL    N3214495   1.180   1.196   0.814 -0.4372  0.5969 -1.0165
   13MOL    H3314496   1.993   2.738   0.477 -0.2778  0.4861 -1.0770
   13MOL    H3414497   2.015   2.838   0.611 -0.6986 -0.4068 -0.5154
   13MOL    H3514498   2.248   2.798   0.628  0.7188 -0.9535  0.1875
   13MOL    H3614499   2.269   2.743   0.478 -0.9295 -0.7358 -0.1854
   13MOL    H3714500   2.268   2.547   0.611  0.7016  0.8196 -0.8840
   13MOL    H3814501   2.111   2.538   0.540 -0.1115 -1.6136  1.5203
   13MOL    H3914502   2.157   2.640   0.833  2.3028 -0.6071 -1.1719
   13MOL    H4014503   2.013   2.655   0.732  0.4221 -0.1690 -1.0830
   13MOL    H4114504   2.011   2.398   0.704 -0.9366 -3.8560  2.7000
   13MOL    H4214505   2.154   2.410   0.812  0.3728 -0.1424 -1.9122
   13MOL    H4314506   1.992   2.529   0.976  2.3517 -1.0995  0.4900
   13MOL    H4414507   1.863   2.497   0.869 -0.9303 -0.5630 -0.3667
   13MOL    H4514508   2.045   2.278   1.001 -1.0252 -2.0353 -0.4177
   13MOL    H4614509   1.898   2.320   1.065 -1.5026  1.6851 -1.0270
   13MOL    H4714510   1.788   2.232   0.827 -0.3530 -0.8518  0.5649
   13MOL    H4814511   1.956   2.193   0.791  0.0855 -0.6494 -0.4251
   13MOL    H4914512   1.831   2.094   1.043 -0.0159  3.7070  0.1925
   13MOL    H5014513   1.977   2.038   0.952 -0.4517 -0.3614 -0.1947
   13MOL    H5114514   1.697   2.013   0.854  0.7300  1.1537 -0.6145
   13MOL    H5214515   1.844   1.942   0.786  0.9424  1.2886  0.0458
   13MOL    H5314516   1.565   1.818   0.937  0.7405 -0.8889 -1.3867
   13MOL    H5414517   1.603   1.668   1.124  1.5438 -2.6879  1.4084
   13MOL    H5514518   1.746   1.598   1.048 -0.0776 -0.7618  0.9083
   13MOL    H5614519   1.460   1.610   0.935  0.6002  1.3330  2.5709
   13MOL    H5714520   1.513   1.473   1.037  0.1414 -1.2831 -1.4952
   13MOL    H5814521   1.666   1.409   0.863 -1.5121 -0.5420  1.9524
   13MOL    H5914522   1.640   1.565   0.792 -0.9453  1.8082  1.9424
   13MOL    H6014523   1.534   1.365   0.677 -1.2222  0.4539 -1.1126
   13MOL    H6114524   1.438   1.504   0.692  0.2971 -0.6574 -1.2253
   13MOL    H6214525   1.316   1.418   0.891  0.8259  1.2740 -0.0203
   13MOL    H6314526   1.419   1.272   0.887 -1.1207 -1.5112  0.0544
   13MOL    H6414527   1.322   1.219   0.662 -0.0551 -0.0501  0.7770
   13MOL    H6514528   1.225   1.358   0.678  0.7409 -0.7219 -3.0408
   13MOL    H6614529   1.084   1.222   0.833  0.1370  0.2306  2.7310
   13MOL    C6714530   1.216   1.074   0.866 -0.3564 -0.6870 -0.4995
   13MOL    O6814531   1.325   1.021   0.837 -0.5297  0.0196  0.0787
   13MOL    C6914532   1.107   0.997   0.942 -0.5601 -0.0927 -1.4213
   13MOL    C7014533   1.147   0.856   0.999 -0.6595 -0.2228 -0.3212
   13MOL    C7114534   1.032   0.790   1.074  0.0477 -0.3664 -0.2470
   13MOL    C7214535   0.922   0.734   0.978  0.0365 -0.7788 -0.3742
   13MOL    C7314536   0.801   0.686   1.054 -0.0848  0.6974  0.2411
   13MOL    C7414537   0.684   0.653   0.957  0.0088 -0.1451 -0.1091
   13MOL    C7514538   0.693   0.522   0.875 -0.1333 -0.0151  1.1052
   13MOL    C7614539   0.696   0.390   0.956 -0.2190  0.2363  0.2258
   13MOL    C7714540   0.710   0.259   0.882 -0.1492  0.8536 -0.3698
   13MOL    C7814541   0.854   0.237   0.833  0.5698 -0.2833  0.4234
   13MOL    C7914542   0.900   0.305   0.706  0.6634  0.4586  0.1980
   13MOL    O8014543   0.841   0.275   0.600 -0.1711 -0.1335 -0.1539
   13MOL    N8114544   0.995   0.396   0.710 -0.3664  0.0601 -0.4490
   13MOL    C8214545   1.055   0.462   0.591  0.3778 -0.8236 -0.5996
   13MOL    C8314546   1.171   0.553   0.643 -0.4663  0.4955 -0.4831
   13MOL    C8414547   1.238   0.619   0.523  0.5062 -0.2574 -0.4406
   13MOL    C8514548   1.354   0.716   0.565  0.2828 -0.0318 -0.1532
   13MOL    C8614549   1.385   0.820   0.458 -0.0678  0.5637 -0.5022
   13MOL    C8714550   1.461   0.939   0.515  0.5801 -0.1127 -0.2474
   13MOL    N8814551   1.461   1.051   0.427  0.5606 -0.0823  0.4023
   13MOL    H8914552   1.008   0.995   0.897 -0.5350  1.4901 -1.5533
   13MOL    H9014553   1.092   1.057   1.032 -0.4986 -2.0417 -0.0793
   13MOL    H9114554   1.184   0.801   0.913 -0.1281  1.4200 -1.1664
   13MOL    H9214555   1.229   0.864   1.070  0.8423 -2.1214 -1.7980
   13MOL    H9314556   1.073   0.706   1.129  0.2924 -1.2669 -1.7836
   13MOL    H9414557   0.999   0.860   1.151 -0.3445 -1.4127  0.5456
   13MOL    H9514558   0.895   0.825   0.925  3.2353  0.8519  0.6749
   13MOL    H9614559   0.962   0.658   0.911  2.8858  1.1618 -0.9449
   13MOL    H9714560   0.816   0.597   1.114 -0.4375 -0.4778 -1.3877
   13MOL    H9814561   0.782   0.757   1.134  0.7575  0.1091  0.9651
   13MOL    H9914562   0.595   0.657   1.019 -0.0293  2.1040 -0.2752
   13MOL   H10014563   0.678   0.738   0.889 -0.7427  1.9568  2.5051
   13MOL   H10114564   0.777   0.530   0.806  0.1029  1.0740  1.5218
   13MOL   H10214565   0.606   0.519   0.810 -0.1301  3.6360  0.8562
   13MOL   H10314566   0.757   0.390   1.046 -0.7890 -2.7030  0.6610
   13MOL   H10414567   0.592   0.389   0.991  0.1657 -1.8238  1.3321
   13MOL   H10514568   0.638   0.244   0.802 -0.2732  0.3205 -0.1599
   13MOL   H10614569   0.700   0.181   0.958 -0.3449  0.4651 -0.7901
   13MOL   H10714570   0.931   0.256   0.908 -1.1371 -2.3050  2.7838
   13MOL   H10814571   0.876   0.131   0.819  1.4248  0.0539 -0.8058
   13MOL   H10914572   1.035   0.426   0.798 -0.4443 -0.7675 -0.1300
   13MOL   H11014573   0.970   0.513   0.544 -0.8884 -2.4325 -0.0883
   13MOL   H11114574   1.087   0.388   0.518 -0.1649 -3.5011  1.8357
   13MOL   H11214575   1.244   0.488   0.691 -0.6018  1.1886  0.6654
   13MOL   H11314576   1.125   0.621   0.714  1.0819 -0.0462  1.0805
   13MOL   H11414577   1.162   0.662   0.458 -2.1797 -1.9093  1.4343
   13MOL   H11514578   1.286   0.544   0.460  0.5307 -1.1246  0.5773
   13MOL   H11614579   1.321   0.773   0.652  1.2047  0.4468 -0.1094
   13MOL   H11714580   1.448   0.668   0.589 -0.7902 -2.3493 -0.4329
   13MOL   H11814581   1.446   0.776   0.379  1.4608  3.9258 -1.2846
   13MOL   H11914582   1.287   0.831   0.412  0.3646 -1.2002 -1.8950
   13MOL   H12014583   1.415   0.963   0.611 -0.8646  0.8523 -1.1493
   13MOL   H12114584   1.566   0.912   0.526  1.1058  1.7935 -0.3725
   13MOL   H12214585   1.381   1.113   0.434  0.9250  0.4452  0.0008
   13MOL   H12314586   1.534   1.118   0.448 -0.6023  0.9926  1.1018
   14MOL     C114587   1.858   2.822   4.503  0.2679  0.5343  0.2963
   14MOL     O214588   1.864   2.711   4.451  0.2300 -0.5820  0.6510
   14MOL     C314589   1.732   2.899   4.522  0.8820  0.2959 -0.1239
   14MOL     C414590   1.728   3.037   4.457  0.2991  0.4468  0.7397
   14MOL     C514591   1.711   3.039   4.305 -0.3708 -0.3919 -0.4168
   14MOL     C614592   1.742   3.178   4.241  0.0877  0.8277  0.3421
   14MOL     C714593   1.742   3.156   4.089 -0.3273 -0.4670 -0.8073
   14MOL     C814594   1.785   3.279   4.013 -0.0106  0.2126  0.4942
   14MOL     C914595   1.745   3.274   3.870  0.3278 -0.4771  0.2414
   14MOL    C1014596   1.813   3.383   3.784  0.3300  0.4402  0.0344
   14MOL    C1114597   1.754   3.521   3.808 -0.3491  0.0646  0.2208
   14MOL    C1214598   1.619   3.541   3.748  0.0556  0.3808  0.2816
   14MOL    C1314599   1.585   3.686   3.705  0.6157  0.0208 -0.4946
   14MOL    O1414600   1.661   3.753   3.638  0.2466  0.2585  0.2248
   14MOL    N1514601   1.467   3.736   3.755 -0.3048  0.2722 -0.1439
   14MOL    C1614602   1.431   3.881   3.746  0.6122 -0.4950  0.6356
   14MOL    C1714603   1.280   3.901   3.761 -0.3997  0.0990  0.2389
   14MOL    C1814604   1.236   4.047   3.767  0.2798 -0.1515  0.0080
   14MOL    C1914605   1.093   4.086   3.797  0.1549 -0.0491 -0.1735
   14MOL    C2014606   1.010   4.055   3.668 -0.2959  0.1132  0.4215
   14MOL    C2114607   0.859   4.055   3.703  0.2599 -1.1270 -0.7353
   14MOL    N2214608   0.784   4.020   3.591 -1.0018 -0.4739 -0.4602
   14MOL    H2314609   1.726   2.913   4.630 -0.0336 -1.4033  0.0530
   14MOL    H2414610   1.645   2.837   4.498  0.6736  0.5316  0.0182
   14MOL    H2514611   1.820   3.088   4.482  0.4473  0.3010  0.4935
   14MOL    H2614612   1.651   3.097   4.506  0.1167 -0.4639  1.6032
   14MOL    H2714613   1.608   3.014   4.281 -0.1019 -1.9261  0.0148
   14MOL    H2814614   1.758   2.949   4.266 -0.8959 -1.1829  0.7828
   14MOL    H2914615   1.666   3.251   4.268 -0.4929  0.7683 -1.0887
   14MOL    H3014616   1.838   3.226   4.261 -0.1981  1.0448  1.1781
   14MOL    H3114617   1.638   3.126   4.074 -0.2796 -0.1945 -1.7353
   14MOL    H3214618   1.810   3.075   4.062 -0.6020 -0.8381 -0.3955
   14MOL    H3314619   1.744   3.369   4.058 -0.4835 -0.2024  0.8958
   14MOL    H3414620   1.893   3.295   4.014  0.0967 -0.5550  2.4032
   14MOL    H3514621   1.780   3.176   3.835  1.6990  0.6535 -1.6060
   14MOL    H3614622   1.637   3.278   3.852  0.5203  0.6069 -0.7445
   14MOL    H3714623   1.921   3.386   3.800  0.6823  0.3618 -2.2694
   14MOL    H3814624   1.799   3.350   3.681  4.0230  3.0705 -1.4260
   14MOL    H3914625   1.831   3.590   3.770 -2.0450  3.2752  2.3438
   14MOL    H4014626   1.754   3.552   3.913 -2.8182 -1.1632  0.5977
   14MOL    H4114627   1.623   3.494   3.650  0.5754  1.5289 -0.2470
   14MOL    H4214628   1.535   3.499   3.804 -1.1776  0.3380 -1.5513
   14MOL    H4314629   1.409   3.675   3.811  1.7288 -0.1233  1.5711
   14MOL    H4414630   1.474   3.924   3.655  0.3453  2.6501  1.9246
   14MOL    H4514631   1.473   3.930   3.834  0.3819  1.6596 -0.4106
   14MOL    H4614632   1.238   3.836   3.838 -3.2300 -1.1365 -2.2377
   14MOL    H4714633   1.229   3.857   3.675  1.7569 -1.4761 -0.2728
   14MOL    H4814634   1.299   4.092   3.844  0.9816  0.0794 -0.6903
   14MOL    H4914635   1.265   4.077   3.666 -0.4348  2.6764  0.6023
   14MOL    H5014636   1.099   4.194   3.813  0.5428 -0.2717  1.2249
   14MOL    H5114637   1.065   4.041   3.892  0.8122 -0.1100 -0.0036
   14MOL    H5214638   1.024   4.127   3.588 -0.6034 -0.0846  0.1900
   14MOL    H5314639   1.035   3.960   3.621  1.2842 -0.6274  2.6213
   14MOL    H5414640   0.836   3.979   3.777 -0.1405  0.8977  1.2686
   14MOL    H5514641   0.844   4.153   3.748  1.0941 -2.2652  2.1031
   14MOL    H5614642   0.779   3.922   3.564  0.4231 -1.1304  1.5336
   14MOL    H5714643   1.937   2.879   4.553  0.1916  2.8558 -2.0627
   14MOL    C5814644   0.732   4.101   3.502  0.4673 -0.1065 -0.6963
   14MOL    O5914645   0.741   4.222   3.524 -0.3137  0.0629  0.0371
   14MOL    C6014646   0.670   4.044   3.374  0.1980 -0.0436  0.0132
   14MOL    C6114647   0.678   4.129   3.256 -0.3295  0.4217  0.6743
   14MOL    C6214648   0.563   4.237   3.249  0.3373  0.3240  0.7166
   14MOL    C6314649   0.555   4.314   3.117  0.0015 -0.0357  0.0056
   14MOL    C6414650   0.418   4.374   3.081 -0.4171 -0.1334 -0.3141
   14MOL    C6514651   0.353   4.489   3.162 -0.7142 -0.3238  0.5294
   14MOL    C6614652   0.451   4.609   3.175 -0.2726 -0.4952 -0.1117
   14MOL    C6714653   0.396   4.725   3.259 -0.0902 -0.1364 -0.5619
   14MOL    C6814654   0.498   4.834   3.290  0.0689 -0.2251 -0.5117
   14MOL    C6914655   0.607   4.800   3.394 -0.5934 -0.1719 -0.0514
   14MOL    C7014656   0.704   4.924   3.417 -0.1771  0.6157  0.3532
   14MOL    O7114657   0.690   5.026   3.350  0.7367 -0.2422  0.7953
   14MOL    N7214658   0.797   4.910   3.516 -0.4833  0.3881 -0.2246
   14MOL    C7314659   0.898   5.012   3.549  0.6895 -0.1051 -0.2087
   14MOL    C7414660   0.956   5.012   3.692  0.4592  0.8577  0.4557
   14MOL    C7514661   1.079   5.100   3.696 -0.3080 -0.0575  1.1496
   14MOL    C7614662   1.146   5.113   3.830  0.0271  0.1596 -0.2673
   14MOL    C7714663   1.062   5.178   3.947  0.0696  0.0722 -0.1719
   14MOL    C7814664   1.150   5.208   4.070  0.9916  0.2757 -0.0368
   14MOL    N7914665   1.086   5.229   4.203  0.0643  0.0823  0.2459
   14MOL    H8014666   0.566   4.020   3.396 -0.3784 -0.2542 -2.7429
   14MOL    H8114667   0.716   3.947   3.359  1.4708  0.5179  0.2298
   14MOL    H8214668   0.765   4.195   3.257  0.6575 -0.8310 -0.4778
   14MOL    H8314669   0.703   4.076   3.164 -2.1433  2.4505 -1.0531
   14MOL    H8414670   0.585   4.309   3.328  0.0285 -1.5548  2.5593
   14MOL    H8514671   0.467   4.206   3.289  0.4938 -2.0239 -0.6270
   14MOL    H8614672   0.574   4.248   3.032 -1.4533  1.3171 -1.4126
   14MOL    H8714673   0.631   4.391   3.105  2.3189 -1.7989  2.6878
   14MOL    H8814674   0.431   4.396   2.975  1.9017 -0.1406 -0.0538
   14MOL    H8914675   0.349   4.290   3.080 -1.1054  0.3724  1.7482
   14MOL    H9014676   0.326   4.441   3.255 -0.5703 -1.3311  0.0560
   14MOL    H9114677   0.261   4.520   3.112  0.1127  1.0187 -0.2248
   14MOL    H9214678   0.492   4.639   3.078 -1.0005 -0.0320 -0.2787
   14MOL    H9314679   0.536   4.568   3.229 -0.7215  1.0720  1.8439
   14MOL    H9414680   0.302   4.759   3.215 -0.5167  0.5864  0.8988
   14MOL    H9514681   0.359   4.683   3.353  2.0346  0.2854  0.4810
   14MOL    H9614682   0.439   4.916   3.329 -0.1945 -0.6811  0.0580
   14MOL    H9714683   0.545   4.882   3.204  1.3997 -0.0177  0.3190
   14MOL    H9814684   0.565   4.775   3.492  0.0187  1.6772  0.7011
   14MOL    H9914685   0.669   4.719   3.356 -1.1255 -0.3864 -0.4678
   14MOL   H10014686   0.799   4.823   3.568  0.2971 -0.5924 -1.8478
   14MOL   H10114687   0.873   5.109   3.507  3.2432  0.2349 -1.0024
   14MOL   H10214688   0.981   4.976   3.488  2.2251  2.4257  0.3219
   14MOL   H10314689   0.885   5.020   3.773 -1.2883  0.3837 -0.9963
   14MOL   H10414690   0.977   4.911   3.728 -1.8731  0.5960  1.1691
   14MOL   H10514691   1.041   5.201   3.684  2.8271  1.1128  0.5554
   14MOL   H10614692   1.141   5.078   3.609 -1.1011  1.4780  0.1781
   14MOL   H10714693   1.200   5.022   3.856 -0.0604  0.4276  0.9002
   14MOL   H10814694   1.227   5.183   3.807  0.0027 -0.1466 -1.2735
   14MOL   H10914695   0.982   5.111   3.979 -0.3023 -0.0358 -1.3233
   14MOL   H11014696   1.009   5.266   3.913  0.2765 -0.1706 -1.1396
   14MOL   H11114697   1.212   5.296   4.056 -1.4413  1.9298 -0.7600
   14MOL   H11214698   1.222   5.126   4.070 -0.0472 -0.7027 -2.4051
   14MOL   H11314699   0.991   5.263   4.191 -0.6493 -1.8430  0.2328
   14MOL   C11414700   1.125   5.182   4.324 -0.4909 -0.1408 -0.6209
   14MOL   O11514701   1.239   5.144   4.342  0.3206  0.3561 -0.5638
   14MOL   C11614702   1.013   5.173   4.429  0.5767  0.2646  0.6498
   14MOL   C11714703   1.008   5.295   4.518  0.5198  0.3380 -0.3715
   14MOL   C11814704   0.924   5.412   4.453  0.6340 -0.2323 -0.1389
   14MOL   C11914705   0.945   5.549   4.509 -0.1525 -0.2330 -0.5943
   14MOL   C12014706   1.069   5.625   4.473 -0.2137 -0.1205 -0.1756
   14MOL   C12114707   1.055   5.780   4.464 -0.4050 -0.0367  0.3253
   14MOL   C12214708   1.193   5.838   4.455  0.0364  0.0449 -0.5018
   14MOL   C12314709   1.202   5.987   4.458 -0.3471 -0.1170  0.0288
   14MOL   C12414710   1.352   6.039   4.467  0.1364 -0.6365 -0.0633
   14MOL   C12514711   1.374   6.176   4.530 -0.4589  0.2312 -0.3376
   14MOL   C12614712   1.366   6.160   4.682  0.1605 -0.5860 -0.0020
   14MOL   O12714713   1.455   6.102   4.740  0.1439 -0.0239  0.5634
   14MOL   N12814714   1.260   6.211   4.742 -0.2072 -0.7714 -0.0513
   14MOL   C12914715   1.243   6.218   4.881 -0.1316 -0.0869 -0.6993
   14MOL   C13014716   1.270   6.370   4.926 -0.6911 -0.2800 -0.1913
   14MOL   C13114717   1.231   6.385   5.077  0.1780 -0.0707 -0.1983
   14MOL   C13214718   1.242   6.534   5.121  0.3583 -0.4824 -0.6303
   14MOL   C13314719   1.162   6.573   5.252  0.2095 -0.5180  0.9707
   14MOL   C13414720   1.230   6.523   5.378  0.6452 -0.0814  0.2068
   14MOL   N13514721   1.175   6.582   5.502 -0.0365  0.3166 -0.3087
   14MOL   H13614722   0.919   5.144   4.383  1.3979 -0.0350 -0.8700
   14MOL   H13714723   1.041   5.084   4.486 -1.1608  0.8675  2.5178
   14MOL   H13814724   1.111   5.326   4.535 -0.0793  0.8027  2.8194
   14MOL   H13914725   0.974   5.266   4.618 -2.6148  0.3274 -1.3804
   14MOL   H14014726   0.957   5.430   4.351 -1.0132 -2.3620 -1.0923
   14MOL   H14114727   0.818   5.387   4.449 -0.3416  3.2894  1.7100
   14MOL   H14214728   0.853   5.604   4.484 -0.3744 -0.2093  0.2414
   14MOL   H14314729   0.928   5.545   4.617 -0.2830 -1.5484 -0.6588
   14MOL   H14414730   1.141   5.603   4.553 -1.7338 -1.8034  0.7716
   14MOL   H14514731   1.123   5.579   4.390  3.0179  0.1348  1.6720
   14MOL   H14614732   0.995   5.812   4.549 -0.5058 -2.4814  1.2216
   14MOL   H14714733   1.005   5.816   4.374  0.0033 -0.9984 -0.2986
   14MOL   H14814734   1.252   5.802   4.539 -0.9415 -2.5436 -0.8532
   14MOL   H14914735   1.250   5.807   4.367 -0.6382  1.0584 -1.3065
   14MOL   H15014736   1.141   6.027   4.539  0.5462  1.1372  0.0928
   14MOL   H15114737   1.173   6.029   4.361 -0.3744  0.4378  0.2760
   14MOL   H15214738   1.407   6.038   4.372 -2.1826 -0.1631 -1.4662
   14MOL   H15314739   1.405   5.965   4.526  1.2904  0.9297  0.8737
   14MOL   H15414740   1.306   6.246   4.482 -0.6262 -1.0340 -2.0035
   14MOL   H15514741   1.478   6.199   4.504 -0.4544  0.8473  0.2166
   14MOL   H15614742   1.192   6.256   4.682 -1.2144 -0.9531  0.9437
   14MOL   H15714743   1.321   6.160   4.930  2.1499  1.2979 -2.5560
   14MOL   H15814744   1.145   6.185   4.914 -0.3989 -1.3449 -2.7004
   14MOL   H15914745   1.206   6.435   4.867 -0.4019 -1.6233 -2.0463
   14MOL   H16014746   1.377   6.388   4.918 -0.7000 -0.2787 -0.3114
   14MOL   H16114747   1.130   6.347   5.095  0.3757 -0.8123 -0.6565
   14MOL   H16214748   1.294   6.315   5.131  0.1239 -2.8093 -3.5374
   14MOL   H16314749   1.346   6.565   5.129  0.0238  0.9020 -1.3801
   14MOL   H16414750   1.200   6.596   5.041 -2.9464 -0.7967  0.7897
   14MOL   H16514751   1.061   6.532   5.245 -0.0167  0.2479 -0.3926
   14MOL   H16614752   1.149   6.681   5.244  0.3317 -0.6477 -1.1603
   14MOL   H16714753   1.213   6.417   5.394 -0.5441 -0.0087 -0.5843
   14MOL   H16814754   1.337   6.545   5.376  0.2577  1.8678  0.3206
   14MOL   H16914755   1.232   6.661   5.529  0.6318 -0.6860  1.2576
   14MOL   C17014756   1.051   6.577   5.548 -0.1017 -0.3420  0.4287
   14MOL   O17114757   0.970   6.486   5.524  0.2662 -0.3050  0.3710
   14MOL   C17214758   1.007   6.698   5.632  0.3811  0.2627 -0.1566
   14MOL   C17314759   0.882   6.771   5.574 -0.3415  0.5572 -0.9412
   14MOL   C17414760   0.902   6.850   5.442  0.2699  1.0340 -0.4872
   14MOL   C17514761   0.820   6.806   5.320  0.3653  0.3889 -0.0014
   14MOL   C17614762   0.823   6.905   5.205 -0.7258 -0.2798 -0.5895
   14MOL   C17714763   0.792   6.845   5.068 -0.0109  0.4991  0.6611
   14MOL   C17814764   0.777   6.944   4.954 -0.3441 -0.2186 -0.8718
   14MOL   C17914765   0.743   6.884   4.820  0.9278  0.6041 -0.3622
   14MOL   C18014766   0.594   6.846   4.818 -0.4484 -0.5671  0.4939
   14MOL   C18114767   0.544   6.854   4.676 -0.0295 -0.7302  0.5895
   14MOL   C18214768   0.570   6.724   4.596 -0.7246 -0.1823  0.3767
   14MOL   O18314769   0.679   6.672   4.601 -1.2540  0.2712  0.7899
   14MOL   N18414770   0.470   6.674   4.521 -0.7221 -0.4399 -0.0710
   14MOL   C18514771   0.470   6.552   4.438  0.1448  0.6195 -0.0517
   14MOL   C18614772   0.494   6.418   4.517 -0.0766  0.2120 -0.7347
   14MOL   C18714773   0.408   6.385   4.640 -0.3323 -0.0606  0.2972
   14MOL   C18814774   0.450   6.256   4.706 -0.0927  0.0853 -0.5765
   14MOL   C18914775   0.358   6.213   4.824 -0.3181 -0.2510 -0.5573
   14MOL   C19014776   0.399   6.065   4.875  0.4524  0.2425 -0.4232
   14MOL   N19114777   0.324   6.031   4.989 -0.6949 -0.4110  0.1552
   14MOL   H19214778   0.977   6.663   5.731 -0.7269  0.0473 -0.5527
   14MOL   H19314779   1.092   6.765   5.644 -0.1487  0.5967  1.8568
   14MOL   H19414780   0.841   6.845   5.643 -0.9021 -0.3754 -0.2636
   14MOL   H19514781   0.798   6.701   5.570 -1.3537  1.7358 -0.9507
   14MOL   H19614782   1.007   6.857   5.413  0.8398 -2.4277  0.4610
   14MOL   H19714783   0.867   6.949   5.471 -3.2755 -0.5339  0.8878
   14MOL   H19814784   0.869   6.715   5.286 -1.5474 -0.4740 -0.5100
   14MOL   H19914785   0.719   6.784   5.353  0.8974 -1.5383  0.4128
   14MOL   H20014786   0.751   6.983   5.228  0.1518  0.3430  0.0703
   14MOL   H20114787   0.921   6.951   5.193 -1.2690  1.4565  1.4834
   14MOL   H20214788   0.696   6.794   5.063  0.4957 -0.3639 -0.2177
   14MOL   H20314789   0.856   6.760   5.048 -0.6769  0.3063 -0.7005
   14MOL   H20414790   0.708   7.024   4.980 -1.0584 -1.2151  0.3080
   14MOL   H20514791   0.872   6.998   4.959 -1.1232  1.0185  0.8467
   14MOL   H20614792   0.764   6.958   4.743 -1.2960 -0.3791 -1.9548
   14MOL   H20714793   0.800   6.798   4.784  1.6141  0.7660  0.3181
   14MOL   H20814794   0.535   6.924   4.865  0.3331 -0.9762  2.2024
   14MOL   H20914795   0.566   6.760   4.878  1.0641 -2.0603 -0.8741
   14MOL   H21014796   0.435   6.857   4.678 -0.0582 -1.5368  0.2907
   14MOL   H21114797   0.586   6.939   4.622 -1.5535  0.1427  0.7352
   14MOL   H21214798   0.394   6.742   4.521  0.3217  0.7493 -0.0968
   14MOL   H21314799   0.563   6.565   4.384  1.4047  1.0314  2.1408
   14MOL   H21414800   0.390   6.543   4.365  0.2606  1.1289 -0.2438
   14MOL   H21514801   0.457   6.336   4.456 -2.0945  0.2528  0.3895
   14MOL   H21614802   0.598   6.412   4.546  0.1406  3.6479 -0.6040
   14MOL   H21714803   0.420   6.471   4.705  0.5282  1.3365 -1.6398
   14MOL   H21814804   0.306   6.386   4.604 -0.0291 -0.4031 -0.5940
   14MOL   H21914805   0.551   6.277   4.743  0.4495 -2.7922 -0.3018
   14MOL   H22014806   0.455   6.178   4.630  0.6617  0.9497 -1.4227
   14MOL   H22114807   0.255   6.218   4.789  0.0961 -1.0962 -1.9291
   14MOL   H22214808   0.356   6.281   4.909 -1.5745 -0.1308 -0.6758
   14MOL   H22314809   0.506   6.065   4.896  0.4694  1.4690 -0.4872
   14MOL   H22414810   0.380   5.992   4.796 -0.1995  2.4027 -2.3028
   14MOL   H22514811   0.236   5.985   4.968  0.3688 -2.1523 -0.6536
   14MOL   C22614812   0.361   6.022   5.115  0.5726  0.4170 -0.1589
   14MOL   O22714813   0.477   6.040   5.150 -0.4685 -0.3732 -0.0498
   14MOL   C22814814   0.246   5.994   5.216 -0.3879 -0.1146 -0.1343
   14MOL   C22914815   0.254   6.054   5.361 -0.4776 -0.1805  0.9648
   14MOL   C23014816   0.273   6.206   5.368  0.2293 -0.5438  0.1382
   14MOL   C23114817   0.191   6.288   5.259 -0.3553 -0.4845 -0.0309
   14MOL   C23214818   0.220   6.442   5.276  0.7095  0.3428 -0.0848
   14MOL   C23314819   0.233   6.509   5.140 -0.9200 -0.3281 -0.9781
   14MOL   C23414820   0.249   6.663   5.155 -0.0366  0.0907  0.2121
   14MOL   C23514821   0.395   6.699   5.177 -0.8002  0.3323  0.2002
   14MOL   C23614822   0.422   6.846   5.178  0.7214  0.0771 -0.1669
   14MOL   C23714823   0.350   6.920   5.067 -0.0075  0.0304  0.1383
   14MOL   C23814824   0.389   7.072   5.052 -0.6705 -0.5747  0.2860
   14MOL   O23914825   0.460   7.132   5.130 -0.0274  0.0863 -0.3788
   14MOL   N24014826   0.344   7.127   4.942  0.1150 -0.2421 -0.2331
   14MOL   C24114827   0.350   7.269   4.919 -0.4533 -0.0763 -0.0153
   14MOL   C24214828   0.364   7.320   4.773  0.7722 -0.4856  0.3373
   14MOL   C24314829   0.290   7.239   4.668  0.5823  0.3599 -1.1789
   14MOL   C24414830   0.327   7.282   4.528  0.5497  0.2410 -0.4613
   14MOL   C24514831   0.273   7.173   4.427  0.1206  0.2650  0.0912
   14MOL   C24614832   0.329   7.162   4.286 -0.1168 -0.5834  0.9494
   14MOL   N24714833   0.280   7.044   4.219  0.7592  0.2071  0.1645
   14MOL   H24814834   0.277   5.890   5.219  0.8360  0.1760 -1.7729
   14MOL   H24914835   0.149   6.017   5.171 -0.9390  0.8760  1.5196
   14MOL   H25014836   0.168   6.016   5.415 -0.3907  1.2457  2.1547
   14MOL   H25114837   0.338   6.005   5.411 -1.5183 -1.1146  1.8116
   14MOL   H25214838   0.248   6.237   5.469 -1.9593 -0.4733 -0.3769
   14MOL   H25314839   0.379   6.218   5.350  0.1962 -0.2869  0.1103
   14MOL   H25414840   0.084   6.269   5.270  0.1557 -4.7125 -1.5366
   14MOL   H25514841   0.236   6.263   5.163 -2.4977 -1.3245 -0.8524
   14MOL   H25614842   0.307   6.471   5.335  0.0798  0.0727  0.9893
   14MOL   H25714843   0.134   6.491   5.322 -1.7996 -1.8751 -2.2094
   14MOL   H25814844   0.322   6.467   5.095  0.0744  0.0304  0.6185
   14MOL   H25914845   0.145   6.490   5.078 -0.5528  0.2618 -1.7025
   14MOL   H26014846   0.183   6.701   5.233  0.6909  2.3137 -0.2048
   14MOL   H26114847   0.209   6.707   5.064 -0.2859  2.1440  1.2731
   14MOL   H26214848   0.440   6.642   5.258 -0.9875 -1.2361 -0.7983
   14MOL   H26314849   0.442   6.663   5.086  0.7629  1.4804  0.5423
   14MOL   H26414850   0.391   6.878   5.278 -2.0435 -0.7541 -0.6989
   14MOL   H26514851   0.529   6.867   5.178  0.5895  0.8142 -1.0540
   14MOL   H26614852   0.359   6.869   4.971 -0.9467  1.8808 -0.9713
   14MOL   H26714853   0.245   6.924   5.098 -0.0297 -2.2703  0.4350
   14MOL   H26814854   0.272   7.068   4.902 -0.3367 -1.1161  1.8098
   14MOL   H26914855   0.429   7.309   4.982  0.5825 -0.4858 -1.0616
   14MOL   H27014856   0.258   7.310   4.962  0.7374 -1.0498  3.6463
   14MOL   H27114857   0.469   7.343   4.753  0.2242  0.9713 -0.9625
   14MOL   H27214858   0.306   7.413   4.776 -0.7104 -1.4185  1.8724
   14MOL   H27314859   0.303   7.132   4.687 -1.5855  0.2630 -0.1606
   14MOL   H27414860   0.186   7.268   4.683  1.1991  1.3306  1.4683
   14MOL   H27514861   0.435   7.287   4.515  0.5868  1.0463  0.0621
   14MOL   H27614862   0.290   7.382   4.505 -2.1153 -0.6066  0.0161
   14MOL   H27714863   0.165   7.188   4.415  0.2437  1.8258  0.8787
   14MOL   H27814864   0.283   7.075   4.474 -0.7153  0.0022 -0.2601
   14MOL   H27914865   0.438   7.166   4.288 -0.1471  0.2354  1.1213
   14MOL   H28014866   0.302   7.247   4.224  1.2897 -1.1648 -0.4821
   14MOL   H28114867   0.215   7.063   4.144  1.4838  2.2824  0.0447
   14MOL   C28214868   0.315   6.923   4.252 -0.1367 -0.2369  0.2299
   14MOL   O28314869   0.393   6.895   4.342 -0.0063 -0.4432 -0.1404
   14MOL   C28414870   0.248   6.810   4.160 -0.3943  0.1730 -0.1762
   14MOL   C28514871   0.345   6.767   4.047 -0.3402  0.6841  0.2149
   14MOL   C28614872   0.298   6.641   3.978 -0.1819 -0.0778 -0.2246
   14MOL   C28714873   0.397   6.573   3.892 -0.0742  0.1498  0.2878
   14MOL   C28814874   0.327   6.478   3.795  0.8947  0.2790  0.2311
   14MOL   C28914875   0.424   6.420   3.699  0.0457 -0.0020 -0.0721
   14MOL   C29014876   0.446   6.502   3.570  0.1860  0.1656 -0.7931
   14MOL   C29114877   0.565   6.461   3.489 -0.3794 -0.4940  0.5661
   14MOL   C29214878   0.602   6.564   3.384 -0.8090 -0.0246 -0.2556
   14MOL   C29314879   0.736   6.514   3.320 -0.0324 -0.1729 -0.2983
   14MOL   C29414880   0.748   6.575   3.176  0.1366  1.2002  0.3471
   14MOL   O29514881   0.691   6.526   3.080  0.0749 -0.2512 -0.4744
   14MOL   N29614882   0.825   6.686   3.164 -0.6466 -0.3176 -0.2947
   14MOL   C29714883   0.847   6.766   3.043  0.1026 -0.6770  0.4070
   14MOL   C29814884   0.756   6.888   3.042 -0.3144 -0.0392  0.1971
   14MOL   C29914885   0.610   6.839   3.027  0.2201  0.8443  0.1079
   14MOL   C30014886   0.515   6.956   3.008  0.0620  0.3251  0.2050
   14MOL   C30114887   0.371   6.911   2.998 -0.0883  0.1290 -0.3062
   14MOL   C30214888   0.273   7.026   3.000  0.1369  0.8611 -0.4051
   14MOL   N30314889   0.140   6.980   3.020  0.2080 -0.1718 -0.4390
   14MOL   H30414890   0.227   6.722   4.221  1.6838  1.7058  2.8619
   14MOL   H30514891   0.150   6.843   4.126 -1.4126 -0.5585  1.9098
   14MOL   H30614892   0.443   6.745   4.090  0.4171  0.3975 -1.6114
   14MOL   H30714893   0.353   6.851   3.978 -0.0221 -0.3100 -0.9893
   14MOL   H30814894   0.250   6.566   4.041  0.7259 -0.5739 -0.1177
   14MOL   H30914895   0.215   6.669   3.913 -0.0795  1.3932  0.2630
   14MOL   H31014896   0.478   6.530   3.951 -0.2115  0.6520  0.8566
   14MOL   H31114897   0.451   6.643   3.829 -0.5392  0.5320  0.3120
   14MOL   H31214898   0.289   6.406   3.868 -1.1415  3.0038  1.9465
   14MOL   H31314899   0.237   6.516   3.747  0.8892  1.2021  0.9617
   14MOL   H31414900   0.518   6.414   3.754 -0.9278  0.9691  1.7399
   14MOL   H31514901   0.404   6.315   3.674  1.8596 -0.5782  0.8240
   14MOL   H31614902   0.457   6.608   3.589 -2.7164  0.5337 -0.9774
   14MOL   H31714903   0.358   6.492   3.507  0.1439 -0.1976 -0.6771
   14MOL   H31814904   0.552   6.367   3.435  1.8260  0.5236 -1.8023
   14MOL   H31914905   0.653   6.440   3.550 -0.1823 -1.0820  0.0836
   14MOL   H32014906   0.530   6.578   3.302  0.5571  1.0690 -1.2924
   14MOL   H32114907   0.621   6.664   3.423  0.2499 -1.2375  2.4735
   14MOL   H32214908   0.824   6.531   3.383  1.5482  1.0271 -2.7375
   14MOL   H32314909   0.734   6.407   3.301 -0.2655  0.0440 -1.4935
   14MOL   H32414910   0.872   6.721   3.246  0.1012  3.5351 -2.2562
   14MOL   H32514911   0.834   6.698   2.958  0.1146  1.4432 -1.3366
   14MOL   H32614912   0.952   6.788   3.024  0.2090 -1.5021 -0.0123
   14MOL   H32714913   0.786   6.950   2.957 -0.4113  0.7535  0.7342
   14MOL   H32814914   0.762   6.946   3.134 -0.3277  1.4026 -0.6958
   14MOL   H32914915   0.582   6.789   3.120  1.3671 -0.8759 -0.4560
   14MOL   H33014916   0.594   6.764   2.950  0.5845  1.2861 -0.4057
   14MOL   H33114917   0.523   7.015   3.099 -2.1577  2.6939 -1.0719
   14MOL   H33214918   0.543   7.014   2.921 -1.2493 -2.0261 -1.8580
   14MOL   H33314919   0.344   6.845   3.081 -0.0930  1.1312  0.4960
   14MOL   H33414920   0.358   6.848   2.909  0.3173 -0.1007 -0.2036
   14MOL   H33514921   0.296   7.097   3.079 -0.2844 -1.0392  1.4527
   14MOL   H33614922   0.277   7.084   2.908  0.7357  1.9010  0.2677
   14MOL   H33714923   0.132   6.884   2.990  0.7272 -0.7113  1.1064
   14MOL   C33814924   0.030   7.054   3.044  0.5066  0.0289  0.1129
   14MOL   O33914925   0.040   7.175   3.043 -0.6176  0.3155  0.8527
   14MOL   C34014926   7.587   6.983   3.064 -0.4720  0.1770 -0.6566
   14MOL   C34114927   7.520   7.008   3.202  0.0895  0.5148  0.4105
   14MOL   C34214928   7.434   7.134   3.209  0.4192 -0.1517 -0.1845
   14MOL   C34314929   7.391   7.163   3.354  0.2348  0.2203  0.3915
   14MOL   C34414930   7.512   7.207   3.442  0.2183  0.5658 -0.6459
   14MOL   C34514931   7.471   7.246   3.584 -0.2843  0.5103  0.1686
   14MOL   C34614932   7.406   7.387   3.578  0.9065  0.6591 -0.8180
   14MOL   C34714933   7.396   7.454   3.717 -0.0503  0.4192  0.3349
   14MOL   C34814934   7.315   7.581   3.719  0.1199  0.6788 -0.9163
   14MOL   C34914935   7.366   0.011   3.642  0.2661 -0.2077  0.3962
   14MOL   C35014936   7.274   0.137   3.656  0.5031 -0.8206  0.6090
   14MOL   O35114937   7.153   0.120   3.686  0.8448 -0.2352  0.5750
   14MOL   N35214938   7.323   0.260   3.626 -0.2226  0.3289 -0.2929
   14MOL   C35314939   7.259   0.392   3.640  0.4335  0.4170 -0.1486
   14MOL   C35414940   7.280   0.452   3.782 -0.2198  0.0195  0.1990
   14MOL   C35514941   7.261   0.603   3.788 -0.1458  0.3264  0.3562
   14MOL   C35614942   7.122   0.664   3.752  0.4475  0.4578  0.5518
   14MOL   C35714943   7.005   0.602   3.826  0.6149 -0.5168  0.7553
   14MOL   C35814944   6.973   0.677   3.960 -0.2567 -0.1587 -0.5173
   14MOL   N35914945   6.850   0.617   4.010 -0.0439  1.1483 -0.2819
   14MOL   H36014946   7.607   6.878   3.046 -2.1837 -0.6184  1.8925
   14MOL   H36114947   7.509   7.005   2.991 -1.3065  0.0681  0.1977
   14MOL   H36214948   7.448   6.926   3.208 -2.1720  2.2977 -1.1734
   14MOL   H36314949   7.589   7.000   3.285  1.1990  0.2714 -0.5146
   14MOL   H36414950   7.342   7.129   3.151 -0.3556 -0.4608  1.0584
   14MOL   H36514951   7.488   7.223   3.178  0.5425  0.5021  1.8058
   14MOL   H36614952   7.322   7.247   3.347  0.0028  0.0070  0.0728
   14MOL   H36714953   7.331   7.077   3.385 -2.7287  1.7793 -0.7567
   14MOL   H36814954   7.580   7.123   3.447  0.4232  0.7157 -0.8799
   14MOL   H36914955   7.575   7.287   3.404  1.8738 -0.5567 -0.2826
   14MOL   H37014956   7.404   7.169   3.622  0.9141 -0.2561  0.7635
   14MOL   H37114957   7.551   7.249   3.658 -0.6865  0.1947  0.6137
   14MOL   H37214958   7.447   7.454   3.503  0.9161  0.9667 -0.5419
   14MOL   H37314959   7.309   7.366   3.533  0.8267  0.0503 -0.3653
   14MOL   H37414960   7.338   7.392   3.785  1.0393  0.3204  1.1958
   14MOL   H37514961   7.493   7.454   3.767  1.5760 -2.3983 -2.6726
   14MOL   H37614962   7.312   7.605   3.826  0.0571  2.2677 -1.2584
   14MOL   H37714963   7.220   7.560   3.672  0.2095 -1.2230 -0.2730
   14MOL   H37814964   7.461   0.051   3.678 -1.0234  0.4273  3.2081
   14MOL   H37914965   7.372   7.685   3.535  1.3403  0.3761  0.3494
   14MOL   H38014966   7.420   0.267   3.599 -0.6890  2.6666 -1.4701
   14MOL   H38114967   7.151   0.378   3.640  0.7801 -2.6560  0.8215
   14MOL   H38214968   7.301   0.468   3.574  0.8311  0.0428 -0.3356
   14MOL   H38314969   7.384   0.428   3.808  0.1734  0.5478 -0.8673
   14MOL   H38414970   7.223   0.396   3.856  1.6838 -2.1601  0.0939
   14MOL   H38514971   7.279   0.633   3.891 -0.9319  0.2215  0.5289
   14MOL   H38614972   7.332   0.652   3.722 -0.0118  0.4010  0.5564
   14MOL   H38714973   7.125   0.770   3.779 -1.3161  0.4948  0.6797
   14MOL   H38814974   7.102   0.659   3.645  2.8111 -0.5595  0.1397
   14MOL   H38914975   7.038   0.504   3.861  0.9105 -0.1414  1.5424
   14MOL   H39014976   6.916   0.606   3.764  1.3512 -0.1164 -0.2913
   14MOL   H39114977   7.059   0.650   4.021  0.1701 -2.0605 -1.9163
   14MOL   H39214978   6.954   0.783   3.940 -0.4549  0.0480  0.7227
   14MOL   H39314979   6.777   0.606   3.941 -2.2183  0.8270  2.0379
   14MOL   C39414980   6.811   0.593   4.136 -0.0051 -0.5205  0.2047
   14MOL   O39514981   6.876   0.630   4.237 -0.3897  0.1988  0.1059
   14MOL   C39614982   6.680   0.515   4.152 -0.8835 -0.2947  0.6270
   14MOL   C39714983   6.617   0.516   4.289 -0.2343 -0.1100  0.3774
   14MOL   C39814984   6.555   0.654   4.330 -1.1653  0.2344 -0.2232
   14MOL   C39914985   6.418   0.652   4.402 -0.6584  0.1124 -0.7409
   14MOL   C40014986   6.393   0.798   4.461 -0.5435 -0.2325 -1.2624
   14MOL   C40114987   6.247   0.805   4.506  0.2307 -0.1552 -0.2308
   14MOL   C40214988   6.204   0.941   4.560 -0.0505  1.0048 -0.0394
   14MOL   C40314989   6.062   0.941   4.616 -0.1123 -0.1958 -0.6877
   14MOL   C40414990   6.018   1.069   4.685  0.2504  0.8206 -0.3480
   14MOL   C40514991   5.956   1.172   4.593  0.2996  0.0556  0.2460
   14MOL   C40614992   5.911   1.305   4.663  0.1459 -0.2940  0.4296
   14MOL   O40714993   5.859   1.302   4.772  0.3436 -0.1508  0.0049
   14MOL   N40814994   5.947   1.420   4.605  0.2203  0.5870 -0.1148
   14MOL   C40914995   5.933   1.547   4.657 -0.4655  0.4703 -0.4635
   14MOL   C41014996   5.995   1.651   4.570 -0.5079  0.3283 -0.3169
   14MOL   C41114997   5.986   1.787   4.642 -0.0546  0.6103 -0.0504
   14MOL   C41214998   6.086   1.798   4.752  0.3655 -0.1804 -0.7292
   14MOL   C41314999   6.097   1.939   4.806  0.4884 -0.1742 -0.2967
   14MOL   C41415000   6.196   1.943   4.927 -0.0399  0.0474  0.1658
   14MOL   N41515001   6.212   2.077   4.986  1.1105 -0.2469 -0.4441
   14MOL   H41615002   6.703   0.411   4.128  1.8103  0.8407 -2.0739
   14MOL   H41715003   6.603   0.551   4.084 -0.0282  0.6298  0.1407
   14MOL   H41815004   6.684   0.483   4.368 -0.4731  2.1477  1.5572
   14MOL   H41915005   6.553   0.430   4.275  0.0966  0.0719 -2.7143
   14MOL   H42015006   6.536   0.709   4.238 -1.9132  0.2160 -0.0843
   14MOL   H42115007   6.628   0.721   4.376  0.3375 -1.0565 -0.6799
   14MOL   H42215008   6.413   0.578   4.482 -0.8926 -0.3710 -1.2029
   14MOL   H42315009   6.336   0.626   4.335 -0.8998 -1.4546  0.1459
   14MOL   H42415010   6.465   0.812   4.543 -4.1656 -0.0108  2.0146
   14MOL   H42515011   6.417   0.877   4.390  0.5624  0.3359 -0.2800
   14MOL   H42615012   6.171   0.767   4.438 -0.1657  3.1069 -1.6668
   14MOL   H42715013   6.230   0.733   4.587 -1.3705  2.2956  1.6772
   14MOL   H42815014   6.278   0.983   4.628 -0.6077  0.1776  1.0819
   14MOL   H42915015   6.211   1.007   4.473  1.8197 -1.2208 -1.6360
   14MOL   H43015016   5.997   0.915   4.533 -0.8867 -1.1061  0.1839
   14MOL   H43115017   6.066   0.864   4.694  1.7988  1.5427  0.9963
   14MOL   H43215018   6.104   1.099   4.746 -0.6158  1.6106  0.5163
   14MOL   H43315019   5.935   1.039   4.749 -1.2454  1.5878 -1.9030
   14MOL   H43415020   6.026   1.193   4.512 -0.4315 -1.2616 -0.7296
   14MOL   H43515021   5.872   1.128   4.540 -0.1780  0.3470  0.7610
   14MOL   H43615022   5.997   1.415   4.518  0.4221 -2.1104  0.0913
   14MOL   H43715023   5.972   1.562   4.758  1.5994 -1.6322 -0.9344
   14MOL   H43815024   5.824   1.559   4.664 -0.3503  0.7873  1.1546
   14MOL   H43915025   5.935   1.663   4.479  1.5728  1.6784 -1.5568
   14MOL   H44015026   6.093   1.615   4.540 -0.0633  0.8196  0.5389
   14MOL   H44115027   6.001   1.869   4.571 -1.8465  0.5397 -0.5366
   14MOL   H44215028   5.885   1.807   4.676 -0.7803 -1.2648 -1.0511
   14MOL   H44315029   6.064   1.729   4.834 -0.5438 -1.0092 -1.6573
   14MOL   H44415030   6.183   1.768   4.713 -0.7780 -0.1568 -3.7259
   14MOL   H44515031   6.132   2.014   4.734  2.8311  0.4470  1.4323
   14MOL   H44615032   6.002   1.980   4.839  1.5455  1.5150  0.7149
   14MOL   H44715033   6.153   1.879   5.004  2.3559  0.2908  1.7726
   14MOL   H44815034   6.293   1.904   4.895 -1.9239 -3.8631 -1.0896
   14MOL   H44915035   6.189   2.153   4.924 -0.4383  0.2953  0.7657
   14MOL   C45015036   6.231   2.112   5.114  0.1252 -0.2924 -0.1750
   14MOL   O45115037   6.242   2.025   5.203  0.4439  0.0358  0.3211
   14MOL   C45215038   6.251   2.267   5.143 -0.1174 -0.0712 -0.9829
   14MOL   C45315039   6.213   2.303   5.290  1.0113 -0.5732 -1.0898
   14MOL   C45415040   6.064   2.307   5.316  0.0792  0.8489  0.0026
   14MOL   C45515041   5.983   2.387   5.219 -0.4516  0.6554  0.4367
   14MOL   C45615042   5.826   2.369   5.229  0.2386  0.6088  0.3409
   14MOL   C45715043   5.746   2.491   5.194  0.4497 -0.3322  0.0972
   14MOL   C45815044   5.598   2.464   5.150 -0.7399  0.2155 -0.0043
   14MOL   C45915045   5.540   2.591   5.086  0.6861  0.9816  0.4503
   14MOL   C46015046   5.388   2.586   5.075 -0.2847 -0.2032  0.3185
   14MOL   C46115047   5.327   2.703   4.989 -0.0913 -0.2639  0.8939
   14MOL   C46215048   5.176   2.715   4.993  0.5800  0.1838 -0.8706
   14MOL   O46315049   5.114   2.634   5.060  0.7044 -0.2858  0.3180
   14MOL   N46415050   5.117   2.814   4.930 -0.0470 -0.7236 -0.2256
   14MOL   C46515051   4.974   2.847   4.926 -0.0836 -0.2814 -0.4194
   14MOL   C46615052   4.885   2.739   4.870 -0.1206  0.0222  0.5814
   14MOL   C46715053   4.730   2.759   4.871 -1.0936 -0.5635  0.6552
   14MOL   C46815054   4.652   2.638   4.805 -0.0966  0.0401 -0.8325
   14MOL   C46915055   4.603   2.524   4.894  0.2933 -0.2495  0.8663
   14MOL   C47015056   4.498   2.433   4.828  0.3035 -0.3409 -0.5481
   14MOL   N47115057   4.439   2.341   4.924 -0.3001 -0.0823  0.1519
   14MOL   H47215058   6.356   2.288   5.121  0.3877 -1.3162  0.1857
   14MOL   H47315059   6.202   2.323   5.064  0.1624 -0.9842 -1.8149
   14MOL   H47415060   6.252   2.401   5.314  1.0601 -0.9477  0.3937
   14MOL   H47515061   6.264   2.234   5.356 -1.0440  0.0661  1.2649
   14MOL   H47615062   6.035   2.342   5.415  0.3025  1.4895 -0.1527
   14MOL   H47715063   6.029   2.204   5.322  0.2142  0.8740  1.2938
   14MOL   H47815064   6.018   2.381   5.116 -0.4017 -2.0650  0.5841
   14MOL   H47915065   5.988   2.491   5.251 -0.1903  1.1461 -1.1522
   14MOL   H48015066   5.798   2.352   5.333  1.7192 -2.1253  0.3418
   14MOL   H48115067   5.797   2.290   5.160  1.0855  0.8479 -0.2868
   14MOL   H48215068   5.795   2.539   5.109  1.9885 -0.1013  1.0975
   14MOL   H48315069   5.748   2.565   5.274 -3.5149 -0.2379  0.2434
   14MOL   H48415070   5.584   2.390   5.070 -1.5889 -1.3182  1.5398
   14MOL   H48515071   5.535   2.431   5.233 -0.6428 -0.1931 -0.0911
   14MOL   H48615072   5.565   2.673   5.153  0.0742  0.7671  0.9526
   14MOL   H48715073   5.592   2.612   4.993  1.5586 -0.1994  0.6621
   14MOL   H48815074   5.335   2.585   5.171  0.4410  0.9573  0.7353
   14MOL   H48915075   5.359   2.494   5.023 -2.0596  0.4164  0.1978
   14MOL   H49015076   5.376   2.796   5.015 -0.0094  0.1999 -0.8392
   14MOL   H49115077   5.362   2.688   4.886 -1.0067 -0.5016  0.6096
   14MOL   H49215078   5.176   2.869   4.869  1.3787 -1.6948  0.2450
   14MOL   H49315079   4.973   2.940   4.868  0.1428  0.4463  0.7190
   14MOL   H49415080   4.935   2.876   5.024 -0.9550 -0.4928 -0.6997
   14MOL   H49515081   4.912   2.719   4.767  0.2466  2.1086  0.2557
   14MOL   H49615082   4.896   2.644   4.922  0.5272 -1.7476 -2.6968
   14MOL   H49715083   4.705   2.846   4.810  2.4051 -1.5357 -2.3336
   14MOL   H49815084   4.674   2.776   4.963 -0.7613  0.1068  0.7339
   14MOL   H49915085   4.702   2.582   4.727  1.7903  0.6286 -0.0823
   14MOL   H50015086   4.568   2.684   4.753  0.8772  1.5614 -1.0928
   14MOL   H50115087   4.689   2.464   4.924  0.6116 -1.1593 -1.7453
   14MOL   H50215088   4.564   2.570   4.985  0.8637  3.0948 -0.5167
   14MOL   H50315089   4.422   2.503   4.792  0.8812  0.2941 -0.5548
   14MOL   H50415090   4.535   2.370   4.747 -1.4160 -2.3430  0.1780
   14MOL   H50515091   4.349   2.372   4.958 -1.3020  0.2302 -2.6690
   14MOL   C50615092   4.485   2.224   4.965 -0.3985 -0.3959 -0.2101
   14MOL   O50715093   4.596   2.174   4.939 -0.2834  0.6662 -0.2138
   14MOL   C50815094   4.386   2.141   5.047  0.3373 -0.4436 -0.1756
   14MOL   C50915095   4.443   2.109   5.190  0.1362 -0.1184  0.1620
   14MOL   C51015096   4.342   2.061   5.292  0.0121 -0.3942  0.3333
   14MOL   C51115097   4.398   2.010   5.424 -0.2346  0.5426 -0.0019
   14MOL   C51215098   4.439   2.120   5.528 -0.7101 -0.1768  0.1952
   14MOL   C51315099   4.592   2.149   5.519  0.4777  0.8391 -0.4503
   14MOL   C51415100   4.627   2.249   5.633 -0.2454  0.3898  0.6278
   14MOL   C51515101   4.777   2.291   5.651 -0.7276  0.0003 -0.7407
   14MOL   C51615102   4.801   2.368   5.774  0.3379 -0.4484 -0.1863
   14MOL   C51715103   4.945   2.396   5.816 -0.0171 -0.6333 -0.4701
   14MOL   C51815104   4.971   2.496   5.929 -0.2948 -0.2082  0.0227
   14MOL   O51915105   4.904   2.599   5.938 -0.5643  0.3594  0.3918
   14MOL   N52015106   5.077   2.473   6.014 -0.2139  0.1916  0.0908
   14MOL   C52115107   5.128   2.550   6.128  0.1866 -0.0347 -0.6199
   14MOL   C52215108   5.150   2.700   6.092 -0.2001  0.1712 -0.2404
   14MOL   C52315109   5.215   2.795   6.198 -0.1215  0.7467  0.1882
   14MOL   C52415110   5.147   2.794   6.327  0.8026  0.5573 -0.0245
   14MOL   C52515111   5.189   2.891   6.446  0.0572  0.5987  0.0797
   14MOL   C52615112   5.087   2.868   6.560  0.2536  0.3135  0.4440
   14MOL   N52715113   5.103   2.958   6.673  0.4172  0.4393  0.1012
   14MOL   H52815114   4.357   2.057   4.983 -3.1735  1.4485 -1.2166
   14MOL   H52915115   4.297   2.203   5.060  1.1852  0.5324  1.0705
   14MOL   H53015116   4.494   2.196   5.233 -1.4270  0.9062 -0.0090
   14MOL   H53115117   4.520   2.031   5.189  2.4871  2.0920  1.2368
   14MOL   H53215118   4.291   1.979   5.241 -3.2248  1.9156 -0.3068
   14MOL   H53315119   4.261   2.130   5.316 -1.9408 -1.8400 -1.8948
   14MOL   H53415120   4.319   1.952   5.471 -0.0375 -0.2196 -0.5952
   14MOL   H53515121   4.482   1.944   5.401  0.5689  2.1175 -1.7187
   14MOL   H53615122   4.387   2.214   5.511  0.4005  0.4896  0.4167
   14MOL   H53715123   4.413   2.086   5.628  0.2614  1.6446  1.0731
   14MOL   H53815124   4.647   2.055   5.517 -0.1783  0.4523 -0.1230
   14MOL   H53915125   4.632   2.187   5.425  3.3014  2.6150  1.3763
   14MOL   H54015126   4.569   2.339   5.615 -1.8720 -0.8920 -0.6823
   14MOL   H54115127   4.597   2.199   5.724  0.1066  0.3246  0.7107
   14MOL   H54215128   4.832   2.197   5.658  0.3369  0.7955  1.8648
   14MOL   H54315129   4.818   2.334   5.560  1.8400 -1.1823 -0.1904
   14MOL   H54415130   4.763   2.309   5.857 -0.2039  1.0298  0.6461
   14MOL   H54515131   4.746   2.462   5.783  0.9976 -0.3194  2.7164
   14MOL   H54615132   4.982   2.300   5.854 -1.4218 -1.0876 -0.2145
   14MOL   H54715133   5.007   2.442   5.739  1.9304 -1.8551  0.3259
   14MOL   H54815134   5.128   2.391   5.987 -0.2310  0.4075 -0.6165
   14MOL   H54915135   5.213   2.498   6.173  1.3548  2.6011  0.2796
   14MOL   H55015136   5.044   2.554   6.198 -0.1554  0.0480 -1.0294
   14MOL   H55115137   5.047   2.734   6.084 -0.1690 -0.1003 -1.9972
   14MOL   H55215138   5.203   2.698   5.997  0.5264  0.3726  0.1577
   14MOL   H55315139   5.208   2.898   6.161  3.5686  1.5557  1.5125
   14MOL   H55415140   5.318   2.764   6.213 -0.3575 -0.8516 -1.4109
   14MOL   H55515141   5.150   2.693   6.370  2.4327  1.2475  1.5935
   14MOL   H55615142   5.041   2.810   6.308  0.9372  1.4189 -0.0831
   14MOL   H55715143   5.290   2.870   6.483  0.3064  0.2901 -0.7602
   14MOL   H55815144   5.183   2.991   6.404  2.6541  2.5576  4.0640
   14MOL   H55915145   4.987   2.859   6.517  0.3736  1.9866 -0.1964
   14MOL   H56015146   5.105   2.771   6.607  0.1328  0.4053  0.6792
   14MOL   H56115147   5.159   3.041   6.662  0.1285  1.0363  2.6496
   14MOL   C56215148   5.015   2.963   6.776 -0.3606 -0.5588 -0.1475
   14MOL   O56315149   4.923   2.880   6.780  0.1087 -0.1515  0.6499
   14MOL   C56415150   5.042   3.066   6.894  0.5282  0.3877  0.3784
   14MOL   C56515151   5.048   3.003   7.042  1.1171  0.2905  1.0415
   14MOL   C56615152   5.152   2.897   7.041 -0.6235  0.6861 -0.2708
   14MOL   C56715153   5.187   2.829   7.173 -0.0019 -0.8171 -0.3785
   14MOL   C56815154   5.076   2.751   7.243 -0.8179  0.1983 -0.2966
   14MOL   C56915155   5.016   2.636   7.153  0.1469  0.3271 -0.3802
   14MOL   C57015156   4.906   2.545   7.222 -0.1463 -0.3166 -0.1198
   14MOL   C57115157   4.774   2.614   7.224  0.2410  0.5397 -0.4808
   14MOL   C57215158   4.676   2.591   7.106 -0.0119  0.2695  0.0493
   14MOL   C57315159   4.729   2.639   6.966 -0.1242 -0.4745 -0.0976
   14MOL   C57415160   4.819   2.534   6.893 -0.0617 -0.3081  0.3868
   14MOL   O57515161   4.794   2.415   6.910  0.2206 -0.5189 -0.0993
   14MOL   N57615162   4.926   2.583   6.826  0.4222 -0.6311 -0.5451
   14MOL   C57715163   5.034   2.495   6.782 -0.0177 -0.2833  0.1125
   14MOL   C57815164   5.017   2.470   6.631 -0.0495 -0.1195 -0.4093
   14MOL   C57915165   5.109   2.355   6.592  0.0872 -0.3829 -0.2777
   14MOL   C58015166   5.101   2.320   6.445 -0.3531  0.3703 -0.1723
   14MOL   C58115167   5.184   2.204   6.415  0.7902  0.1768 -0.2333
   14MOL   C58215168   5.193   2.173   6.259 -0.2044 -0.0135 -0.4838
   14MOL   N58315169   5.269   2.049   6.241 -0.2286 -0.0336  0.7849
   14MOL   H58415170   5.119   3.138   6.868  0.8419  0.4645  1.4948
   14MOL   H58515171   4.967   3.145   6.885  0.7549  0.7305  1.4674
   14MOL   H58615172   5.062   3.086   7.111 -1.7878 -0.1028  2.1817
   14MOL   H58715173   4.952   2.959   7.070  1.4101 -0.3549  1.0311
   14MOL   H58815174   5.239   2.949   7.002  0.5715  0.3517  1.9055
   14MOL   H58915175   5.126   2.815   6.973 -0.2000 -1.2129  1.8116
   14MOL   H59015176   5.258   2.754   7.141  0.5552 -0.7559  0.6751
   14MOL   H59115177   5.232   2.897   7.246  0.3048 -0.3654 -0.9751
   14MOL   H59215178   5.109   2.704   7.336  1.3787  3.6657  0.7607
   14MOL   H59315179   4.995   2.818   7.270 -0.3819  1.2594 -1.5693
   14MOL   H59415180   4.974   2.684   7.065  0.5937  2.2878  0.4412
   14MOL   H59515181   5.100   2.577   7.117 -2.6894 -2.3749 -2.8389
   14MOL   H59615182   4.907   2.450   7.170 -1.9798  0.3290 -1.3892
   14MOL   H59715183   4.939   2.527   7.325 -0.5661 -0.1696  0.0404
   14MOL   H59815184   4.783   2.717   7.256 -0.5897  0.7718 -0.9639
   14MOL   H59915185   4.724   2.575   7.313  2.1203  0.5552  0.6068
   14MOL   H60015186   4.576   2.626   7.134 -0.2718  0.3503 -0.9634
   14MOL   H60115187   4.666   2.483   7.104 -0.6952  0.3412 -0.8914
   14MOL   H60215188   4.636   2.651   6.910 -1.0076 -0.6719  1.3167
   14MOL   H60315189   4.778   2.736   6.976  1.5013 -1.2361 -0.4908
   14MOL   H60415190   4.942   2.682   6.816  0.5707 -0.6469 -0.4538
   14MOL   H60515191   5.032   2.402   6.839  2.0600 -1.4362 -1.6115
   14MOL   H60615192   5.132   2.540   6.800  0.1420 -1.0109  1.1057
   14MOL   H60715193   5.037   2.559   6.571 -1.7347  0.1725 -0.5614
   14MOL   H60815194   4.916   2.437   6.608  0.0633 -1.2217  0.6403
   14MOL   H60915195   5.087   2.265   6.651 -0.4967  0.8069  1.3695
   14MOL   H61015196   5.212   2.382   6.616 -0.4206  1.1417  0.2075
   14MOL   H61115197   4.995   2.309   6.422 -0.4146  0.1588  0.2028
   14MOL   H61215198   5.130   2.405   6.384 -2.0831 -0.0466 -1.5843
   14MOL   H61315199   5.144   2.116   6.466 -1.3070  2.1038  1.5766
   14MOL   H61415200   5.286   2.214   6.452  0.3145 -2.4849  1.9817
   14MOL   H61515201   5.095   2.172   6.213 -0.5051 -0.6730  0.1664
   14MOL   H61615202   5.244   2.255   6.208  0.3225 -0.6472 -0.9838
   14MOL   H61715203   5.359   2.052   6.196 -0.0234 -1.8668  1.0405
   14MOL   C61815204   5.221   1.927   6.277 -0.1541  0.3260 -0.5078
   14MOL   O61915205   5.110   1.908   6.319 -0.1625  0.2783  0.0769
   14MOL   C62015206   5.319   1.815   6.251  0.0096 -0.3563  0.2623
   14MOL   C62115207   5.334   1.722   6.368 -0.3469  0.1137  0.2912
   14MOL   C62215208   5.211   1.633   6.394  0.3142  0.0583  0.2659
   14MOL   C62315209   5.216   1.528   6.504  0.0827 -0.7328  0.1908
   14MOL   C62415210   5.109   1.425   6.491  0.2152  0.6133 -0.5539
   14MOL   C62515211   4.967   1.471   6.509 -0.7849  0.6024  0.6280
   14MOL   C62615212   4.856   1.365   6.492  0.0310 -0.4084  0.2415
   14MOL   C62715213   4.719   1.430   6.510 -0.8004  0.6527  0.3754
   14MOL   C62815214   4.602   1.330   6.524  0.6673  0.4613 -0.3882
   14MOL   C62915215   4.460   1.394   6.530  0.5381 -0.2763  0.0733
   14MOL   C63015216   4.443   1.507   6.630 -0.3738 -0.4205 -0.2412
   14MOL   O63115217   4.455   1.475   6.747 -0.2867 -0.4334  0.3212
   14MOL   N63215218   4.411   1.632   6.590  0.9622 -0.0347  0.6236
   14MOL   C63315219   4.393   1.742   6.685  0.7566  0.4416 -0.3354
   14MOL   C63415220   4.335   1.864   6.612  0.6815 -0.2449  0.7062
   14MOL   C63515221   4.285   1.972   6.713  0.9965  0.1019  0.4224
   14MOL   C63615222   4.263   2.110   6.660 -0.1222  0.9432  0.1107
   14MOL   C63715223   4.244   2.223   6.767  0.5176 -0.4108  0.5438
   14MOL   C63815224   4.366   2.288   6.824  0.0284 -0.0107  0.3663
   14MOL   N63915225   4.333   2.408   6.902  0.5823  0.4815  0.8664
   14MOL   H64015226   5.419   1.851   6.227 -1.1899  1.5603 -2.1710
   14MOL   H64115227   5.282   1.771   6.158 -0.4895  1.1032 -0.2497
   14MOL   H64215228   5.348   1.769   6.465  1.0359 -0.9857  0.6509
   14MOL   H64315229   5.419   1.657   6.347 -0.6318 -0.1616 -0.0034
   14MOL   H64415230   5.188   1.583   6.299 -0.1667  1.2297 -0.2466
   14MOL   H64515231   5.128   1.700   6.415  0.2776  0.3410 -0.7430
   14MOL   H64615232   5.310   1.474   6.495 -0.1779 -0.7175 -3.3246
   14MOL   H64715233   5.211   1.579   6.600  1.1457  0.5093 -0.3947
   14MOL   H64815234   5.126   1.366   6.402  0.7990 -1.2669  0.7793
   14MOL   H64915235   5.126   1.361   6.577  1.6880  0.4391 -0.9669
   14MOL   H65015236   4.937   1.551   6.442  0.0283  1.4476  1.2527
   14MOL   H65115237   4.961   1.501   6.613  2.3596  0.3453  0.9267
   14MOL   H65215238   4.861   1.327   6.390  0.0673 -0.5850  0.3095
   14MOL   H65315239   4.870   1.285   6.564 -0.8330 -1.8010 -1.1135
   14MOL   H65415240   4.732   1.497   6.595  1.1561  0.0720  0.5561
   14MOL   H65515241   4.704   1.489   6.419  2.2427 -1.7692 -1.8334
   14MOL   H65615242   4.630   1.266   6.608 -0.1944 -1.0746 -1.2418
   14MOL   H65715243   4.606   1.272   6.432  0.2914  0.1357 -0.2035
   14MOL   H65815244   4.439   1.439   6.433 -1.8890 -1.9736 -0.2201
   14MOL   H65915245   4.386   1.315   6.535  1.7159 -1.4373 -0.5799
   14MOL   H66015246   4.422   1.666   6.496 -0.2124 -1.9372 -0.2357
   14MOL   H66115247   4.318   1.716   6.759  1.6101 -0.6367  0.1675
   14MOL   H66215248   4.481   1.764   6.745  0.1489 -0.1283  0.7690
   14MOL   H66315249   4.251   1.822   6.557  0.7874  0.8805 -0.3191
   14MOL   H66415250   4.413   1.896   6.543 -0.8468  0.4309 -0.7286
   14MOL   H66515251   4.203   1.930   6.770  0.4714 -0.4393 -0.7116
   14MOL   H66615252   4.373   1.973   6.778  1.1253 -0.8362  0.2780
   14MOL   H66715253   4.167   2.101   6.608  1.9587 -1.2159 -3.4783
   14MOL   H66815254   4.341   2.136   6.589  0.9080 -1.4989  0.3167
   14MOL   H66915255   4.188   2.309   6.730  0.1439 -0.2884  1.3857
   14MOL   H67015256   4.179   2.175   6.840  0.0754 -1.3516 -0.4663
   14MOL   H67115257   4.415   2.209   6.881 -1.5520 -0.3888  1.2294
   14MOL   H67215258   4.433   2.317   6.743 -0.7384  0.5382 -0.0820
   14MOL   H67315259   4.278   2.395   6.986 -0.8455  0.4763 -0.0507
   14MOL   C67415260   4.363   2.533   6.872 -0.2503 -0.0604 -0.3840
   14MOL   O67515261   4.431   2.562   6.773 -0.3038 -0.7498  0.9487
   14MOL   C67615262   4.312   2.639   6.966  0.2173  0.0016  0.2128
   14MOL   C67715263   4.187   2.717   6.914  0.2464 -0.0302  0.1339
   14MOL   C67815264   4.143   2.826   7.015  0.4363  0.4181 -0.1657
   14MOL   C67915265   4.014   2.890   6.972  0.5277  0.1473  0.6037
   14MOL   C68015266   3.968   3.005   7.068 -0.0750 -0.2302  0.8172
   14MOL   C68115267   3.819   3.040   7.045 -0.6876  0.1700 -0.6665
   14MOL   C68215268   3.718   2.934   7.091 -0.0100 -0.1902 -0.1151
   14MOL   C68315269   3.576   2.957   7.032 -0.1835 -0.6723  0.3686
   14MOL   C68415270   3.472   2.857   7.079 -0.7773 -0.0073 -0.1668
   14MOL   C68515271   3.499   2.711   7.038 -0.2847 -0.0629  0.6754
   14MOL   C68615272   3.463   2.686   6.885 -0.2991 -0.1566 -0.0658
   14MOL   O68715273   3.375   2.748   6.827  0.1808  0.2123 -0.2325
   14MOL   N68815274   3.539   2.598   6.812  0.1586 -0.0147  0.1873
   14MOL   C68915275   3.532   2.566   6.664 -0.2513  0.4826  0.2182
   14MOL   C69015276   3.650   2.624   6.593  0.2489  0.1058  0.5812
   14MOL   C69115277   3.633   2.622   6.432 -0.5174  0.0941  0.2080
   14MOL   C69215278   3.655   2.478   6.375  0.0667  0.3179  0.3031
   14MOL   C69315279   3.522   2.405   6.338 -0.2881 -0.3670  0.0137
   14MOL   C69415280   3.526   2.254   6.296 -0.4086  0.1759  0.0059
   14MOL   N69515281   3.390   2.212   6.262  0.3771  0.2021 -0.5399
   14MOL   H69615282   4.394   2.710   6.977  0.7216 -0.3597 -1.1449
   14MOL   H69715283   4.287   2.593   7.062  1.6806  1.0413  1.1127
   14MOL   H69815284   4.104   2.647   6.905 -1.8404  2.3671  0.2745
   14MOL   H69915285   4.213   2.757   6.816  2.9623 -0.7136  0.5282
   14MOL   H70015286   4.127   2.757   7.099 -0.4078 -1.2779 -1.6893
   14MOL   H70115287   4.224   2.892   7.045  0.0242  1.0934 -0.5231
   14MOL   H70215288   3.933   2.818   6.964  2.4404 -1.7359 -2.6166
   14MOL   H70315289   4.015   2.934   6.873  3.2251  1.0398  0.9743
   14MOL   H70415290   4.028   3.095   7.051 -0.2697 -0.3991 -0.8606
   14MOL   H70515291   3.991   2.964   7.166 -0.6769 -0.4358  0.8698
   14MOL   H70615292   3.801   3.127   7.109  0.1541 -0.1161 -0.0330
   14MOL   H70715293   3.799   3.052   6.939 -2.8801  0.9952 -0.1925
   14MOL   H70815294   3.751   2.831   7.086 -1.5973 -0.7315  0.4482
   14MOL   H70915295   3.717   2.946   7.199 -1.5647 -0.9982 -0.0319
   14MOL   H71015296   3.560   3.062   7.055  1.8249 -0.1014 -0.6921
   14MOL   H71115297   3.580   2.943   6.924  2.2514  1.8274  0.0845
   14MOL   H71215298   3.374   2.887   7.040 -0.8786  0.6914  0.5993
   14MOL   H71315299   3.469   2.851   7.188  2.9374 -1.0632 -0.0867
   14MOL   H71415300   3.601   2.681   7.060  0.1632  0.8082 -0.1656
   14MOL   H71515301   3.429   2.651   7.095 -1.4292  1.8173  1.3039
   14MOL   H71615302   3.604   2.542   6.866  1.7392  0.6456 -1.0035
   14MOL   H71715303   3.514   2.461   6.641  1.9324  0.7098 -2.9155
   14MOL   H71815304   3.443   2.617   6.628 -0.0945 -0.7832 -2.0123
   14MOL   H71915305   3.746   2.598   6.636  0.6092  0.6627  0.1215
   14MOL   H72015306   3.641   2.728   6.625  2.1584  0.7350 -0.8739
   14MOL   H72115307   3.539   2.666   6.397 -1.9426 -1.7781  1.5627
   14MOL   H72215308   3.703   2.696   6.393 -1.4361  0.0499 -1.5717
   14MOL   H72315309   3.726   2.407   6.417 -0.6205  0.0317  1.0059
   14MOL   H72415310   3.695   2.498   6.276 -1.6309 -0.3373 -0.5438
   14MOL   H72515311   3.460   2.466   6.272  1.3378 -1.1560 -2.3012
   14MOL   H72615312   3.462   2.412   6.429 -1.3915  1.7531 -0.8644
   14MOL   H72715313   3.588   2.250   6.206 -1.7207  0.7426 -0.9309
   14MOL   H72815314   3.570   2.192   6.374 -0.1845  1.7818  1.1918
   14MOL   H72915315   3.320   2.285   6.261  0.1393  0.0257  1.1436
   14MOL   C73015316   3.360   2.094   6.219  0.0855 -0.0028  0.3564
   14MOL   O73115317   3.449   2.012   6.202  0.1589  0.0718  0.7091
   14MOL   C73215318   3.216   2.068   6.175  0.2902 -0.2318  0.0031
   14MOL   C73315319   3.182   1.924   6.138  0.0129 -0.4953  0.8097
   14MOL   C73415320   3.146   1.836   6.254  0.0610  0.1082 -0.5698
   14MOL   C73515321   2.995   1.863   6.290  0.5017  0.2048 -0.2815
   14MOL   C73615322   2.894   1.784   6.201 -0.7856 -0.3883  1.1096
   14MOL   C73715323   2.759   1.832   6.231  1.0868  0.2194 -0.0852
   14MOL   C73815324   2.668   1.760   6.130 -0.1217  0.4952  0.1778
   14MOL   C73915325   2.511   1.764   6.152  0.7011 -0.0280  0.3134
   14MOL   C74015326   2.437   1.695   6.034  0.4324 -0.0469  0.3824
   14MOL   C74115327   2.468   1.551   6.002 -0.5029 -0.6881 -0.3101
   14MOL   C74215328   2.412   1.453   6.101  0.3996 -0.3671 -0.0644
   14MOL   O74315329   2.293   1.425   6.104  0.4323  0.4564 -0.2440
   14MOL   N74415330   2.504   1.408   6.187 -0.0645  0.1137  0.0007
   14MOL   C74515331   2.489   1.321   6.300 -0.1685 -0.1966 -0.0574
   14MOL   C74615332   2.504   1.413   6.423 -0.3220  0.2499  0.3156
   14MOL   C74715333   2.648   1.461   6.435  0.0719  0.1535  0.0907
   14MOL   C74815334   2.743   1.346   6.476 -0.0382 -0.1152  0.6207
   14MOL   C74915335   2.883   1.395   6.515 -0.1193  0.5786 -0.4768
   14MOL   C75015336   2.977   1.285   6.553 -0.5848  0.1895  0.3521
   14MOL   N75115337   3.091   1.336   6.622 -0.3276  0.0000  0.1594
   14MOL   H75215338   3.204   2.138   6.092 -0.9764 -0.0474  0.3265
   14MOL   H75315339   3.154   2.107   6.256 -0.8377  0.6326 -1.2756
   14MOL   H75415340   3.269   1.876   6.093  0.3789  0.6328  0.2844
   14MOL   H75515341   3.096   1.939   6.071 -0.2562 -0.8165  1.0864
   14MOL   H75615342   3.209   1.874   6.334 -1.8174  0.1451  0.9521
   14MOL   H75715343   3.179   1.733   6.240  0.1750 -0.0954  1.0940
   14MOL   H75815344   2.975   1.970   6.293 -0.6101 -0.0239  0.7878
   14MOL   H75915345   2.978   1.835   6.394 -3.4843  0.2899 -0.8412
   14MOL   H76015346   2.910   1.677   6.216  0.9717 -0.2409  0.4353
   14MOL   H76115347   2.925   1.811   6.100  0.7478 -0.5436  1.5275
   14MOL   H76215348   2.730   1.789   6.327  3.3849 -0.0409  0.5283
   14MOL   H76315349   2.735   1.937   6.242  0.8892  0.0438  1.2901
   14MOL   H76415350   2.681   1.793   6.027 -1.7642  0.7412  0.0370
   14MOL   H76515351   2.709   1.659   6.127  1.5279  1.0524  2.5463
   14MOL   H76615352   2.495   1.712   6.247  1.7248  2.7751  2.1104
   14MOL   H76715353   2.477   1.866   6.169 -0.2377 -0.4790  1.2323
   14MOL   H76815354   2.478   1.749   5.949 -2.3747 -1.3861 -1.9119
   14MOL   H76915355   2.329   1.709   6.032  0.3552 -0.7410 -1.8435
   14MOL   H77015356   2.418   1.530   5.907 -0.1733 -0.4590 -0.5352
   14MOL   H77115357   2.573   1.533   5.977  0.4025  2.9760  0.6007
   14MOL   H77215358   2.597   1.420   6.150 -0.7668 -0.2318 -1.9408
   14MOL   H77315359   2.568   1.247   6.296  0.6016  0.5941  0.4711
   14MOL   H77415360   2.395   1.267   6.287 -0.7849  0.6629  0.7199
   14MOL   H77515361   2.479   1.371   6.520  1.9208  0.4522  1.0180
   14MOL   H77615362   2.439   1.500   6.415  1.4507  1.5799  0.0768
   14MOL   H77715363   2.647   1.540   6.510 -0.6420 -0.4371  0.7115
   14MOL   H77815364   2.689   1.510   6.347  0.5161 -1.2360 -0.4881
   14MOL   H77915365   2.693   1.286   6.552  1.5591 -1.2437  0.8113
   14MOL   H78015366   2.744   1.285   6.385  0.6976 -1.0104  1.2153
   14MOL   H78115367   2.874   1.470   6.594  2.7588 -0.5774  1.0409
   14MOL   H78215368   2.930   1.438   6.427  2.0161  1.9596  1.2709
   14MOL   H78315369   2.938   1.208   6.620 -1.3971 -0.3535 -0.7491
   14MOL   H78415370   2.999   1.236   6.458 -0.7138 -0.6120  0.7282
   14MOL   H78515371   3.174   1.341   6.564  0.0151  1.7990  0.7854
   14MOL   C78615372   3.093   1.356   6.753 -0.5309  0.4355  0.5685
   14MOL   O78715373   2.989   1.369   6.813  0.2444 -0.4726 -0.2354
   14MOL   C78815374   3.228   1.356   6.818 -0.1499  0.4149  0.3762
   14MOL   C78915375   3.288   1.491   6.842  0.3857  0.2193 -0.1312
   14MOL   C79015376   3.418   1.508   6.928  0.5218  0.3815  0.5492
   14MOL   C79115377   3.491   1.634   6.906 -0.3747  0.1790  0.1401
   14MOL   C79215378   3.604   1.650   7.014  0.5834  0.4278  0.2066
   14MOL   C79315379   3.716   1.743   6.965  0.3272 -0.9435 -0.0203
   14MOL   C79415380   3.671   1.889   6.936 -0.3358 -0.4129  0.9600
   14MOL   C79515381   3.788   1.990   6.913  0.0706 -0.1199  0.3150
   14MOL   C79615382   3.753   2.147   6.926 -0.2504 -0.0616  0.3332
   14MOL   C79715383   3.873   2.242   6.898  0.2441 -0.0104  0.3289
   14MOL   C79815384   3.849   2.383   6.953 -0.0131 -0.4071  0.1650
   14MOL   O79915385   3.760   2.459   6.915 -0.2062 -0.0393  0.2578
   14MOL   N80015386   3.928   2.418   7.049  0.0968 -0.5699 -0.5770
   14MOL   C80115387   3.926   2.538   7.129  0.1155 -0.1379  0.0123
   14MOL   C80215388   3.825   2.549   7.237  0.1635 -0.7614 -0.3154
   14MOL   C80315389   3.863   2.658   7.341 -0.0028 -0.1663 -0.2760
   14MOL   C80415390   3.757   2.674   7.451  1.0440 -0.1078 -0.4741
   14MOL   C80515391   3.629   2.739   7.403 -0.3563 -0.0974  0.3177
   14MOL   C80615392   3.509   2.726   7.504  0.1648  0.1554  0.0914
   14MOL   N80715393   3.547   2.737   7.646  0.6770 -0.1910  0.1792
   14MOL   H80815394   3.288   1.283   6.764 -0.7302  0.8769 -0.9173
   14MOL   H80915395   3.202   1.312   6.915 -2.0318 -0.4151 -0.4711
   14MOL   H81015396   3.317   1.537   6.747  1.2901 -2.0441 -0.9741
   14MOL   H81115397   3.220   1.561   6.891  1.2760 -0.2137  1.7840
   14MOL   H81215398   3.475   1.424   6.889  1.0350  1.8278 -1.9913
   14MOL   H81315399   3.404   1.478   7.031  1.4112 -1.0566  0.2572
   14MOL   H81415400   3.535   1.638   6.807  0.0038  1.0186  0.3379
   14MOL   H81515401   3.425   1.720   6.915 -0.6231  0.0994 -0.8499
   14MOL   H81615402   3.568   1.688   7.109 -0.7234  1.9950 -0.8952
   14MOL   H81715403   3.647   1.550   7.027  2.7180  1.0410 -1.6594
   14MOL   H81815404   3.807   1.739   7.026  0.1770 -0.7262  0.2173
   14MOL   H81915405   3.749   1.712   6.866  0.0742  1.2524 -0.8084
   14MOL   H82015406   3.595   1.909   6.860 -1.3800  1.0564  2.3689
   14MOL   H82115407   3.626   1.929   7.027 -1.0084  1.8535 -0.3127
   14MOL   H82215408   3.871   1.961   6.978  0.5544  2.8679  1.0806
   14MOL   H82315409   3.833   1.968   6.816 -3.0758 -2.4571 -0.6840
   14MOL   H82415410   3.701   2.177   7.016 -0.4024 -0.0688  0.2472
   14MOL   H82515411   3.678   2.166   6.849 -0.4591  0.5111  0.6776
   14MOL   H82615412   3.963   2.209   6.950 -0.4314 -0.3781  1.2778
   14MOL   H82715413   3.904   2.248   6.794  0.9361  3.3529  0.6658
   14MOL   H82815414   4.006   2.357   7.071  0.9386  0.6230 -0.2244
   14MOL   H82915415   3.926   2.630   7.070  1.6473 -0.9639 -1.3275
   14MOL   H83015416   4.024   2.537   7.178  0.4232  1.1551 -0.5336
   14MOL   H83115417   3.804   2.461   7.299 -0.1397  0.1789  0.9393
   14MOL   H83215418   3.724   2.558   7.198 -0.2677  0.3340  1.0283
   14MOL   H83315419   3.956   2.624   7.385  0.7226 -0.1929 -1.8186
   14MOL   H83415420   3.888   2.748   7.284  3.4164 -0.2703  0.9530
   14MOL   H83515421   3.795   2.747   7.522  1.4495 -1.6863  0.9394
   14MOL   H83615422   3.741   2.580   7.502  0.5856  0.8175  1.1363
   14MOL   H83715423   3.600   2.686   7.312  0.9242 -1.1497  0.4984
   14MOL   H83815424   3.644   2.845   7.385 -2.2102 -0.3524 -3.0722
   14MOL   H83915425   3.455   2.632   7.517 -0.6516  0.8466  1.9551
   14MOL   H84015426   3.443   2.801   7.459 -0.0183 -0.9436 -1.4646
   14MOL   H84115427   3.554   2.652   0.008 -4.7582  0.1571  1.6546
   14MOL   C84215428   3.578   2.844   0.022  0.1789 -0.7778 -0.7082
   14MOL   O84315429   3.594   2.956   7.661 -0.2673  0.4420 -0.5149
   14MOL   C84415430   3.592   2.829   0.175 -0.4037 -0.3172  0.4070
   14MOL   C84515431   3.734   2.853   0.222  0.7243 -0.1063  0.2843
   14MOL   C84615432   3.845   2.762   0.161  0.4582 -0.1237  0.0028
   14MOL   C84715433   3.976   2.809   0.212 -0.0523  0.5348  0.0940
   14MOL   C84815434   4.106   2.734   0.165 -0.3296 -0.2636  0.4599
   14MOL   C84915435   4.124   2.592   0.223 -0.0146  0.1810  0.4308
   14MOL   C85015436   4.213   2.498   0.143 -0.2106  0.5081 -0.2931
   14MOL   C85115437   4.191   2.355   0.175  0.3025 -0.3848  0.0738
   14MOL   C85215438   4.249   2.271   0.070 -0.8949  0.5806 -0.0817
   14MOL   C85315439   4.215   2.123   0.104  0.1552  0.3260 -0.0352
   14MOL   C85415440   4.240   2.034   7.672  0.2146 -0.1724 -0.0636
   14MOL   O85515441   4.235   2.075   7.553  0.0970  0.5274 -0.2096
   14MOL   N85615442   4.273   1.907   7.689  0.0407 -0.3580 -0.3832
   14MOL   C85715443   4.273   1.807   7.588 -0.2404  0.2373 -0.0478
   14MOL   C85815444   4.285   1.668   7.637 -0.7367 -0.4486 -0.5407
   14MOL   C85915445   4.306   1.555   7.530 -0.8870  0.3407  0.4319
   14MOL   C86015446   4.295   1.413   7.599 -0.2553 -0.0257  0.0078
   14MOL   C86115447   4.150   1.362   7.593 -0.2016  0.4595  0.2540
   14MOL   C86215448   4.131   1.245   0.004 -0.1915 -0.5076  0.3486
   14MOL   N86315449   3.993   1.194   7.689 -0.2830 -0.7463 -0.2066
   14MOL   H86415450   3.564   2.732   0.217 -0.3606 -1.2680 -1.7102
   14MOL   H86515451   3.526   2.903   0.220  0.1710 -0.8670  2.2255
   14MOL   H86615452   3.727   2.848   0.330  0.1413  0.4936  0.2777
   14MOL   H86715453   3.762   2.955   0.195 -0.8381  0.1936 -0.2201
   14MOL   H86815454   3.838   2.655   0.184 -0.7692 -0.2775 -1.0492
   14MOL   H86915455   3.848   2.777   0.053  0.7011  1.3734  0.2167
   14MOL   H87015456   3.969   2.796   0.320  0.0255 -3.4453 -0.3109
   14MOL   H87115457   3.998   2.915   0.203  1.1774  0.3513  0.8330
   14MOL   H87215458   4.110   2.746   0.057  0.7153  0.8209  0.6061
   14MOL   H87315459   4.188   2.799   0.198 -0.8230  0.3746  0.4462
   14MOL   H87415460   4.153   2.584   0.328 -0.2889 -2.5946  0.3353
   14MOL   H87515461   4.026   2.544   0.214  0.1607 -0.1299  0.1819
   14MOL   H87615462   4.177   2.517   0.042 -1.0241 -0.1702 -0.1383
   14MOL   H87715463   4.319   2.510   0.160  0.3066  0.7539 -3.3368
   14MOL   H87815464   4.086   2.330   0.192  0.8113 -3.0874 -0.5639
   14MOL   H87915465   4.234   2.344   0.275 -0.2055 -4.4456 -0.0764
   14MOL   H88015466   4.356   2.290   0.067 -0.8718  0.4258 -0.2318
   14MOL   H88115467   4.211   2.307   7.666 -1.7709 -2.3225 -0.8956
   14MOL   H88215468   4.269   2.084   0.190 -0.4193 -0.1275  0.1300
   14MOL   H88315469   4.108   2.114   0.127  0.0912  0.3065 -0.3339
   14MOL   H88415470   4.272   1.862   0.089 -0.2350 -0.8507 -0.6249
   14MOL   H88515471   4.360   1.819   7.523  0.6966  2.1884  1.4931
   14MOL   H88615472   4.176   1.809   7.539  0.1651 -0.5688 -0.9054
   14MOL   H88715473   4.198   1.641   0.006  0.4249 -1.7496  0.5832
   14MOL   H88815474   4.369   1.662   0.014 -1.1979 -0.1813  0.0511
   14MOL   H88915475   4.406   1.568   7.489 -1.5085  3.2493 -0.2297
   14MOL   H89015476   4.229   1.559   7.453  0.3281  1.2564 -0.7455
   14MOL   H89115477   4.320   1.436   0.011 -1.7343 -0.4603  0.4805
   14MOL   H89215478   4.361   1.343   7.547  0.3741 -0.0233  0.7969
   14MOL   H89315479   4.080   1.438   7.628  1.8804  1.8244  1.6263
   14MOL   H89415480   4.127   1.345   7.488 -1.0316 -0.7166  0.6168
   14MOL   H89515481   4.205   1.169   7.668  0.2969 -0.1009  0.5336
   14MOL   H89615482   4.164   1.290   0.098  0.8423  1.9519 -1.1570
   14MOL   H89715483   3.947   1.184   7.600  0.0168  0.0825 -0.4555
   14MOL   C89815484   3.956   1.120   0.101 -0.0334  0.2299  0.1512
   14MOL   O89915485   4.026   1.114   0.201 -0.0348 -0.7953 -0.2294
   14MOL   C90015486   3.824   1.035   0.090  0.8088  0.2834 -0.7854
   14MOL   C90115487   3.700   1.096   0.010 -0.2895  0.8882 -0.1970
   14MOL   C90215488   3.614   1.194   0.085 -0.1616 -0.8140  0.1803
   14MOL   C90315489   3.481   1.238   0.021  0.2968 -0.0499  0.7171
   14MOL   C90415490   3.420   1.369   0.075  0.0961 -0.1807  0.5816
   14MOL   C90515491   3.289   1.405   0.003  0.2881 -0.1711 -0.3064
   14MOL   C90615492   3.313   1.438   7.549  0.9257 -0.6962  0.8668
   14MOL   C90715493   3.178   1.484   7.476 -0.0779 -0.3747  0.0823
   14MOL   C90815494   3.192   1.489   7.319 -0.0584  0.0634  0.4783
   14MOL   C90915495   3.059   1.524   7.248  0.1701  0.2698  0.3708
   14MOL   C91015496   2.951   1.415   7.260  0.7073 -0.1098  0.3233
   14MOL   O91115497   2.973   1.296   7.270 -0.7676 -1.3462  0.1795
   14MOL   N91215498   2.822   1.459   7.267 -0.1268  0.1861 -0.1785
   14MOL   C91315499   2.723   1.379   7.339 -0.6026  0.0449 -0.4169
   14MOL   C91415500   2.681   1.257   7.256 -0.5765  0.1850 -0.9985
   14MOL   C91515501   2.594   1.154   7.329  0.2195 -0.6488 -0.4645
   14MOL   C91615502   2.574   1.032   7.243 -1.0597  0.4225 -0.5541
   14MOL   C91715503   2.450   0.950   7.283 -0.3112 -0.6523  0.4187
   14MOL   C91815504   2.409   0.831   7.187  0.2262  0.2172  0.1661
   14MOL   N91915505   2.306   0.760   7.261 -0.0028 -0.0247 -0.1236
   14MOL   H92015506   3.860   0.950   0.032 -0.1748  0.1687 -1.2406
   14MOL   H92115507   3.791   1.008   0.191  0.4669 -1.0024 -1.2334
   14MOL   H92215508   3.642   1.009   7.670  0.7459  0.1285 -0.0390
   14MOL   H92315509   3.729   1.139   7.606  2.0472  2.0402  0.9904
   14MOL   H92415510   3.679   1.275   0.120 -2.0618  0.5527  0.6186
   14MOL   H92515511   3.582   1.152   0.180 -0.8361  0.1668  0.3917
   14MOL   H92615512   3.501   1.242   7.605  0.3545 -0.6357  0.7036
   14MOL   H92715513   3.398   1.168   0.020 -1.3828  1.8677 -1.3984
   14MOL   H92815514   3.483   1.458   0.072 -0.6006  0.4081  2.5939
   14MOL   H92915515   3.405   1.350   0.181  1.4041 -0.5506  0.7007
   14MOL   H93015516   3.216   1.324   0.007  0.1297  0.0042  0.4579
   14MOL   H93115517   3.242   1.490   0.052  1.0591  0.4442 -0.6285
   14MOL   H93215518   3.348   1.357   7.485  1.0655 -1.6563  2.1463
   14MOL   H93315519   3.367   1.533   7.545  0.8607 -0.4411  4.6304
   14MOL   H93415520   3.142   1.581   7.510 -2.1131 -0.6336 -1.2672
   14MOL   H93515521   3.091   1.428   7.509 -0.1687 -0.1618  0.2095
   14MOL   H93615522   3.267   1.564   7.298  0.7749 -0.9602 -0.2438
   14MOL   H93715523   3.232   1.400   7.271 -0.3130  0.4674 -0.4854
   14MOL   H93815524   3.011   1.617   7.278  0.1878  0.2770  0.3759
   14MOL   H93915525   3.068   1.543   7.141  1.1710  0.6661  0.5259
   14MOL   H94015526   2.796   1.554   7.244 -1.2511 -0.4795 -1.7474
   14MOL   H94115527   2.641   1.445   7.366  0.1679  1.1852 -0.8277
   14MOL   H94215528   2.765   1.347   7.434  0.6310 -1.3623 -1.4003
   14MOL   H94315529   2.622   1.294   7.173  1.3632  1.4912 -1.8076
   14MOL   H94415530   2.767   1.199   7.222 -0.3845  0.1117 -0.3987
   14MOL   H94515531   2.633   1.132   7.428 -0.0255 -0.5681 -0.3502
   14MOL   H94615532   2.499   1.202   7.353  0.4576  0.4134 -1.6085
   14MOL   H94715533   2.664   0.971   7.247 -0.6354  0.9285 -1.9365
   14MOL   H94815534   2.552   1.066   7.141 -0.4228  2.7630  0.0455
   14MOL   H94915535   2.479   0.910   7.380 -1.2546 -1.4642  0.3761
   14MOL   H95015536   2.361   1.012   7.291 -1.7605 -2.7819  1.2401
   14MOL   H95115537   2.494   0.763   7.175 -1.7860 -2.5439  1.0386
   14MOL   H95215538   2.375   0.865   7.089  1.2701  0.2012 -0.2049
   14MOL   H95315539   2.251   0.814   7.326  0.6385  0.8462 -0.2960
   14MOL   C95415540   2.279   0.631   7.259 -0.3524 -0.1373 -0.0293
   14MOL   O95515541   2.333   0.553   7.174 -0.4693 -0.2692 -0.4977
   14MOL   C95615542   2.179   0.570   7.361  0.4673  0.8699  0.5511
   14MOL   C95715543   2.085   0.455   7.309 -0.1889 -0.6857  0.7376
   14MOL   C95815544   1.991   0.504   7.195 -0.0576  0.7121  0.2833
   14MOL   C95915545   1.883   0.399   7.154  0.5387  0.0571  0.3899
   14MOL   C96015546   1.794   0.448   7.042  0.5026 -0.0620 -0.7020
   14MOL   C96115547   1.700   0.332   6.999 -0.2382  0.0817  0.9607
   14MOL   C96215548   1.581   0.298   7.092  0.5289  0.0421 -0.2603
   14MOL   C96315549   1.518   0.159   7.049  0.6622 -0.0937  0.3915
   14MOL   C96415550   1.433   0.093   7.159 -0.0946  0.0625 -0.1364
   14MOL   C96515551   1.355   7.659   7.116 -0.4238  0.8135  0.0961
   14MOL   C96615552   1.210   7.678   7.065 -0.3354 -0.0386 -0.5614
   14MOL   O96715553   1.183   0.092   7.015  0.1389  0.4241 -0.0783
   14MOL   N96815554   1.123   7.579   7.072  0.0220  0.4601 -0.2106
   14MOL   C96915555   0.984   7.575   7.021  0.4866  0.0110  0.0098
   14MOL   C97015556   0.978   7.547   6.876  0.5982  0.2727  0.0773
   14MOL   C97115557   0.833   7.525   6.812 -0.2658  0.4081 -0.1213
   14MOL   C97215558   0.821   7.536   6.659 -0.4014  0.5080  0.0573
   14MOL   C97315559   0.687   7.524   6.607  0.3970 -0.1325  0.0702
   14MOL   C97415560   0.691   7.487   6.457  0.2275 -0.2223 -0.4304
   14MOL   N97515561   0.757   7.589   6.381  0.2152 -0.2308 -0.1083
   14MOL   H97615562   2.246   0.540   7.441 -0.6153  0.7902  1.4313
   14MOL   H97715563   2.122   0.651   7.407  0.0379  0.2966  1.0442
   14MOL   H97815564   2.022   0.434   7.395 -0.7911  2.7129  1.2055
   14MOL   H97915565   2.135   0.362   7.285 -0.3084 -0.3145 -0.9909
   14MOL   H98015566   1.953   0.606   7.207  1.6980  1.0876  2.9423
   14MOL   H98115567   2.052   0.508   7.104 -1.5262 -0.3897 -0.7797
   14MOL   H98215568   1.933   0.303   7.146  1.2355  0.4106  0.4480
   14MOL   H98315569   1.822   0.372   7.240 -2.6061  0.4451 -1.6295
   14MOL   H98415570   1.734   0.536   7.066  1.2888 -0.0566  1.3272
   14MOL   H98515571   1.863   0.473   6.961 -0.4643  1.2110 -1.1669
   14MOL   H98615572   1.659   0.359   6.901  1.1968 -1.1975 -0.0021
   14MOL   H98715573   1.759   0.245   6.971 -0.9715  0.5957 -2.4235
   14MOL   H98815574   1.626   0.288   7.191  1.5837  0.8318 -0.6551
   14MOL   H98915575   1.507   0.377   7.092  0.0502 -0.3719 -2.4744
   14MOL   H99015576   1.462   0.161   6.955  0.7251  0.4077  0.3643
   14MOL   H99115577   1.600   0.093   7.021 -0.2781 -0.9376 -0.4303
   14MOL   H99215578   1.363   0.165   7.200 -1.3330 -0.7391 -0.8383
   14MOL   H99315579   1.503   0.050   7.231 -3.2110 -2.9371  1.2442
   14MOL   H99415580   1.413   7.598   7.046 -2.0181  0.1436 -0.6751
   14MOL   H99515581   1.348   7.594   7.204  0.5646  2.3535  1.3376
   14MOL   H99615582   1.153   7.493   7.116 -0.1031  0.5289  0.0065
   14MOL   H99715583   0.936   7.672   7.033  1.1678  0.7874 -3.0744
   14MOL   H99815584   0.923   7.496   7.065 -0.7052 -0.8083 -2.9693
   14MOL   H99915585   1.048   7.469   6.845  0.4306  0.0871  0.1717
   14MOL     H115586   1.016   7.635   6.824  1.0597  0.8194  1.3315
   14MOL     H215587   0.756   7.590   6.853  0.6624  2.5134 -1.6105
   14MOL     H315588   0.813   7.423   6.845 -0.4973  1.3734  2.8286
   14MOL     H415589   0.860   7.631   6.621  2.0632 -0.1594  0.8606
   14MOL     H515590   0.890   7.466   6.611  0.7247  0.7664  1.2576
   14MOL     H615591   0.630   7.615   6.624  1.0624  0.5433 -1.2489
   14MOL     H715592   0.628   7.449   6.660 -0.2544 -0.2585 -0.8137
   14MOL     H815593   0.731   7.389   6.433  1.2701 -0.0682  0.6501
   14MOL     H915594   0.586   7.482   6.428 -0.0688 -0.6641  0.6951
   14MOL    H1015595   0.858   7.587   6.371  0.3785  1.7792  0.9053
   14MOL    C1115596   0.690   7.674   6.300 -0.0153 -0.2077  0.2976
   14MOL    O1215597   0.569   7.666   6.287 -0.1427 -0.0964 -0.2925
   14MOL    C1315598   0.770   0.092   6.221 -0.2702 -0.2075  0.3459
   14MOL    C1415599   0.759   0.230   6.294  0.1428  0.1119  0.0910
   14MOL    C1515600   0.843   0.262   6.417 -0.1573 -0.1105 -0.7622
   14MOL    C1615601   0.833   0.407   6.465  0.2278  0.3356  0.0181
   14MOL    C1715602   0.932   0.514   6.402  0.1167 -0.2511  0.0150
   14MOL    C1815603   0.920   0.657   6.456 -0.2883 -0.7566 -0.3045
   14MOL    C1915604   0.799   0.735   6.396 -0.4907 -0.2342 -0.0925
   14MOL    C2015605   0.780   0.714   6.242  0.7367  0.2281  0.2110
   14MOL    C2115606   0.672   0.807   6.188 -0.6561  0.4091 -0.0411
   14MOL    C2215607   0.692   0.960   6.216 -0.6471  1.1681  0.2452
   14MOL    C2315608   0.820   1.024   6.156  0.0765  0.5555  0.3100
   14MOL    O2415609   0.868   0.984   6.052  0.7988 -0.1212  0.2000
   14MOL    N2515610   0.855   1.138   6.218 -0.6192 -0.3358 -0.2768
   14MOL    C2615611   0.969   1.225   6.180  0.0001 -0.7752  0.0229
   14MOL    C2715612   1.017   1.300   6.303 -0.4698  0.4268 -0.1502
   14MOL    C2815613   0.941   1.418   6.361  0.1013  0.5144 -0.3747
   14MOL    C2915614   0.996   1.454   6.493  0.1273  0.9249  0.3672
   14MOL    C3015615   0.953   1.587   6.547 -0.8063  0.2383  0.1889
   14MOL    C3115616   0.925   1.594   6.703  0.3349  0.0334  0.7409
   14MOL    N3215617   0.934   1.737   6.749  1.2885 -0.7289  0.3707
   14MOL    H3315618   0.734   0.107   6.120  1.0224 -1.0021 -0.2520
   14MOL    H3415619   0.873   0.055   6.210  0.0037  0.5985  0.2050
   14MOL    H3515620   0.656   0.239   6.326 -0.7309 -2.7648 -1.7011
   14MOL    H3615621   0.776   0.313   6.225 -1.2519  0.1109 -0.2591
   14MOL    H3715622   0.948   0.240   6.399  0.5705 -0.9608  3.8680
   14MOL    H3815623   0.805   0.200   6.498 -0.4065  0.4564 -0.4430
   14MOL    H3915624   0.729   0.438   6.451  0.3075 -0.2028 -1.8982
   14MOL    H4015625   0.852   0.405   6.572 -0.9771 -0.2802  0.2331
   14MOL    H4115626   1.037   0.485   6.410 -0.1672 -0.7136  2.2900
   14MOL    H4215627   0.932   0.514   6.293 -0.1005  0.4936  0.0092
   14MOL    H4315628   0.902   0.661   6.563  0.4069  0.8603 -0.2331
   14MOL    H4415629   1.021   0.697   6.441 -0.2236 -1.5575 -2.1789
   14MOL    H4515630   0.708   0.698   6.442 -1.7225  1.9110 -0.7495
   14MOL    H4615631   0.824   0.839   6.419 -0.1072 -0.4578  0.5194
   14MOL    H4715632   0.864   0.721   6.173  0.2887  1.3929 -0.2263
   14MOL    H4815633   0.750   0.610   6.224 -0.7641  0.6871 -0.0349
   14MOL    H4915634   0.583   0.775   6.243 -0.0822 -2.5738 -0.7625
   14MOL    H5015635   0.649   0.786   6.084 -0.0002  2.3405 -0.5981
   14MOL    H5115636   0.603   1.012   6.180 -0.4505  0.0545 -1.9686
   14MOL    H5215637   0.697   0.975   6.324 -0.9261 -1.5769  0.6800
   14MOL    H5315638   0.793   1.165   6.293  1.5887 -3.4240  2.8239
   14MOL    H5415639   0.940   1.306   6.113 -1.5484 -1.3864 -0.0860
   14MOL    H5515640   1.046   1.159   6.140  0.5265 -0.4728  0.5356
   14MOL    H5615641   1.119   1.327   6.277  0.3461 -0.5313  1.9723
   14MOL    H5715642   1.021   1.225   6.382 -0.1059  0.1815 -0.4008
   14MOL    H5815643   0.834   1.395   6.365 -0.0162  0.6112 -2.3949
   14MOL    H5915644   0.950   1.506   6.297  0.2122  0.7560 -0.0232
   14MOL    H6015645   1.105   1.452   6.493  0.1257  0.8983  0.0899
   14MOL    H6115646   0.970   1.386   6.574  0.7265 -0.0151 -0.2259
   14MOL    H6215647   0.868   1.627   6.492 -1.5298 -2.3962 -0.6585
   14MOL    H6315648   1.028   1.660   6.516 -0.8800  0.8341  1.3710
   14MOL    H6415649   0.999   1.546   6.768  0.0629 -0.3065  0.7986
   14MOL    H6515650   0.824   1.556   6.716  0.2710 -0.6245 -1.4318
   14MOL    H6615651   0.847   1.779   6.778 -0.1553 -2.9204 -0.6637
   14MOL    C6715652   1.040   1.811   6.753 -0.2133  0.2616  0.2832
   14MOL    O6815653   1.149   1.781   6.704 -0.5429  0.2904 -0.4291
   14MOL    C6915654   1.024   1.935   6.830 -0.0397  0.2360  0.0553
   14MOL    C7015655   1.101   2.054   6.770  0.2397 -0.3544 -0.3295
   14MOL    C7115656   1.055   2.101   6.632 -0.5699  0.1097  0.0484
   14MOL    C7215657   1.139   2.221   6.580 -0.3976  0.3851 -0.6286
   14MOL    C7315658   1.081   2.279   6.449  0.5417  0.2978 -0.5792
   14MOL    C7415659   1.111   2.186   6.329  0.3807  0.8229  0.2984
   14MOL    C7515660   1.060   2.234   6.191  0.0281 -0.1648 -0.3412
   14MOL    C7615661   1.064   2.128   6.086 -0.3640  0.1886 -0.1859
   14MOL    C7715662   1.025   2.185   5.952  0.0287  0.1039 -0.1265
   14MOL    C7815663   0.993   2.062   5.859 -0.4052  1.0926 -0.7860
   14MOL    C7915664   0.945   2.104   5.715  0.8868 -0.7951  0.1687
   14MOL    O8015665   0.863   2.201   5.704  0.1511  0.2104 -0.2775
   14MOL    N8115666   0.987   2.033   5.614 -0.0368 -0.5272 -0.6269
   14MOL    C8215667   0.935   2.039   5.479 -0.0714 -0.4478 -0.1295
   14MOL    C8315668   1.037   2.121   5.397  0.8765 -0.1582  0.2860
   14MOL    C8415669   1.010   2.128   5.240 -0.1663 -0.4710 -0.1170
   14MOL    C8515670   1.043   2.255   5.176  0.0943  0.6578 -0.3629
   14MOL    C8615671   1.002   2.263   5.032  0.7191 -0.1204  0.1068
   14MOL    C8715672   1.016   2.401   4.971 -0.5709 -0.6529 -0.0015
   14MOL    N8815673   0.935   2.416   4.853 -0.2626 -0.1888  0.3104
   14MOL    H8915674   1.066   1.911   6.927  0.8538  1.2358 -0.0695
   14MOL    H9015675   0.920   1.966   6.842  0.1357  0.3149  1.4052
   14MOL    H9115676   1.096   2.143   6.832  0.0400  0.0283 -0.8868
   14MOL    H9215677   1.204   2.020   6.762 -0.1474 -2.2078  1.9075
   14MOL    H9315678   1.074   2.017   6.566 -0.3614 -0.1297  0.4082
   14MOL    H9415679   0.950   2.129   6.634 -0.7307 -0.4587 -0.4292
   14MOL    H9515680   1.135   2.306   6.647 -1.8838  0.8427 -1.2852
   14MOL    H9615681   1.239   2.179   6.570 -0.4603 -0.0857  0.6198
   14MOL    H9715682   0.974   2.294   6.464 -0.0497 -2.2474 -1.8847
   14MOL    H9815683   1.126   2.376   6.426 -0.5348  1.4290  1.9794
   14MOL    H9915684   1.218   2.171   6.323  0.0900 -1.6532  0.7827
   14MOL   H10015685   1.065   2.088   6.340 -0.2198  1.0221 -0.3816
   14MOL   H10115686   1.114   2.326   6.167 -1.3646  0.5493 -0.8123
   14MOL   H10215687   0.955   2.264   6.199 -0.4308 -2.1623  1.6582
   14MOL   H10315688   1.168   2.096   6.084 -0.6631 -0.8287  0.4074
   14MOL   H10415689   1.012   2.037   6.117 -1.4974  0.4906 -1.1426
   14MOL   H10515690   1.113   2.239   5.917 -1.3461  1.5953 -1.3676
   14MOL   H10615691   0.941   2.254   5.953 -1.4253 -1.6155 -0.7151
   14MOL   H10715692   1.086   2.006   5.847 -1.1853  0.2170 -2.9379
   14MOL   H10815693   0.915   1.996   5.897 -1.1339  1.7522 -1.1241
   14MOL   H10915694   1.048   1.955   5.634 -1.1457 -1.2971 -0.1610
   14MOL   H11015695   0.845   2.099   5.467 -0.5067 -1.3923 -1.6412
   14MOL   H11115696   0.931   1.937   5.440 -1.9103 -0.4730  0.0670
   14MOL   H11215697   1.138   2.081   5.409  0.4046 -1.0929  1.2116
   14MOL   H11315698   1.023   2.221   5.439  0.0158  0.0495 -0.4772
   14MOL   H11415699   0.908   2.095   5.221 -0.8458  0.7835  1.2291
   14MOL   H11515700   1.070   2.049   5.195  0.9095  0.4524 -0.3309
   14MOL   H11615701   0.987   2.334   5.226 -1.2676 -0.2474 -0.4122
   14MOL   H11715702   1.149   2.277   5.189  0.6410 -2.3426  0.7214
   14MOL   H11815703   1.029   2.186   4.960  1.2056 -0.0228  0.1838
   14MOL   H11915704   0.894   2.255   5.036  0.7131 -1.0519 -1.4156
   14MOL   H12015705   0.991   2.475   5.048  2.0299  0.1533  0.1124
   14MOL   H12115706   1.117   2.425   4.937 -1.1332  0.5606 -0.8861
   14MOL   H12215707   0.978   2.483   4.791 -0.5197  0.5661  0.9327
   14MOL   H12315708   0.947   2.327   4.808  0.3499 -1.0468  2.1153
   15MOL     C115709   7.146   2.565   6.045  0.0989  0.1883  0.1407
   15MOL     O215710   7.188   2.542   5.929 -0.4267 -0.0876  0.2356
   15MOL     C315711   7.154   2.710   6.091  0.2391  0.2369  0.2942
   15MOL     C415712   7.105   2.820   5.992  0.1239  0.5029 -0.4397
   15MOL     C515713   7.116   2.965   6.047  0.2713  0.9327  0.3750
   15MOL     C615714   7.004   2.989   6.155 -0.1882  0.0953  0.2811
   15MOL     C715715   6.998   3.128   6.213 -0.5901 -0.1463 -0.4437
   15MOL     C815716   6.918   3.233   6.132  0.1210 -0.1818 -0.5916
   15MOL     C915717   6.917   3.372   6.198  0.7660 -0.0272 -0.5303
   15MOL    C1015718   7.057   3.443   6.199 -0.4309  0.0266 -0.1882
   15MOL    C1115719   7.060   3.598   6.248 -0.3904 -0.5014  0.5039
   15MOL    C1215720   7.192   3.663   6.226 -0.3246  0.1865 -0.3033
   15MOL    C1315721   7.212   3.799   6.289 -0.4693 -0.3739 -0.4553
   15MOL    O1415722   7.118   3.873   6.316 -0.4205  0.0824 -0.0243
   15MOL    N1515723   7.340   3.828   6.307 -0.4350 -0.4586  0.2916
   15MOL    C1615724   7.386   3.948   6.381 -0.1403 -0.9431 -0.5090
   15MOL    C1715725   7.542   3.965   6.371  0.0088 -0.4709 -0.5314
   15MOL    C1815726   7.594   4.094   6.448  0.7202 -0.2924  0.4002
   15MOL    C1915727   7.609   4.080   6.599 -0.3872 -0.5360 -0.0632
   15MOL    C2015728   7.630   4.208   6.688  0.3663 -0.3027 -0.7957
   15MOL    C2115729   7.629   4.163   6.839 -0.3334 -0.0540 -0.1709
   15MOL    N2215730   7.639   4.272   6.933  0.1046 -0.6323  0.9050
   15MOL    H2315731   7.254   2.739   6.122 -0.5086  3.7265 -0.2583
   15MOL    H2415732   7.096   2.718   6.183  0.9469 -0.8316  0.8369
   15MOL    H2515733   7.006   2.795   5.953  0.8034 -0.1435 -1.7744
   15MOL    H2615734   7.168   2.808   5.904  2.1247 -1.4611  1.1915
   15MOL    H2715735   7.114   3.030   5.960 -0.2040  2.1356  1.2739
   15MOL    H2815736   7.212   2.981   6.096 -0.0218  3.1762  0.2596
   15MOL    H2915737   6.905   2.968   6.114 -0.5533  0.0697  1.1733
   15MOL    H3015738   7.020   2.921   6.239  0.7120 -2.0031 -1.5307
   15MOL    H3115739   7.098   3.166   6.234 -0.8664  0.7787 -0.7714
   15MOL    H3215740   6.945   3.125   6.308 -0.4888  0.1975 -0.3763
   15MOL    H3315741   6.936   3.233   6.025 -2.5806  2.0741 -1.1089
   15MOL    H3415742   6.811   3.218   6.121 -0.3386  0.4792  2.3966
   15MOL    H3515743   6.850   3.441   6.147  1.0077  2.5738  2.4881
   15MOL    H3615744   6.879   3.363   6.300 -0.8558  4.3002 -0.6332
   15MOL    H3715745   7.132   3.399   6.265  0.2788  2.6311  0.8233
   15MOL    H3815746   7.102   3.436   6.100 -0.9238 -0.2230 -0.3945
   15MOL    H3915747   7.028   3.595   6.352 -1.5211  0.6202  0.2028
   15MOL    H4015748   6.993   3.659   6.187  0.8155  0.3469  0.0099
   15MOL    H4115749   7.272   3.598   6.260 -1.6876 -1.1800  0.3876
   15MOL    H4215750   7.212   3.667   6.119 -1.6208  0.2219 -0.5574
   15MOL    H4315751   7.411   3.766   6.271 -0.8125 -1.0418  0.5278
   15MOL    H4415752   7.359   3.932   6.486  0.1668  0.0668 -0.2671
   15MOL    H4515753   7.336   4.041   6.353  1.2944  0.2659  0.8561
   15MOL    H4615754   7.571   3.975   6.267 -2.4357 -1.3373 -1.3333
   15MOL    H4715755   7.583   3.871   6.409  0.3248  0.3416  1.1724
   15MOL    H4815756   7.688   4.123   6.400  2.0379 -1.7586  2.0112
   15MOL    H4915757   7.527   4.177   6.426  0.9985  0.0146  0.7185
   15MOL    H5015758   0.001   4.012   6.620 -1.6903 -2.2406 -0.2499
   15MOL    H5115759   7.517   4.033   6.635  0.0355 -2.7458 -1.7743
   15MOL    H5215760   0.040   4.238   6.662  0.5546  0.0428  0.3289
   15MOL    H5315761   7.559   4.290   6.672 -2.6972 -1.9206  3.7545
   15MOL    H5415762   7.550   4.089   6.852 -1.7137  1.6466  1.1863
   15MOL    H5515763   0.023   4.096   6.847 -1.1031 -0.8589  1.3794
   15MOL    H5615764   7.565   4.341   6.925  0.9824  0.1142 -0.8648
   15MOL    H5715765   7.094   2.496   6.111 -0.4696 -0.3111 -0.8029
   15MOL    C5815766   0.057   4.284   7.010  0.4008  0.0519  0.6530
   15MOL    O5915767   0.140   4.189   7.032  0.0918 -0.3769  0.1118
   15MOL    C6015768   0.076   4.422   7.076  0.3073  0.0368  0.6049
   15MOL    C6115769   0.110   4.404   7.221 -0.6840  0.0614 -0.4026
   15MOL    C6215770   7.686   4.348   7.304 -0.3583  0.0556  0.1237
   15MOL    C6315771   0.029   4.321   7.454  0.1168  0.0781 -0.3812
   15MOL    C6415772   7.602   4.292   7.536 -0.6929 -0.0396  0.4615
   15MOL    C6515773   7.550   4.154   7.505 -0.1063 -0.9677  0.7397
   15MOL    C6615774   7.447   4.097   7.599 -0.2404  0.5404  0.3642
   15MOL    C6715775   7.311   4.165   7.631  0.0187  0.4313 -0.0890
   15MOL    C6815776   7.209   4.075   0.010 -0.1312 -0.1114 -0.2149
   15MOL    C6915777   7.228   4.069   0.163  0.3800 -0.0199  0.8795
   15MOL    C7015778   7.114   3.992   0.221 -0.1730 -0.3718  0.5954
   15MOL    O7115779   7.077   3.881   0.172 -0.6625  0.6447  0.5657
   15MOL    N7215780   7.058   4.043   0.331 -0.2076  0.2609 -0.6658
   15MOL    C7315781   6.970   3.966   0.422 -0.3329  0.0904 -0.3929
   15MOL    C7415782   6.926   4.051   0.543 -0.2222  0.3641 -0.2462
   15MOL    C7515783   6.831   3.976   0.633 -0.3938 -0.2235  0.0206
   15MOL    C7615784   6.768   4.054   0.754 -0.4342  0.3964 -0.2467
   15MOL    C7715785   6.706   3.956   0.861  0.1269 -0.2882 -0.1575
   15MOL    C7815786   6.586   4.016   0.946 -0.2896  0.1167 -0.0877
   15MOL    N7915787   6.466   4.015   0.867  0.0891 -0.1281 -0.1564
   15MOL    H8015788   7.687   4.493   7.057  2.0451  1.7075 -0.6695
   15MOL    H8115789   0.156   4.471   7.020 -1.6050  1.1906 -1.2174
   15MOL    H8215790   0.203   4.347   7.223 -1.5616 -1.3783  2.2181
   15MOL    H8315791   0.136   4.497   7.271  0.5048 -1.3568  1.7184
   15MOL    H8415792   7.653   4.248   7.277  0.9744 -0.5017  0.5093
   15MOL    H8515793   7.602   4.417   7.301  0.1258  0.6490  0.2122
   15MOL    H8615794   0.070   4.414   7.495 -1.1009  0.1074  0.8179
   15MOL    H8715795   0.105   4.245   7.469  0.0207  0.1008  0.2076
   15MOL    H8815796   7.624   4.299   7.643  0.5476  2.2523  0.0842
   15MOL    H8915797   7.517   4.358   7.523 -0.8915 -0.2474  0.7000
   15MOL    H9015798   7.637   4.088   7.508  0.2201 -0.6092 -0.4244
   15MOL    H9115799   7.518   4.160   7.401 -1.4956  2.0140  1.3036
   15MOL    H9215800   7.494   4.082   0.005  0.9112  1.0008 -0.1235
   15MOL    H9315801   7.433   3.992   7.572 -1.5261  0.5270  0.9996
   15MOL    H9415802   7.339   4.251   0.001 -0.4207 -0.4236  1.3333
   15MOL    H9515803   7.277   4.197   7.533 -0.0291 -1.3809 -0.6803
   15MOL    H9615804   7.211   3.983   7.644 -0.8393 -0.0877 -0.2762
   15MOL    H9715805   7.116   4.126   7.675  0.5148  0.4340 -1.4530
   15MOL    H9815806   7.314   4.002   0.170  0.8076  0.1665 -1.8276
   15MOL    H9915807   7.251   4.169   0.199 -3.2463  0.5599  1.7787
   15MOL   H10015808   7.097   4.133   0.355  3.1963 -1.2452 -0.2254
   15MOL   H10115809   7.020   3.873   0.447 -0.3587  0.7240  2.0877
   15MOL   H10215810   6.876   3.941   0.372 -0.3295  1.3923 -1.0649
   15MOL   H10315811   7.018   4.093   0.585 -0.7502  1.4152 -0.1231
   15MOL   H10415812   6.873   4.137   0.503  0.6046  1.4721  0.9878
   15MOL   H10515813   6.879   3.888   0.677 -0.3221  0.4054  1.2150
   15MOL   H10615814   6.749   3.936   0.573 -0.7387  1.4856 -0.6943
   15MOL   H10715815   6.848   4.106   0.806 -0.8094 -0.6243  1.3775
   15MOL   H10815816   6.703   4.127   0.706  1.4559  3.3240  1.5464
   15MOL   H10915817   6.775   3.910   0.933 -0.1745 -1.0322 -0.3343
   15MOL   H11015818   6.658   3.867   0.821  0.2948 -0.3438 -0.2359
   15MOL   H11115819   6.610   4.118   0.975 -1.4246  0.5974 -0.7913
   15MOL   H11215820   6.574   3.957   1.037 -0.0761 -0.6834 -0.5786
   15MOL   H11315821   6.481   4.006   0.767  2.0494  0.6284  0.0555
   15MOL   C11415822   6.344   4.066   0.893 -0.0724  0.5492  0.7148
   15MOL   O11515823   6.259   4.067   0.800 -0.8734  0.0237  0.0516
   15MOL   C11615824   6.315   4.128   1.031  0.0763 -0.1810 -0.5383
   15MOL   C11715825   6.173   4.191   1.053 -0.3159  0.9020  0.3863
   15MOL   C11815826   6.065   4.083   1.056  0.3859  0.6518 -0.3824
   15MOL   C11915827   6.050   4.001   1.189 -0.0773  0.2422 -0.0366
   15MOL   C12015828   5.954   4.064   1.284  0.3640 -0.2885  0.4186
   15MOL   C12115829   6.003   4.187   1.364  0.6008  0.5324 -0.1708
   15MOL   C12215830   6.131   4.145   1.444  0.0173  0.1337 -0.7430
   15MOL   C12315831   6.187   4.247   1.546 -0.6843  0.2892  0.6589
   15MOL   C12415832   6.301   4.177   1.623 -0.1450  0.3494 -0.4164
   15MOL   C12515833   6.253   4.104   1.745  0.5392  0.6236  0.1241
   15MOL   C12615834   6.248   4.185   1.874 -0.1828  0.9443 -0.5794
   15MOL   O12715835   6.276   4.306   1.884  0.9292 -0.4434 -0.0997
   15MOL   N12815836   6.183   4.120   1.976 -0.0672 -0.1562  0.1245
   15MOL   C12915837   6.165   4.176   2.115 -0.2065  0.0836  0.1423
   15MOL   C13015838   6.024   4.152   2.165 -0.2717  0.0967 -0.4256
   15MOL   C13115839   6.011   4.235   2.297  0.6026 -0.1839  0.5830
   15MOL   C13215840   5.868   4.261   2.356  0.4795  0.2212 -0.3962
   15MOL   C13315841   5.881   4.278   2.513 -0.0236  0.1295 -0.0653
   15MOL   C13415842   5.746   4.257   2.581  0.4709 -0.3393  0.0134
   15MOL   N13515843   5.660   4.370   2.558 -0.0338 -0.0475  0.1506
   15MOL   H13615844   6.336   4.049   1.102 -1.6616 -1.0915 -1.0167
   15MOL   H13715845   6.385   4.212   1.037 -0.1346 -0.1208  1.2639
   15MOL   H13815846   6.152   4.265   0.975  0.5906  2.1217  1.2621
   15MOL   H13915847   6.178   4.251   1.144 -0.5061  1.3208  0.1268
   15MOL   H14015848   5.974   4.135   1.026  1.3685  1.0134 -2.8394
   15MOL   H14115849   6.078   4.020   0.968  0.9927  1.4001 -0.8295
   15MOL   H14215850   6.016   3.903   1.157 -1.2023  1.2310 -1.9196
   15MOL   H14315851   6.148   3.978   1.232 -1.7979 -0.8543  3.4701
   15MOL   H14415852   5.869   4.105   1.228 -0.0354  1.1960  2.0891
   15MOL   H14515853   5.918   3.988   1.354  0.6686 -0.6152  0.2246
   15MOL   H14615854   5.918   4.222   1.423 -0.1429  1.4621 -1.7641
   15MOL   H14715855   6.022   4.278   1.305 -1.1454  1.0320  0.0046
   15MOL   H14815856   6.107   4.054   1.499  1.2858  1.3384  1.9132
   15MOL   H14915857   6.207   4.112   1.374  1.6669  1.1208  0.5604
   15MOL   H15015858   6.101   4.266   1.610 -0.2881  0.9480  1.0084
   15MOL   H15115859   6.226   4.335   1.495  0.0437 -0.0819  0.5671
   15MOL   H15215860   6.374   4.249   1.660 -1.3765  1.1372  0.5227
   15MOL   H15315861   6.363   4.121   1.554 -1.4525 -1.0606 -0.4811
   15MOL   H15415862   6.319   4.019   1.760  0.1703  0.2465 -0.4080
   15MOL   H15515863   6.156   4.058   1.732  1.4829 -1.0859 -0.9917
   15MOL   H15615864   6.173   4.020   1.973  0.8932 -0.2740  0.4870
   15MOL   H15715865   6.195   4.280   2.117 -1.0977  0.3334  2.1471
   15MOL   H15815866   6.232   4.122   2.182  1.5314  1.1717 -0.7085
   15MOL   H15915867   6.009   4.046   2.186 -1.0651  0.6244  1.8175
   15MOL   H16015868   5.961   4.178   2.080  0.4695 -1.2618 -1.4253
   15MOL   H16115869   6.076   4.182   2.367 -0.8209 -0.1122  1.9759
   15MOL   H16215870   6.069   4.326   2.280  1.3475 -0.9294 -1.0602
   15MOL   H16315871   5.821   4.343   2.303 -0.2757  0.3489  0.4628
   15MOL   H16415872   5.812   4.168   2.344  2.5779 -1.0290 -0.8518
   15MOL   H16515873   5.904   4.384   2.524  0.3148 -0.2493  3.1156
   15MOL   H16615874   5.971   4.230   2.551 -0.1177 -0.2686 -0.3362
   15MOL   H16715875   5.695   4.164   2.554  1.0979 -1.0443  1.2065
   15MOL   H16815876   5.754   4.256   2.689  1.5014  0.8275 -0.0435
   15MOL   H16915877   5.703   4.460   2.545  1.1605 -0.8427 -1.4848
   15MOL   C17015878   5.527   4.375   2.588  0.4249  1.2426  0.1177
   15MOL   O17115879   5.467   4.282   2.642  0.4369  0.6436  0.1939
   15MOL   C17215880   5.440   4.500   2.548  0.0407 -0.2758 -0.6947
   15MOL   C17315881   5.332   4.470   2.445  0.3821  0.1771 -0.0712
   15MOL   C17415882   5.365   4.480   2.291  0.4809  0.4195 -0.9202
   15MOL   C17515883   5.237   4.444   2.206 -0.2511  0.7183  0.5608
   15MOL   C17615884   5.273   4.416   2.064  0.2190 -0.2386 -0.3879
   15MOL   C17715885   5.158   4.380   1.980  0.1525  0.0995  0.6537
   15MOL   C17815886   5.202   4.354   1.837  0.2014 -0.3681  0.4626
   15MOL   C17915887   5.093   4.361   1.721  0.1893 -0.4657 -0.0057
   15MOL   C18015888   5.109   4.288   1.585  0.6015  0.4271 -0.2165
   15MOL   C18115889   5.021   4.163   1.576 -0.0239  0.1425  0.3570
   15MOL   C18215890   5.066   4.073   1.457 -0.0700 -0.3483 -0.3689
   15MOL   O18315891   5.056   4.112   1.338 -0.0849  0.7038  0.3959
   15MOL   N18415892   5.120   3.951   1.473 -0.5591 -0.0428  0.1963
   15MOL   C18515893   5.170   3.855   1.372 -1.1143 -0.0066  0.0461
   15MOL   C18615894   5.106   3.715   1.393 -0.9678 -0.4061 -0.3987
   15MOL   C18715895   5.175   3.614   1.299  0.1805 -0.3234 -0.3072
   15MOL   C18815896   5.138   3.621   1.147 -0.3331  0.1114  0.2363
   15MOL   C18915897   4.996   3.570   1.120  0.2562 -0.2069 -0.6445
   15MOL   C19015898   4.960   3.584   0.973  0.0362  0.3813  0.2545
   15MOL   N19115899   4.814   3.559   0.954  0.2430 -0.2144 -0.5946
   15MOL   H19215900   5.401   4.547   2.638 -0.4812 -2.3807  0.2245
   15MOL   H19315901   5.505   4.573   2.501  0.7368 -0.7587 -0.4964
   15MOL   H19415902   5.245   4.535   2.454 -0.0969 -0.2875 -1.2015
   15MOL   H19515903   5.290   4.372   2.468  2.2863 -0.3846  1.0666
   15MOL   H19615904   5.449   4.414   2.268  1.7352  1.6943 -0.0763
   15MOL   H19715905   5.398   4.579   2.262  0.1007  0.3911 -1.4493
   15MOL   H19815906   5.184   4.354   2.239  1.1543  0.7266  2.9491
   15MOL   H19915907   5.165   4.524   2.218 -0.9583  0.0848  0.5981
   15MOL   H20015908   5.338   4.497   2.031 -0.9033  0.0902 -1.8386
   15MOL   H20115909   5.339   4.330   2.068 -0.3422 -0.6445  0.4715
   15MOL   H20215910   5.084   4.461   1.980 -2.0757 -1.8953  0.9848
   15MOL   H20315911   5.095   4.301   2.020 -0.3120 -0.5288 -1.2907
   15MOL   H20415912   5.270   4.430   1.798  2.3917 -2.0466  0.9043
   15MOL   H20515913   5.256   4.260   1.838 -0.8418 -0.9774  2.2780
   15MOL   H20615914   4.998   4.342   1.771  0.5702  0.5076  1.0930
   15MOL   H20715915   5.092   4.468   1.699 -1.5275 -0.3189  0.6947
   15MOL   H20815916   5.215   4.269   1.569  1.2233  2.0082  1.8412
   15MOL   H20915917   5.071   4.359   1.512  0.0047 -0.3698 -0.6837
   15MOL   H21015918   5.019   4.111   1.671  0.8581 -0.0147  0.2958
   15MOL   H21115919   4.917   4.188   1.558  0.1265  0.5609  0.0509
   15MOL   H21215920   5.116   3.908   1.564 -0.9835 -1.4730 -0.4800
   15MOL   H21315921   5.279   3.843   1.378 -1.1058 -0.6092 -1.1333
   15MOL   H21415922   5.146   3.886   1.270  1.3951 -0.1128 -0.6106
   15MOL   H21515923   5.122   3.675   1.494 -0.9535 -1.6918 -0.9031
   15MOL   H21615924   5.000   3.723   1.370 -0.8351  0.4661 -0.7391
   15MOL   H21715925   5.283   3.625   1.296  0.2640 -0.8694  0.4588
   15MOL   H21815926   5.179   3.513   1.339  1.6531  0.1528  0.8070
   15MOL   H21915927   5.211   3.563   1.090 -1.0873 -0.4660 -0.1539
   15MOL   H22015928   5.143   3.723   1.111 -0.9241 -0.2255 -0.8048
   15MOL   H22115929   4.922   3.633   1.171  0.0200 -0.4179 -0.7248
   15MOL   H22215930   4.982   3.466   1.147  1.0303 -0.8308 -2.5762
   15MOL   H22315931   5.028   3.527   0.911  1.5270  0.8080  1.4652
   15MOL   H22415932   4.983   3.687   0.944  0.5816  0.2971  0.3887
   15MOL   H22515933   4.745   3.621   0.994 -0.4510 -2.1782  1.3580
   15MOL   C22615934   4.757   3.472   0.865  0.5578  0.0045  0.1638
   15MOL   O22715935   4.827   3.390   0.809  0.3160  0.1951  0.0265
   15MOL   C22815936   4.605   3.466   0.842  0.4736 -0.1680  0.4625
   15MOL   C22915937   4.540   3.328   0.873 -0.3424 -0.5604  0.1398
   15MOL   C23015938   4.568   3.223   0.760 -0.7899  0.2405  0.2402
   15MOL   C23115939   4.503   3.084   0.784 -0.3232 -0.1881 -0.0766
   15MOL   C23215940   4.528   3.016   0.929 -0.8139 -0.0325 -0.9188
   15MOL   C23315941   4.676   2.968   0.957 -0.2649 -0.2299  0.0137
   15MOL   C23415942   4.684   2.893   1.092  0.6768 -0.7057  0.6262
   15MOL   C23515943   4.816   2.828   1.122  0.1582  0.6316  0.5919
   15MOL   C23615944   4.815   2.730   1.243  0.2961 -0.4037 -0.8726
   15MOL   C23715945   4.759   2.794   1.371  0.4239  0.2712  1.2472
   15MOL   C23815946   4.771   2.683   1.487 -0.4896  0.2539 -0.7292
   15MOL   O23915947   4.870   2.622   1.507 -0.1051  0.0441  0.0807
   15MOL   N24015948   4.658   2.665   1.565  0.3992  0.8322 -0.0065
   15MOL   C24115949   4.651   2.568   1.676 -0.4370 -0.7534 -0.1941
   15MOL   C24215950   4.519   2.569   1.749  0.4069 -0.7562 -0.0627
   15MOL   C24315951   4.524   2.457   1.855 -0.5484  0.5223 -0.2804
   15MOL   C24415952   4.386   2.426   1.918 -0.2877  0.2298  0.1418
   15MOL   C24515953   4.399   2.328   2.036  0.6806  1.0127 -0.2129
   15MOL   C24615954   4.258   2.272   2.085  0.1769 -0.1699 -0.5043
   15MOL   N24715955   4.165   2.381   2.107 -0.2365 -0.6675 -0.0961
   15MOL   H24815956   4.575   3.493   0.741  3.5977 -1.8281 -0.9557
   15MOL   H24915957   4.564   3.538   0.913  0.3750 -0.4913  0.7369
   15MOL   H25015958   4.565   3.303   0.976  0.5356 -0.5230 -0.0524
   15MOL   H25115959   4.434   3.351   0.879 -0.0623  1.2085 -1.2115
   15MOL   H25215960   4.525   3.258   0.666 -1.7118  2.0683  1.3091
   15MOL   H25315961   4.673   3.200   0.748 -0.4648  1.0481  1.4625
   15MOL   H25415962   4.535   3.006   0.714 -1.8262 -0.4867 -0.4342
   15MOL   H25515963   4.396   3.101   0.777  0.1895  3.1146 -0.5570
   15MOL   H25615964   4.464   2.929   0.941  0.5645 -1.2706 -2.2392
   15MOL   H25715965   4.508   3.092   1.004  1.2894  0.3344 -0.7033
   15MOL   H25815966   4.712   2.903   0.878  2.1376 -0.0477  0.9051
   15MOL   H25915967   4.742   3.054   0.946 -0.5842  0.4182  2.8185
   15MOL   H26015968   4.608   2.815   1.094 -0.3765  0.2957  0.8218
   15MOL   H26115969   4.665   2.961   1.176  1.8353  0.5620 -0.1308
   15MOL   H26215970   4.840   2.764   1.037  0.5778  1.8017 -0.1802
   15MOL   H26315971   4.889   2.905   1.146  1.0096 -0.2679  0.9421
   15MOL   H26415972   4.740   2.656   1.214  0.1036 -1.2171  1.5802
   15MOL   H26515973   4.911   2.682   1.258  0.3157  0.5691  2.4348
   15MOL   H26615974   4.834   2.868   1.398 -1.3756  2.2927  0.8980
   15MOL   H26715975   4.664   2.849   1.369  0.9927  1.2576  0.7046
   15MOL   H26815976   4.580   2.713   1.522  0.3524  1.1376  0.4182
   15MOL   H26915977   4.738   2.600   1.734 -1.6477 -0.3050  1.4008
   15MOL   H27015978   4.663   2.475   1.620  0.3766 -1.4880  1.1696
   15MOL   H27115979   4.444   2.551   1.672  0.3491 -0.0177 -0.1790
   15MOL   H27215980   4.511   2.667   1.796  0.1173 -1.2472  0.9245
   15MOL   H27315981   4.571   2.368   1.812  0.7727  0.4020  1.3681
   15MOL   H27415982   4.596   2.490   1.929  2.0039  0.5499 -2.6939
   15MOL   H27515983   4.340   2.384   1.828  1.8873 -1.8859 -0.0594
   15MOL   H27615984   4.331   2.516   1.946 -0.2768  0.0077  0.8884
   15MOL   H27715985   4.458   2.369   2.118  1.7490 -1.8211  0.4889
   15MOL   H27815986   4.454   2.241   2.000 -0.6410  0.1211 -0.1100
   15MOL   H27915987   4.267   2.211   2.175  0.4608  1.2161  0.4218
   15MOL   H28015988   4.220   2.198   2.014  1.4609 -2.6137  1.2844
   15MOL   H28115989   4.092   2.399   2.039 -0.4672  1.1073  0.5903
   15MOL   C28215990   4.156   2.447   2.224  0.4675 -0.0549 -0.3951
   15MOL   O28315991   4.234   2.426   2.316 -0.4217  0.0508  0.1268
   15MOL   C28415992   4.042   2.542   2.230  0.5261 -0.1040 -0.3206
   15MOL   C28515993   3.980   2.559   2.374  0.4324 -0.4319  0.1255
   15MOL   C28615994   4.033   2.683   2.454 -0.6677  0.5744  0.1744
   15MOL   C28715995   3.964   2.819   2.417 -0.2951 -0.9950 -0.0402
   15MOL   C28815996   3.995   2.894   2.280 -0.3585 -0.4537  0.2964
   15MOL   C28915997   3.894   3.007   2.250  0.1529 -0.2618  0.1887
   15MOL   C29015998   3.922   3.076   2.119  0.1218  0.1241 -0.4725
   15MOL   C29115999   3.853   3.218   2.123  0.9966  0.4319 -0.3152
   15MOL   C29216000   3.876   3.283   1.985  0.0591  0.0063 -0.5388
   15MOL   C29316001   3.817   3.425   1.984 -0.0444 -0.7010  0.2929
   15MOL   C29416002   3.894   3.536   2.054 -0.2738  0.7251  0.1621
   15MOL   O29516003   4.015   3.517   2.066 -0.0310  0.4144  0.0295
   15MOL   N29616004   3.827   3.632   2.118  1.4723 -0.6845  0.5055
   15MOL   C29716005   3.894   3.737   2.195  0.8653  0.1434  0.6873
   15MOL   C29816006   3.793   3.826   2.270  0.1265 -0.0451  0.6971
   15MOL   C29916007   3.730   3.762   2.396  0.8575  0.5078  0.1826
   15MOL   C30016008   3.605   3.846   2.435 -0.2520  0.0126  0.0973
   15MOL   C30116009   3.542   3.775   2.557  0.1916  0.9028 -0.2918
   15MOL   C30216010   3.408   3.846   2.584 -0.6366 -0.0850 -1.0792
   15MOL   N30316011   3.337   3.799   2.702  0.4352  0.4795  0.4181
   15MOL   H30416012   4.078   2.638   2.193  1.1621 -1.2890 -2.8682
   15MOL   H30516013   3.961   2.514   2.163  0.2482 -2.6328  0.9955
   15MOL   H30616014   3.983   2.470   2.437  1.1395 -2.0285 -2.1049
   15MOL   H30716015   3.872   2.558   2.364  0.3593  1.8928  0.5543
   15MOL   H30816016   3.998   2.666   2.555 -1.2331 -1.2426 -0.3150
   15MOL   H30916017   4.142   2.692   2.455 -0.6199 -0.0062  1.0876
   15MOL   H31016018   3.977   2.879   2.507  2.5876 -1.0031 -0.4114
   15MOL   H31116019   3.858   2.794   2.410 -1.1044  1.1402  3.5562
   15MOL   H31216020   4.092   2.943   2.277 -0.7039  0.3350  1.6796
   15MOL   H31316021   4.001   2.830   2.192  2.6449  0.5718 -0.3094
   15MOL   H31416022   3.794   2.963   2.256  0.4085 -0.8930 -0.1818
   15MOL   H31516023   3.901   3.082   2.329  0.6086 -1.0425  0.8905
   15MOL   H31616024   3.891   3.014   2.035 -0.1000 -0.4204  0.0120
   15MOL   H31716025   4.029   3.081   2.104  0.3860  1.0922  1.5450
   15MOL   H31816026   3.902   3.276   2.201 -0.1931  1.6323 -0.4546
   15MOL   H31916027   3.746   3.208   2.138  1.1250 -2.3674 -0.8535
   15MOL   H32016028   3.983   3.281   1.962  0.1349  0.3352 -0.2291
   15MOL   H32116029   3.820   3.222   1.915  0.6513 -1.4224  0.2092
   15MOL   H32216030   3.806   3.453   1.879 -0.7312 -0.4858  0.4196
   15MOL   H32316031   3.723   3.413   2.037 -0.4246 -1.3577 -0.5080
   15MOL   H32416032   3.727   3.641   2.104  1.3571  0.9771  2.1764
   15MOL   H32516033   3.951   3.794   2.123  1.6860  0.6727  1.7460
   15MOL   H32616034   3.963   3.680   2.258 -0.3777 -0.1839  1.7813
   15MOL   H32716035   3.720   3.864   2.199  0.0563 -2.5780 -0.6414
   15MOL   H32816036   3.856   3.910   2.300 -0.7380  1.3567 -1.2995
   15MOL   H32916037   3.799   3.748   2.479  0.5267  0.3799  0.4368
   15MOL   H33016038   3.693   3.665   2.362 -0.5571  0.5229  1.6120
   15MOL   H33116039   3.623   3.953   2.437  0.1970  0.0170 -2.5565
   15MOL   H33216040   3.534   3.847   2.352 -1.1506  0.0650  0.8498
   15MOL   H33316041   3.608   3.772   2.644  0.0453  1.1733 -0.1709
   15MOL   H33416042   3.511   3.673   2.539  0.2200  0.6426  1.0483
   15MOL   H33516043   3.427   3.953   2.590 -1.3033 -0.0736  1.4140
   15MOL   H33616044   3.344   3.831   2.498 -0.6968  0.9796 -1.2288
   15MOL   H33716045   3.375   3.726   2.760  0.3287 -1.0500 -1.4132
   15MOL   C33816046   3.212   3.845   2.732 -0.0889  0.0718  0.2868
   15MOL   O33916047   3.146   3.919   2.666 -0.1079 -1.1247 -0.1456
   15MOL   C34016048   3.159   3.788   2.863  0.1884 -0.2040 -0.6571
   15MOL   C34116049   3.026   3.726   2.840  0.0293 -0.8485 -0.1939
   15MOL   C34216050   3.043   3.582   2.811  0.1656  0.0588 -0.0049
   15MOL   C34316051   3.053   3.498   2.936  0.3108 -0.1395 -0.5765
   15MOL   C34416052   3.107   3.358   2.909 -0.1777  0.3781 -0.4557
   15MOL   C34516053   3.017   3.264   2.837 -0.4281 -0.0418 -0.0775
   15MOL   C34616054   3.069   3.123   2.791 -0.2710 -0.1101  0.2998
   15MOL   C34716055   2.962   3.019   2.765  0.8796 -0.0556  0.1180
   15MOL   C34816056   2.899   3.034   2.621 -0.2312 -0.4916 -0.7396
   15MOL   C34916057   2.796   2.927   2.595  0.2156 -0.2863  0.6327
   15MOL   C35016058   2.747   2.921   2.448 -0.2905 -0.4890  0.0563
   15MOL   O35116059   2.639   2.975   2.425 -0.3805 -0.3421  0.0456
   15MOL   N35216060   2.811   2.845   2.358 -0.4916 -0.2894 -0.1470
   15MOL   C35316061   2.784   2.850   2.215 -0.3249 -1.0301 -0.3678
   15MOL   C35416062   2.917   2.867   2.145 -0.0995 -0.1204  0.6047
   15MOL   C35516063   2.905   2.861   1.990 -0.4790 -0.5137  0.0890
   15MOL   C35616064   3.048   2.859   1.926 -0.0396  0.9847  0.0877
   15MOL   C35716065   3.049   2.812   1.773  0.6914 -0.1638 -0.4004
   15MOL   C35816066   3.182   2.846   1.706  0.3583 -0.0185 -0.4629
   15MOL   N35916067   3.173   2.804   1.567 -0.6859  0.2474  0.2285
   15MOL   H36016068   3.154   3.870   2.935 -1.8410 -0.5641 -0.3829
   15MOL   H36116069   3.223   3.714   2.911  1.4181 -0.0920 -2.0621
   15MOL   H36216070   2.958   3.739   2.924 -0.3637  1.9252 -0.8864
   15MOL   H36316071   2.971   3.784   2.766  1.5691 -0.5325 -1.1148
   15MOL   H36416072   3.139   3.568   2.760 -1.1422 -0.9185 -2.2997
   15MOL   H36516073   2.970   3.545   2.739  1.2663 -0.8998 -0.6438
   15MOL   H36616074   3.119   3.542   3.011  1.5504 -0.6877 -1.3297
   15MOL   H36716075   2.957   3.492   2.988  0.8577  2.0742  0.7680
   15MOL   H36816076   3.200   3.369   2.852  0.2526 -0.3310  0.1030
   15MOL   H36916077   3.136   3.316   3.005 -1.8387  0.9279  0.3023
   15MOL   H37016078   2.933   3.257   2.905 -0.7368  3.3498 -0.0437
   15MOL   H37116079   2.990   3.316   2.745  0.5490  1.8120  0.6617
   15MOL   H37216080   3.146   3.124   2.713 -3.6442 -1.6172 -3.1737
   15MOL   H37316081   3.120   3.074   2.875  0.9524 -1.0627 -0.9738
   15MOL   H37416082   3.002   2.919   2.782  1.7957  0.3495  0.3759
   15MOL   H37516083   2.886   3.038   2.842  0.2341  0.9772 -0.7569
   15MOL   H37616084   2.975   3.040   2.542 -0.0745 -1.5602 -0.6771
   15MOL   H37716085   2.856   3.134   2.617  0.6420 -0.1161 -0.8702
   15MOL   H37816086   2.835   2.827   2.615 -0.4553 -0.3196  1.7839
   15MOL   H37916087   2.715   2.956   2.661 -0.8210  2.0541 -1.5705
   15MOL   H38016088   2.892   2.794   2.391 -0.7209  1.0055  2.6132
   15MOL   H38116089   2.708   2.928   2.203  1.0434  0.4810  0.5025
   15MOL   H38216090   2.738   2.752   2.203 -1.5788 -0.5575  0.4886
   15MOL   H38316091   2.984   2.787   2.178  1.1459  2.0082  3.4162
   15MOL   H38416092   2.963   2.959   2.182  0.3276  0.5828 -1.6156
   15MOL   H38516093   2.864   2.762   1.967 -0.4633 -0.0051 -2.1657
   15MOL   H38616094   2.851   2.941   1.940  0.8215 -0.2797 -0.9607
   15MOL   H38716095   3.089   2.959   1.935  1.3405  0.2972  1.5943
   15MOL   H38816096   3.108   2.800   1.994 -0.2143  3.0278  2.0570
   15MOL   H38916097   2.968   2.860   1.719 -0.0271 -0.1793  0.6582
   15MOL   H39016098   3.018   2.707   1.766 -1.6389  0.5493 -1.3288
   15MOL   H39116099   3.186   2.953   1.724 -1.9929 -0.1765  1.2970
   15MOL   H39216100   3.259   2.793   1.762 -0.8223  0.5983  1.8420
   15MOL   H39316101   3.092   2.753   1.536 -1.7920  0.8964  1.9769
   15MOL   C39416102   3.281   2.819   1.489  0.3975  0.0677  0.3003
   15MOL   O39516103   3.388   2.863   1.530 -0.6547  0.4964  0.2332
   15MOL   C39616104   3.254   2.790   1.338  0.6172 -0.7747 -0.3477
   15MOL   C39716105   3.329   2.664   1.296  0.1082  0.4310 -0.8186
   15MOL   C39816106   3.470   2.684   1.240  0.8349  0.7607 -0.1894
   15MOL   C39916107   3.524   2.563   1.164  0.2805  0.2737 -0.1212
   15MOL   C40016108   3.678   2.545   1.138  0.0737  0.3854 -0.8676
   15MOL   C40116109   3.766   2.542   1.262 -0.0410 -0.6572 -0.1957
   15MOL   C40216110   3.914   2.506   1.230 -0.2743 -0.3633 -0.3765
   15MOL   C40316111   4.012   2.544   1.345  0.1391  0.4434  0.1500
   15MOL   C40416112   4.149   2.474   1.341  0.4825 -0.0511 -0.0004
   15MOL   C40516113   4.261   2.528   1.433  0.1930 -0.0620  0.6916
   15MOL   C40616114   4.310   2.667   1.401 -0.4598 -0.4563 -0.4326
   15MOL   O40716115   4.403   2.721   1.463 -0.2057  0.3533  0.3329
   15MOL   N40816116   4.256   2.731   1.295 -0.4673  0.8165  0.0727
   15MOL   C40916117   4.288   2.862   1.242 -0.1122 -0.0127  0.2830
   15MOL   C41016118   4.216   2.892   1.105 -1.2500 -0.5786 -0.1004
   15MOL   C41116119   4.061   2.864   1.113  0.2835  0.0635  0.5905
   15MOL   C41216120   3.992   2.890   0.980 -0.0001 -0.2637  0.7122
   15MOL   C41316121   3.841   2.898   0.985  0.2056 -0.4016  0.3664
   15MOL   C41416122   3.762   2.893   0.855 -0.4547  0.4571  0.3575
   15MOL   N41516123   3.757   3.017   0.777 -0.0019 -0.6708 -0.2099
   15MOL   H41616124   3.272   2.883   1.284 -1.1254  0.5283  1.2367
   15MOL   H41716125   3.148   2.766   1.330  0.3607 -0.7977  2.5277
   15MOL   H41816126   3.263   2.606   1.231  1.1166 -2.1485  0.3896
   15MOL   H41916127   3.330   2.596   1.382 -2.9035  0.9552 -0.2858
   15MOL   H42016128   3.543   2.695   1.319  2.2811  2.0657 -1.6613
   15MOL   H42116129   3.473   2.771   1.175  0.8083 -0.6462 -2.1363
   15MOL   H42216130   3.464   2.552   1.073 -2.8586  1.7598  1.6779
   15MOL   H42316131   3.499   2.467   1.210  0.6488 -1.8706 -4.1244
   15MOL   H42416132   3.692   2.446   1.095 -1.8817  0.0044 -0.7149
   15MOL   H42516133   3.721   2.622   1.075 -1.9250  1.9965 -0.3429
   15MOL   H42616134   3.766   2.641   1.307  0.8581 -0.6689 -0.1606
   15MOL   H42716135   3.718   2.484   1.341 -2.0211  0.0599 -0.8286
   15MOL   H42816136   3.926   2.403   1.197 -0.8630 -0.2919 -0.8185
   15MOL   H42916137   3.958   2.567   1.151 -0.5062  1.2155  0.6905
   15MOL   H43016138   4.026   2.652   1.344  0.2965  0.4263  0.4577
   15MOL   H43116139   3.971   2.524   1.444 -0.2433  0.4256 -0.0140
   15MOL   H43216140   4.169   2.478   1.234  0.9892 -1.7437  0.0223
   15MOL   H43316141   4.147   2.366   1.354  0.2109 -0.0505 -0.0402
   15MOL   H43416142   4.240   2.526   1.540  0.9532 -0.8926  0.8267
   15MOL   H43516143   4.347   2.461   1.431  0.6472  0.5185  0.5787
   15MOL   H43616144   4.181   2.674   1.259 -0.1651  1.8365 -2.2164
   15MOL   H43716145   4.397   2.865   1.239 -0.1527  0.3031 -1.5787
   15MOL   H43816146   4.261   2.946   1.306  1.6250  0.2900  0.6413
   15MOL   H43916147   4.275   2.840   1.029  1.5194  2.0337  0.1566
   15MOL   H44016148   4.235   2.998   1.093  2.7507 -1.0709  1.0125
   15MOL   H44116149   4.034   2.759   1.120  0.4853  0.0708  1.5555
   15MOL   H44216150   4.015   2.920   1.195 -1.8981 -1.6363  0.5573
   15MOL   H44316151   4.022   2.986   0.939  1.5772 -0.7485  0.6903
   15MOL   H44416152   4.030   2.825   0.901 -0.4192  0.1806  0.1343
   15MOL   H44516153   3.808   2.816   1.049  0.0147 -1.3637 -0.9406
   15MOL   H44616154   3.802   2.986   1.036 -1.1117 -1.0926  0.5869
   15MOL   H44716155   3.811   2.814   0.797  0.1678  1.5359 -0.6110
   15MOL   H44816156   3.658   2.868   0.875 -0.9553  0.6297 -1.8277
   15MOL   H44916157   3.764   3.103   0.829  0.6167 -1.2013  0.6033
   15MOL   C45016158   3.723   3.029   0.646  0.2960  0.6145 -0.5102
   15MOL   O45116159   3.694   2.929   0.585  0.6125  0.0338 -0.0372
   15MOL   C45216160   3.715   3.169   0.587  0.2034 -0.2192 -0.1458
   15MOL   C45316161   3.757   3.176   0.448  0.5686 -0.3488  0.5221
   15MOL   C45416162   3.767   3.314   0.386  0.5531 -0.2621 -0.4230
   15MOL   C45516163   3.810   3.291   0.241  0.7591  0.3228 -0.2318
   15MOL   C45616164   3.800   3.411   0.145  0.0853 -0.4886 -0.0500
   15MOL   C45716165   3.652   3.420   0.091  0.0806 -0.9977 -0.6027
   15MOL   C45816166   3.613   3.533   7.687 -0.5972  0.4785 -0.0490
   15MOL   C45916167   3.464   3.547   7.679  0.2999  0.3677  0.0151
   15MOL   C46016168   3.394   3.430   7.601 -0.5640  0.6886  0.3165
   15MOL   C46116169   3.244   3.450   7.609  0.1768 -0.1483  0.3487
   15MOL   C46216170   3.185   3.571   7.536  0.4969  0.6020 -0.9036
   15MOL   O46316171   3.230   3.604   7.427 -0.3545 -0.3235 -0.4348
   15MOL   N46416172   3.086   3.635   7.599  0.0650  0.4035 -0.1898
   15MOL   C46516173   2.998   3.733   7.532 -0.2787  0.3278 -0.1765
   15MOL   C46616174   2.888   3.789   7.622 -0.1053  0.5034  0.5522
   15MOL   C46716175   2.762   3.826   7.538 -0.6174 -0.0709 -0.3986
   15MOL   C46816176   2.775   3.951   7.450  0.7007 -0.0148  0.4978
   15MOL   C46916177   2.640   3.983   7.374 -0.1038 -0.1136 -0.3504
   15MOL   C47016178   2.655   4.042   7.236 -0.3283 -0.0080 -0.4063
   15MOL   N47116179   2.701   4.183   7.260  0.5918  0.2076  0.1939
   15MOL   H47216180   3.614   3.207   0.597  0.1518 -0.6892  1.2463
   15MOL   H47316181   3.772   3.239   0.649 -0.5070 -0.2326  0.5299
   15MOL   H47416182   3.683   3.116   0.394 -0.1355  1.0829 -0.1157
   15MOL   H47516183   3.858   3.137   0.430  0.5611  0.8016 -2.2715
   15MOL   H47616184   3.838   3.376   0.441 -0.9888  1.9717 -0.8934
   15MOL   H47716185   3.672   3.368   0.387  0.6308 -0.1142 -1.2541
   15MOL   H47816186   3.748   3.218   0.190  1.7703  0.1211 -1.1895
   15MOL   H47916187   3.914   3.257   0.241  0.5726 -0.2944 -2.1721
   15MOL   H48016188   3.866   3.380   0.064  1.1657 -2.3402  1.5041
   15MOL   H48116189   3.825   3.506   0.191  0.2161  1.5001 -3.9894
   15MOL   H48216190   3.587   3.432   0.178  1.1834 -0.2962  0.1364
   15MOL   H48316191   3.621   3.323   0.053  0.1993 -0.0656 -3.1861
   15MOL   H48416192   3.661   3.623   0.033  0.8399  0.1443 -1.0295
   15MOL   H48516193   3.652   3.508   7.588  1.1457  1.9596  0.2521
   15MOL   H48616194   3.422   3.550   0.088 -0.3445  0.6885 -0.2636
   15MOL   H48716195   3.444   3.650   7.652  1.4193  0.5711 -0.0858
   15MOL   H48816196   3.413   3.331   7.641 -2.2354  1.0488  2.1024
   15MOL   H48916197   3.430   3.422   7.499 -3.7195  1.0808 -0.9005
   15MOL   H49016198   3.204   3.368   7.549  0.8399  0.5771 -1.1339
   15MOL   H49116199   3.203   3.435   0.017  1.0043 -2.8056  0.3081
   15MOL   H49216200   3.046   3.593   7.681 -1.7450  1.6694 -0.4010
   15MOL   H49316201   2.944   3.675   7.457  1.3596 -1.0335 -0.3401
   15MOL   H49416202   3.057   3.807   7.478 -0.6698  0.5920 -0.2416
   15MOL   H49516203   2.871   3.715   0.009  2.9237 -0.7511  0.1021
   15MOL   H49616204   2.928   3.876   7.674  1.0195  0.1099  0.3670
   15MOL   H49716205   2.673   3.842   7.600  1.0212 -0.9577  2.2857
   15MOL   H49816206   2.741   3.752   7.461  0.0970 -0.1654 -0.5024
   15MOL   H49916207   2.850   3.918   7.378  0.5034 -1.0969  0.7712
   15MOL   H50016208   2.800   4.044   7.500  0.3004  1.2163 -1.5293
   15MOL   H50116209   2.580   3.894   7.354 -1.5503  1.1882 -2.0439
   15MOL   H50216210   2.576   4.044   7.438  2.4644  3.0273 -0.6462
   15MOL   H50316211   2.727   3.993   7.169 -1.1263 -1.1291 -0.4403
   15MOL   H50416212   2.562   4.041   7.180 -0.4616 -2.5693 -0.1690
   15MOL   H50516213   2.666   4.237   7.338  0.2827 -0.8095  0.7672
   15MOL   C50616214   2.771   4.256   7.171  0.4928  0.3839 -0.0982
   15MOL   O50716215   2.820   4.215   7.067 -0.2961  0.0767 -0.4736
   15MOL   C50816216   2.782   4.404   7.209 -0.2825 -0.4419  0.5541
   15MOL   C50916217   2.814   4.499   7.087 -0.3203 -0.2573  0.1887
   15MOL   C51016218   2.820   4.646   7.132  0.3992 -0.3584 -0.4834
   15MOL   C51116219   2.942   4.688   7.218  0.6788  0.4674 -0.0791
   15MOL   C51216220   3.064   4.712   7.118 -0.3189  0.1005 -0.4109
   15MOL   C51316221   3.202   4.714   7.176 -0.6267  0.3804 -0.0128
   15MOL   C51416222   3.223   4.840   7.251 -0.1018  0.1275  0.0534
   15MOL   C51516223   3.369   4.847   7.332  0.3106  0.4352 -0.4297
   15MOL   C51616224   3.365   4.758   7.462 -0.3080 -0.2377 -0.1694
   15MOL   C51716225   3.487   4.775   7.557 -0.3240 -0.2472  0.4378
   15MOL   C51816226   3.480   4.700   7.688 -0.4801  0.1646  0.0175
   15MOL   O51916227   3.417   4.595   7.687 -0.2391 -0.2735 -0.3301
   15MOL   N52016228   3.542   4.748   0.105 -0.0540  0.0609 -0.2839
   15MOL   C52116229   3.548   4.695   0.242 -0.1688 -0.2232  0.4429
   15MOL   C52216230   3.438   4.757   0.323  0.1171 -0.6068 -0.1191
   15MOL   C52316231   3.433   4.724   0.476  0.1644  0.4939  0.7385
   15MOL   C52416232   3.549   4.790   0.559 -0.1246 -0.9531 -0.2006
   15MOL   C52516233   3.563   4.943   0.575 -0.0211  0.5511 -0.0167
   15MOL   C52616234   3.666   4.977   0.682 -0.6207 -0.1845  0.4046
   15MOL   N52716235   3.789   4.910   0.652 -1.0110  0.0485 -0.4203
   15MOL   H52816236   2.851   4.410   7.294 -0.0830 -0.2371  0.3812
   15MOL   H52916237   2.688   4.446   7.244 -0.1590 -0.6588  1.1578
   15MOL   H53016238   2.730   4.486   7.018  0.4578  3.8082 -1.6394
   15MOL   H53116239   2.907   4.479   7.034 -0.1738  0.8601  0.0256
   15MOL   H53216240   2.723   4.674   7.174  0.3505  0.0808 -0.8817
   15MOL   H53316241   2.831   4.700   7.038 -0.3931  0.9831  0.1747
   15MOL   H53416242   2.919   4.782   7.267  1.8495  0.6209  0.2019
   15MOL   H53516243   2.969   4.617   7.297  0.3743 -0.5554 -0.8750
   15MOL   H53616244   3.071   4.625   7.052 -1.8346  0.1982 -0.7193
   15MOL   H53716245   3.034   4.797   7.057 -0.6498 -0.6677 -1.3347
   15MOL   H53816246   3.218   4.636   7.250  1.4091  0.9396  0.1737
   15MOL   H53916247   3.276   4.714   7.096  0.0338  0.0685  0.5923
   15MOL   H54016248   3.237   4.922   7.182  3.6145 -1.1403 -0.8164
   15MOL   H54116249   3.135   4.860   7.313 -1.7284 -0.5664 -1.9852
   15MOL   H54216250   3.447   4.795   7.277 -0.7564  1.0259 -2.5821
   15MOL   H54316251   3.389   4.953   7.347  0.8990  0.6594 -2.6239
   15MOL   H54416252   3.362   4.652   7.437  0.1840 -0.5264  0.9772
   15MOL   H54516253   3.275   4.781   7.518 -0.4887  1.2227 -1.0121
   15MOL   H54616254   3.579   4.745   7.507 -1.5573 -2.2790 -0.7067
   15MOL   H54716255   3.507   4.881   7.573  3.0418 -0.4402 -2.0216
   15MOL   H54816256   3.600   4.828   0.084 -0.1625  0.0506 -0.6355
   15MOL   H54916257   3.648   4.721   0.279 -0.5692  1.0736  0.6204
   15MOL   H55016258   3.540   4.587   0.239 -0.6651 -0.1391 -4.5702
   15MOL   H55116259   3.349   4.729   0.267 -0.5939 -0.0185  0.7033
   15MOL   H55216260   3.438   4.866   0.314 -1.0658 -0.5216  0.8161
   15MOL   H55316261   3.427   4.616   0.490 -0.8676  0.3611 -0.5848
   15MOL   H55416262   3.334   4.758   0.505 -0.1596 -1.4526  2.0160
   15MOL   H55516263   3.643   4.742   0.531  0.8316  0.6540  0.1699
   15MOL   H55616264   3.534   4.746   0.657 -1.4141  1.2974  0.6502
   15MOL   H55716265   3.588   4.989   0.480 -0.2274 -0.1781 -0.4208
   15MOL   H55816266   3.467   4.987   0.600 -0.7647 -2.1592  2.1793
   15MOL   H55916267   3.682   5.085   0.690 -2.9434  0.1272  0.9638
   15MOL   H56016268   3.634   4.955   0.784 -1.6399 -1.1817 -0.1344
   15MOL   H56116269   3.793   4.817   0.691  1.6116  1.0093  1.7436
   15MOL   C56216270   3.888   4.940   0.562  0.2662 -0.1361  0.1572
   15MOL   O56316271   3.899   5.052   0.507  0.2365 -0.1825 -0.4000
   15MOL   C56416272   3.968   4.822   0.517 -0.4327  0.0437 -0.2896
   15MOL   C56516273   4.111   4.833   0.571 -0.6931  0.0617 -0.2840
   15MOL   C56616274   4.124   4.799   0.715 -0.3996  0.1540 -0.6692
   15MOL   C56716275   4.262   4.831   0.763  0.4037  0.5509 -0.1384
   15MOL   C56816276   4.280   4.809   0.910  0.1168  0.5531 -0.7797
   15MOL   C56916277   4.297   4.659   0.967  0.3961  0.5679 -0.1272
   15MOL   C57016278   4.297   4.654   1.120  0.0127 -0.3900  0.1257
   15MOL   C57116279   4.429   4.698   1.182  0.6171 -0.5485 -0.3049
   15MOL   C57216280   4.438   4.731   1.339  0.0045  0.2779 -0.8683
   15MOL   C57316281   4.374   4.865   1.393 -0.5120 -0.5149  0.3906
   15MOL   C57416282   4.400   4.891   1.536 -0.0101  0.7561 -0.4314
   15MOL   O57516283   4.392   4.801   1.622  0.5916 -0.1904 -0.2261
   15MOL   N57616284   4.422   5.014   1.581 -0.0555  0.3141  0.8850
   15MOL   C57716285   4.448   5.063   1.713  0.1694 -0.2643 -0.3141
   15MOL   C57816286   4.327   5.116   1.783 -0.0204  0.0043 -0.7372
   15MOL   C57916287   4.344   5.159   1.932 -0.2146 -0.7073  0.5200
   15MOL   C58016288   4.415   5.299   1.948 -0.4210 -0.1812 -0.8955
   15MOL   C58116289   4.445   5.337   2.096  0.2237  0.3145  0.3915
   15MOL   C58216290   4.529   5.466   2.099 -0.6803 -0.9835 -0.4739
   15MOL   N58316291   4.501   5.561   1.997  0.6203 -0.0191  0.5043
   15MOL   H58416292   3.926   4.733   0.564 -1.8791  0.9453  0.1515
   15MOL   H58516293   3.958   4.814   0.408  1.0693  1.6709 -0.5638
   15MOL   H58616294   4.170   4.755   0.522  0.4004  1.2766 -0.9475
   15MOL   H58716295   4.160   4.928   0.549 -0.8713  0.0289 -0.8277
   15MOL   H58816296   4.095   4.696   0.737 -0.2389  0.2473  0.0111
   15MOL   H58916297   4.042   4.857   0.759 -0.4020 -1.4135  1.4903
   15MOL   H59016298   4.336   4.773   0.707  0.1275 -0.5969  0.6673
   15MOL   H59116299   4.281   4.934   0.736 -0.3564  1.2257  1.8337
   15MOL   H59216300   4.364   4.866   0.950 -1.3549  1.9341  0.4359
   15MOL   H59316301   4.198   4.858   0.964 -1.3615 -1.5015 -1.1004
   15MOL   H59416302   4.211   4.605   0.928 -1.1511  0.5506  3.1731
   15MOL   H59516303   4.381   4.611   0.917  0.7462 -0.6262  1.5790
   15MOL   H59616304   4.219   4.719   1.161  1.7168  1.1224  1.0530
   15MOL   H59716305   4.273   4.555   1.159 -3.0055  0.2591  0.0436
   15MOL   H59816306   4.468   4.787   1.133  1.7767 -1.0172 -0.2553
   15MOL   H59916307   4.490   4.615   1.147  2.2384  1.2974 -1.9855
   15MOL   H60016308   4.540   4.719   1.374  0.1470 -0.6478 -1.5883
   15MOL   H60116309   4.374   4.657   1.387 -0.2748 -0.2498 -2.0480
   15MOL   H60216310   4.415   4.946   1.332  1.0534 -0.8175  1.0178
   15MOL   H60316311   4.266   4.868   1.382 -0.3234  1.8998 -1.1976
   15MOL   H60416312   4.401   5.082   1.510  0.0768 -0.0859  0.4590
   15MOL   H60516313   4.525   5.140   1.705  2.2135 -2.1382  0.7945
   15MOL   H60616314   4.496   4.993   1.781  0.3075 -1.3683 -1.5332
   15MOL   H60716315   4.254   5.034   1.789 -0.2464  0.3511  1.7111
   15MOL   H60816316   4.274   5.196   1.732 -0.3823 -1.0685 -2.0967
   15MOL   H60916317   4.392   5.079   1.989  0.3664 -0.0746  0.9250
   15MOL   H61016318   4.244   5.164   1.975 -0.1353  0.9311  0.5584
   15MOL   H61116319   4.502   5.320   1.886  1.2742  0.1356  1.5471
   15MOL   H61216320   4.328   5.363   1.932 -0.4298  0.5684  1.8616
   15MOL   H61316321   4.502   5.250   2.128 -0.5153 -0.1858  0.3688
   15MOL   H61416322   4.361   5.334   2.166 -0.1010 -0.9100 -0.0446
   15MOL   H61516323   4.515   5.501   2.201  1.1497 -3.4409  0.6790
   15MOL   H61616324   4.633   5.432   2.102 -0.8964 -1.5000  1.5455
   15MOL   H61716325   4.545   5.551   1.907 -0.8007  0.0589 -0.2130
   15MOL   C61816326   4.412   5.660   2.007  0.5186  0.2792 -0.7540
   15MOL   O61916327   4.349   5.682   2.111  0.2326  0.2238  0.2820
   15MOL   C62016328   4.395   5.751   1.882  0.1417 -0.9458 -0.2771
   15MOL   C62116329   4.420   5.901   1.908 -0.2037  0.1227  0.4772
   15MOL   C62216330   4.564   5.947   1.881  0.3281 -0.0356 -0.0222
   15MOL   C62316331   4.608   5.937   1.731 -0.4387  0.3086 -0.3466
   15MOL   C62416332   4.500   5.998   1.627  0.1914  0.3341 -0.4720
   15MOL   C62516333   4.558   5.998   1.492  0.4740  0.3345  0.2485
   15MOL   C62616334   4.455   6.054   1.389  0.1251  0.2369  0.1914
   15MOL   C62716335   4.492   6.033   1.241 -0.2079 -0.2213  0.1204
   15MOL   C62816336   4.494   5.887   1.194 -0.0484  0.8647 -0.3257
   15MOL   C62916337   4.434   5.861   1.051  0.1173 -0.2758 -0.2034
   15MOL   C63016338   4.414   5.705   1.025  0.0500 -0.0967  0.2162
   15MOL   O63116339   4.435   5.623   1.116 -0.1556  0.0875  0.6157
   15MOL   N63216340   4.380   5.669   0.895  0.0870 -0.7043  0.1479
   15MOL   C63316341   4.365   5.529   0.846  0.5091  0.0369  0.3527
   15MOL   C63416342   4.498   5.473   0.809  0.4036  0.2996  0.4387
   15MOL   C63516343   4.487   5.356   0.701  0.0234  1.1794 -0.6766
   15MOL   C63616344   4.628   5.311   0.658 -0.0162  0.2528  0.1369
   15MOL   C63716345   4.605   5.204   0.556 -0.8819  0.6610  0.1591
   15MOL   C63816346   4.736   5.156   0.487  0.7063 -0.2058  1.0577
   15MOL   N63916347   4.834   5.260   0.476  0.0243 -0.4047 -0.0235
   15MOL   H64016348   4.291   5.744   1.851  0.5762 -0.7372 -1.8165
   15MOL   H64116349   4.445   5.716   1.792 -0.0523 -1.0021 -0.3631
   15MOL   H64216350   4.397   5.910   2.015  2.6140 -1.4770  1.2649
   15MOL   H64316351   4.348   5.963   1.855  2.4695  2.6599 -0.3000
   15MOL   H64416352   4.627   5.897   1.954  0.2382  0.5669  0.4684
   15MOL   H64516353   4.569   6.052   1.909  1.3400 -0.2677  0.6490
   15MOL   H64616354   4.713   5.967   1.723 -0.3944  0.6126  1.1220
   15MOL   H64716355   4.611   5.831   1.709 -1.4693  0.4648 -1.2649
   15MOL   H64816356   4.407   5.943   1.632  0.8242 -0.9496 -2.1457
   15MOL   H64916357   4.471   6.101   1.648 -3.9787 -0.8744 -0.0205
   15MOL   H65016358   4.591   5.899   1.461 -0.3253  0.5133 -1.2113
   15MOL   H65116359   4.646   6.063   1.490  1.1256 -0.5563 -0.9106
   15MOL   H65216360   4.364   5.995   1.398 -0.1654  0.8865  1.7562
   15MOL   H65316361   4.444   6.160   1.411  1.0852 -0.0404  2.1247
   15MOL   H65416362   4.421   6.083   1.175 -0.1497 -0.2880  0.0083
   15MOL   H65516363   4.582   6.089   1.215 -1.0568  2.5659  2.8447
   15MOL   H65616364   4.432   5.832   1.265  2.8676 -0.8841  0.9379
   15MOL   H65716365   4.585   5.829   1.208 -1.4849 -0.9237  1.9391
   15MOL   H65816366   4.341   5.918   1.044 -0.3270 -0.9010  0.4778
   15MOL   H65916367   4.489   5.905   0.967  0.4993  1.9666  1.1942
   15MOL   H66016368   4.349   5.742   0.832  1.4540 -0.3635 -0.1607
   15MOL   H66116369   4.304   5.470   0.915 -1.1906 -0.1045 -1.2305
   15MOL   H66216370   4.298   5.540   0.760  1.8722  1.7194 -0.5235
   15MOL   H66316371   4.561   5.437   0.889  0.2988 -1.9378 -0.4447
   15MOL   H66416372   4.546   5.554   0.754 -1.9018  1.2101 -0.3205
   15MOL   H66516373   4.425   5.273   0.738 -0.1347  1.7936  0.4390
   15MOL   H66616374   4.428   5.400   0.620  0.2170  0.8263 -1.0124
   15MOL   H66716375   4.670   5.276   0.752 -1.5235  0.5358  0.9405
   15MOL   H66816376   4.691   5.391   0.620  1.6068 -0.4853  1.2075
   15MOL   H66916377   4.564   5.118   0.609  0.9672 -1.2004 -1.4001
   15MOL   H67016378   4.538   5.230   0.475  2.4238  0.0196 -2.8875
   15MOL   H67116379   4.771   5.069   0.543  2.0416  0.9810  2.1320
   15MOL   H67216380   4.715   5.113   0.390 -3.4628  0.2881  1.6223
   15MOL   H67316381   4.883   5.285   0.560 -0.1669 -0.3664  0.0752
   15MOL   C67416382   4.881   5.307   0.363  0.3186 -0.4275  0.0383
   15MOL   O67516383   4.842   5.270   0.252 -0.1919  0.3480  0.0856
   15MOL   C67616384   4.978   5.426   0.377  0.1374 -0.3763  0.2613
   15MOL   C67716385   5.122   5.398   0.340  0.4159 -0.5512  0.1601
   15MOL   C67816386   5.203   5.288   0.407 -0.3110 -0.0877  0.0977
   15MOL   C67916387   5.333   5.237   0.336 -0.0126 -0.5412  0.2786
   15MOL   C68016388   5.411   5.135   0.408  0.0103  0.7268 -0.5796
   15MOL   C68116389   5.560   5.129   0.367 -0.1817 -0.2822 -0.5315
   15MOL   C68216390   5.636   5.044   0.471 -0.0714 -0.1070 -0.2165
   15MOL   C68316391   5.785   5.062   0.467 -0.2677  0.1841 -1.2800
   15MOL   C68416392   5.852   5.006   0.595 -0.8737  0.3132 -0.9493
   15MOL   C68516393   6.006   5.034   0.600  0.2627 -0.3348 -0.5778
   15MOL   C68616394   6.071   5.022   0.739  0.1569  0.1401  0.3352
   15MOL   O68716395   6.092   4.911   0.782  0.1299  0.6583  0.0607
   15MOL   N68816396   6.105   5.132   0.815  0.1788 -0.1466  0.4803
   15MOL   C68916397   6.049   5.272   0.799 -0.0205 -0.3914  0.5052
   15MOL   C69016398   6.071   5.364   0.925  0.4439 -0.4252  0.0831
   15MOL   C69116399   5.984   5.492   0.918 -0.0763  0.2638 -0.4027
   15MOL   C69216400   6.012   5.585   1.034  1.0356  0.5433 -0.0704
   15MOL   C69316401   5.922   5.709   1.034  0.3464 -0.1452  0.1258
   15MOL   C69416402   5.927   5.781   1.168  0.1604  0.5550  0.3007
   15MOL   N69516403   5.843   5.902   1.160  0.0338  0.5922  0.9026
   15MOL   H69616404   4.965   5.485   0.467 -1.3346  3.3827 -2.2820
   15MOL   H69716405   4.938   5.502   0.310  1.8952 -1.4480 -2.0753
   15MOL   H69816406   5.189   5.483   0.328 -0.3174  0.1955  1.2884
   15MOL   H69916407   5.116   5.369   0.235  0.3834  1.4691 -0.4165
   15MOL   H70016408   5.227   5.321   0.508 -0.8393  1.0533 -0.1410
   15MOL   H70116409   5.138   5.202   0.414 -1.7990  0.6985 -3.2406
   15MOL   H70216410   5.402   5.321   0.333  0.1822 -0.6967  0.3331
   15MOL   H70316411   5.305   5.216   0.233 -2.6400  0.1023  0.8297
   15MOL   H70416412   5.371   5.035   0.390  0.4072  0.6883 -1.2695
   15MOL   H70516413   5.393   5.156   0.513 -0.9310 -0.9502 -0.3899
   15MOL   H70616414   5.580   5.098   0.264  1.5636  0.5246 -0.4531
   15MOL   H70716415   5.592   5.233   0.374 -1.5499  0.1678 -0.7293
   15MOL   H70816416   5.605   5.080   0.569  1.7602  2.0953 -0.4067
   15MOL   H70916417   5.616   4.937   0.465  0.4808 -0.1961 -0.4550
   15MOL   H71016418   5.833   5.021   0.379  2.3544  1.3162 -0.4413
   15MOL   H71116419   5.806   5.169   0.470 -0.9478  0.3189 -1.2216
   15MOL   H71216420   5.835   4.900   0.613 -0.4977  0.8190  2.6273
   15MOL   H71316421   5.811   5.060   0.680  2.0063  0.3681  0.4705
   15MOL   H71416422   6.068   4.983   0.526  0.2771  0.3916 -1.0738
   15MOL   H71516423   6.029   5.138   0.575  1.9656 -0.4513  0.4479
   15MOL   H71616424   6.156   5.115   0.900  2.0936  0.7820 -0.4531
   15MOL   H71716425   6.101   5.321   0.717  0.6209 -1.2593  0.3855
   15MOL   H71816426   5.946   5.262   0.765  0.3547  2.4045 -1.5752
   15MOL   H71916427   6.179   5.375   0.938  1.2619 -5.4042 -1.4603
   15MOL   H72016428   6.036   5.310   1.013 -1.7709  0.6897 -0.0620
   15MOL   H72116429   5.986   5.544   0.823 -1.7327 -2.1700 -1.8178
   15MOL   H72216430   5.879   5.461   0.926 -0.6277  2.1291 -0.0290
   15MOL   H72316431   6.118   5.608   1.024  1.4338  0.5380  3.6484
   15MOL   H72416432   5.995   5.539   1.131 -2.4257 -0.3962 -1.0563
   15MOL   H72516433   5.816   5.696   1.015  0.5374 -0.9905 -0.3782
   15MOL   H72616434   5.953   5.778   0.955 -0.1407  0.1668  0.2073
   15MOL   H72716435   5.891   5.721   1.252  1.6655  0.0702  0.6157
   15MOL   H72816436   6.027   5.806   1.203  0.1080  1.1170  0.0581
   15MOL   H72916437   5.742   5.893   1.166  0.1722 -1.8611  0.1430
   15MOL   C73016438   5.901   6.017   1.125  0.5264  0.2522 -0.0902
   15MOL   O73116439   6.020   6.022   1.101 -0.3258  0.4696 -0.0008
   15MOL   C73216440   5.806   6.135   1.114  0.4247 -0.0197 -0.4711
   15MOL   C73316441   5.872   6.271   1.095 -0.6263 -0.2214  0.0624
   15MOL   C73416442   5.783   6.372   1.031 -0.0128 -0.4041  0.8122
   15MOL   C73516443   5.862   6.479   0.946  0.0935  0.1824 -0.1433
   15MOL   C73616444   5.770   6.584   0.880 -0.1035 -0.2764 -0.3330
   15MOL   C73716445   5.732   6.706   0.979 -0.2616 -0.0031 -0.3914
   15MOL   C73816446   5.625   6.804   0.924  0.9117  0.4484 -0.0191
   15MOL   C73916447   5.488   6.742   0.929 -0.0713  0.3320  0.8666
   15MOL   C74016448   5.373   6.817   0.860 -0.3303  0.5671 -0.1433
   15MOL   C74116449   5.236   6.754   0.840  0.0293 -0.2242  0.5612
   15MOL   C74216450   5.223   6.641   0.737 -0.1829 -0.6798 -0.2155
   15MOL   O74316451   5.269   6.662   0.627  0.2146 -0.7092 -0.3751
   15MOL   N74416452   5.170   6.527   0.767 -0.2063  0.4067  0.8903
   15MOL   C74516453   5.164   6.411   0.670 -0.6636  0.7073  0.3408
   15MOL   C74616454   5.084   6.430   0.538  0.3765  0.1074  0.1398
   15MOL   C74716455   5.065   6.300   0.458 -0.5017 -0.6671 -0.0547
   15MOL   C74816456   4.981   6.336   0.335 -0.9656 -0.6624  0.2556
   15MOL   C74916457   4.972   6.209   0.245 -0.1971 -0.4541 -0.5264
   15MOL   C75016458   4.871   6.215   0.131 -0.0183  0.5430  0.0953
   15MOL   N75116459   4.879   6.103   0.030  0.1292 -0.6043  1.1476
   15MOL   H75216460   5.737   6.134   1.199 -2.0147 -0.4578 -2.4094
   15MOL   H75316461   5.764   6.117   1.015  0.5608  1.5085 -0.8210
   15MOL   H75416462   5.954   6.262   1.023  1.5767 -2.2982  2.7299
   15MOL   H75516463   5.928   6.303   1.183 -1.1993  0.9883 -0.0049
   15MOL   H75616464   5.728   6.421   1.111  0.8466  1.0867  0.5175
   15MOL   H75716465   5.700   6.339   0.968 -0.5062  0.3401  1.0742
   15MOL   H75816466   5.918   6.434   0.863 -0.4618  0.1651 -0.5141
   15MOL   H75916467   5.944   6.516   1.006  1.0062  2.7578 -2.8416
   15MOL   H76016468   5.680   6.541   0.835  0.2018  0.5706 -1.7747
   15MOL   H76116469   5.827   6.623   0.796 -1.2968  1.5365 -0.3113
   15MOL   H76216470   5.687   6.663   1.068 -1.8876 -0.3648 -1.3620
   15MOL   H76316471   5.824   6.759   1.004 -0.4028  0.1997 -0.2988
   15MOL   H76416472   5.623   6.901   0.974  0.8575 -0.3404  1.5424
   15MOL   H76516473   5.656   6.825   0.822 -1.3471 -2.0909 -1.2983
   15MOL   H76616474   5.493   6.642   0.887 -1.0535 -0.4298  2.5090
   15MOL   H76716475   5.458   6.741   1.034  0.4733 -0.5487  1.0171
   15MOL   H76816476   5.400   6.849   0.759  0.9340  0.8620  0.2672
   15MOL   H76916477   5.366   6.916   0.906 -0.0823  1.2608 -1.5495
   15MOL   H77016478   5.191   6.731   0.937 -1.6111  1.9939  0.3460
   15MOL   H77116479   5.165   6.831   0.810  1.1062  0.7057  0.3826
   15MOL   H77216480   5.165   6.505   0.865  0.3797 -0.1812  0.7927
   15MOL   H77316481   5.126   6.330   0.733  1.3699  1.0149  2.0165
   15MOL   H77416482   5.269   6.387   0.657  0.1914  3.0904  2.3713
   15MOL   H77516483   5.122   6.506   0.469  1.7129 -0.4706  0.2283
   15MOL   H77616484   4.983   6.465   0.557  0.4198 -0.4988  1.5600
   15MOL   H77716485   5.016   6.234   0.529  0.9835 -1.1618  0.5263
   15MOL   H77816486   5.163   6.264   0.428  1.1695  3.3893  0.2441
   15MOL   H77916487   4.878   6.356   0.363 -0.7317  3.8904 -1.6979
   15MOL   H78016488   5.032   6.417   0.282  0.9129 -0.4453  2.3374
   15MOL   H78116489   4.981   6.116   0.301  2.5728 -0.1340 -0.3562
   15MOL   H78216490   5.065   6.207   0.187 -1.2307  0.3016 -2.2445
   15MOL   H78316491   4.774   6.218   0.181  0.2323 -0.4385  0.6699
   15MOL   H78416492   4.886   6.307   0.075 -0.0923 -0.0512 -0.9111
   15MOL   H78516493   4.919   6.014   0.055  0.3503 -0.5898  0.8413
   15MOL   C78616494   4.837   6.128   7.597 -1.7150 -0.2714 -0.2912
   15MOL   O78716495   4.788   6.237   7.562  0.0326  0.5087 -0.1781
   15MOL   C78816496   4.837   6.012   7.499 -0.2624  0.2913  0.5157
   15MOL   C78916497   4.921   6.032   7.373  0.0526  0.1205  0.3468
   15MOL   C79016498   4.935   5.904   7.291  0.3452 -0.5306 -0.0416
   15MOL   C79116499   4.957   5.916   7.140 -0.2031  0.5245 -0.4336
   15MOL   C79216500   5.105   5.936   7.107 -0.2928  0.1617 -0.0498
   15MOL   C79316501   5.136   5.946   6.955 -0.0089  0.1320 -0.1471
   15MOL   C79416502   5.152   5.814   6.876 -0.0593  0.0788 -0.4199
   15MOL   C79516503   5.026   5.735   6.863  0.5958  0.3902 -0.2035
   15MOL   C79616504   5.015   5.669   6.722 -0.0785 -0.0860  0.9730
   15MOL   C79716505   4.874   5.603   6.695  0.0461  0.5881 -0.0786
   15MOL   C79816506   4.739   5.684   6.712 -0.3332  0.3702  0.1881
   15MOL   O79916507   4.743   5.799   6.671  0.4253  0.4181 -0.0431
   15MOL   N80016508   4.626   5.627   6.754 -0.2802  0.2205  0.6573
   15MOL   C80116509   4.502   5.695   6.768 -0.0679 -0.0691 -0.0722
   15MOL   C80216510   4.412   5.646   6.650 -0.0172 -0.6687 -0.9584
   15MOL   C80316511   4.444   5.686   6.502 -1.0632  0.3010  0.0527
   15MOL   C80416512   4.327   5.677   6.410  0.5238  0.0434  0.2690
   15MOL   C80516513   4.364   5.735   6.269 -0.5508  0.1223  0.0486
   15MOL   C80616514   4.256   5.713   6.166  0.9462 -0.9338 -0.7146
   15MOL   N80716515   4.296   5.786   6.050 -0.3630  0.2473  0.6681
   15MOL   H80816516   4.739   5.971   7.474  1.4240 -3.4049 -0.2402
   15MOL   H80916517   4.897   5.933   7.542 -1.5662 -0.6131  0.7046
   15MOL   H81016518   4.873   6.097   7.300  3.2448 -1.1877 -3.0844
   15MOL   H81116519   5.020   6.069   7.400 -0.8981  2.4818  0.6980
   15MOL   H81216520   4.845   5.843   7.301 -1.8054  2.4597 -0.4000
   15MOL   H81316521   5.012   5.842   7.335  1.0648 -0.8650 -1.7233
   15MOL   H81416522   4.927   5.817   7.106  1.1526 -0.5218  1.3054
   15MOL   H81516523   4.893   5.997   7.105 -1.2119 -1.3139 -2.9516
   15MOL   H81616524   5.146   6.023   7.159  2.9760  0.0011 -2.1908
   15MOL   H81716525   5.167   5.858   7.150 -0.3082  0.7533  1.0696
   15MOL   H81816526   5.062   6.013   6.911  2.2333  1.9207 -1.3165
   15MOL   H81916527   5.232   5.998   6.947 -1.5022  3.0004 -0.3032
   15MOL   H82016528   5.193   5.850   6.781 -0.6577 -0.4383 -0.8726
   15MOL   H82116529   5.229   5.748   6.915 -0.3993 -0.1103 -0.0701
   15MOL   H82216530   5.010   5.664   6.944 -1.2910  0.3603 -0.5732
   15MOL   H82316531   4.945   5.808   6.869 -1.3768 -1.8943  1.7359
   15MOL   H82416532   5.086   5.586   6.723 -0.7440 -0.6503  1.9341
   15MOL   H82516533   5.040   5.734   6.638 -2.3775 -0.2083  0.1677
   15MOL   H82616534   4.873   5.556   6.597 -0.7968  0.9910 -0.2714
   15MOL   H82716535   4.865   5.522   6.767 -1.2893 -0.0787 -0.9745
   15MOL   H82816536   4.633   5.537   6.800 -0.9712  0.1184  0.5576
   15MOL   H82916537   4.502   5.804   6.769 -1.7573  0.0038 -2.4838
   15MOL   H83016538   4.448   5.669   6.859  1.6468 -1.4528  0.5773
   15MOL   H83116539   4.310   5.682   6.666  0.3788  0.1515 -0.2590
   15MOL   H83216540   4.399   5.539   6.663 -2.0265 -0.2553  0.9157
   15MOL   H83316541   4.499   5.779   6.493 -1.4854  0.7178  1.6164
   15MOL   H83416542   4.514   5.607   6.474  0.1001  0.9205  1.1856
   15MOL   H83516543   4.242   5.734   6.446  0.6021  0.3698 -0.0634
   15MOL   H83616544   4.300   5.572   6.398  1.0838 -0.1515  0.7038
   15MOL   H83716545   4.458   5.691   6.236 -1.4058 -1.4798 -0.3203
   15MOL   H83816546   4.383   5.839   6.294 -1.7074  0.1731  0.7664
   15MOL   H83916547   4.166   5.761   6.205  0.8587 -0.2550 -1.7370
   15MOL   H84016548   4.253   5.606   6.147  0.5884 -1.1577  0.5479
   15MOL   H84116549   4.248   5.874   6.042 -1.7734 -0.1543  4.0160
   15MOL   C84216550   4.338   5.723   5.940  0.3971 -0.2161  0.4460
   15MOL   O84316551   4.382   5.610   5.938 -0.7037  0.5585  0.0200
   15MOL   C84416552   4.350   5.816   5.815  0.6268 -0.1528 -1.0105
   15MOL   C84516553   4.480   5.822   5.747  0.0527 -0.3056 -0.1370
   15MOL   C84616554   4.497   5.946   5.658  0.4096  0.0494 -0.4607
   15MOL   C84716555   4.540   6.070   5.743 -0.4854  0.2621  0.5641
   15MOL   C84816556   4.564   6.183   5.640  0.4353 -0.9033  0.2588
   15MOL   C84916557   4.613   6.319   5.705  0.6524 -0.1580 -0.4926
   15MOL   C85016558   4.512   6.388   5.804  0.0082  1.1391  0.3852
   15MOL   C85116559   4.549   6.530   5.843 -0.6055 -0.1712  0.4040
   15MOL   C85216560   4.453   6.586   5.947 -0.2518 -0.3737  0.4662
   15MOL   C85316561   4.336   6.669   5.889 -0.4426 -0.4289 -0.5387
   15MOL   C85416562   4.234   6.588   5.812  0.3907 -0.0181 -0.4373
   15MOL   O85516563   4.190   6.486   5.869  0.3587  0.0957  0.3786
   15MOL   N85616564   4.211   6.632   5.684  0.3605 -0.0844  0.7826
   15MOL   C85716565   4.121   6.552   5.596  0.5247  0.1540 -0.7032
   15MOL   C85816566   4.194   6.461   5.493 -0.8592 -0.4564  0.1843
   15MOL   C85916567   4.312   6.521   5.416 -0.3160 -0.4946 -0.1606
   15MOL   C86016568   4.445   6.546   5.484  0.0581  0.1809 -0.3277
   15MOL   C86116569   4.560   6.556   5.375 -0.4494  0.1280  0.1859
   15MOL   C86216570   4.673   6.642   5.428  0.2774 -0.4261  0.5721
   15MOL   N86316571   4.770   6.661   5.322  1.0634  0.1141 -0.3186
   15MOL   H86416572   4.323   5.918   5.841  1.1138 -0.4473  0.7753
   15MOL   H86516573   4.270   5.789   5.746  0.9027 -2.0465 -0.6335
   15MOL   H86616574   4.477   5.736   5.679  2.6613 -1.2922  0.9329
   15MOL   H86716575   4.560   5.823   5.821 -1.2981  1.1670  1.3590
   15MOL   H86816576   4.569   5.925   5.579 -0.1300  0.8561 -1.1689
   15MOL   H86916577   4.400   5.978   5.620 -0.1498 -0.3192  0.6257
   15MOL   H87016578   4.637   6.045   5.785  1.1632 -0.5236 -3.4639
   15MOL   H87116579   4.468   6.095   5.821 -0.9948  1.6595 -0.3337
   15MOL   H87216580   4.649   6.150   5.581 -0.8561 -0.3416 -1.9603
   15MOL   H87316581   4.476   6.201   5.578 -0.5757 -1.6947  1.4236
   15MOL   H87416582   4.695   6.283   5.767  0.0789 -0.3997  0.1271
   15MOL   H87516583   4.657   6.391   5.636  0.7832  1.3174  1.0949
   15MOL   H87616584   4.412   6.390   5.762  0.5584 -1.4017 -1.1488
   15MOL   H87716585   4.497   6.324   5.891  3.1245 -0.1870  0.0183
   15MOL   H87816586   4.549   6.600   5.758  1.7674  1.7484  1.8958
   15MOL   H87916587   4.654   6.544   5.871 -0.4381 -0.2615 -0.1693
   15MOL   H88016588   4.515   6.656   6.003 -0.4616 -1.3543  1.9483
   15MOL   H88116589   4.432   6.517   6.028 -1.0950  0.9498  1.4012
   15MOL   H88216590   4.291   6.724   5.972  0.1992  1.3052 -1.3363
   15MOL   H88316591   4.378   6.748   5.828 -0.0252 -1.1531 -1.1953
   15MOL   H88416592   4.259   6.716   5.657  0.5418 -0.5139 -0.2444
   15MOL   H88516593   4.053   6.619   5.543 -2.4265 -0.8428  1.6626
   15MOL   H88616594   4.060   6.490   5.661  2.2667 -0.5226  0.3357
   15MOL   H88716595   4.111   6.429   5.430  0.3960  0.8995 -2.2206
   15MOL   H88816596   4.230   6.372   5.544  1.4517 -0.6696 -1.7262
   15MOL   H88916597   4.282   6.605   5.353 -1.3506 -1.0636 -0.4364
   15MOL   H89016598   4.331   6.449   5.337  2.1719  1.0847 -1.0800
   15MOL   H89116599   4.473   6.482   5.568 -0.5083 -0.3699 -0.5536
   15MOL   H89216600   4.432   6.643   5.533 -1.4647 -0.7213  1.1171
   15MOL   H89316601   4.598   6.458   5.346 -2.3160 -0.8622  0.9907
   15MOL   H89416602   4.521   6.603   5.284  0.1085 -1.5601 -0.9465
   15MOL   H89516603   4.644   6.743   5.457 -0.4681 -0.0979 -1.2837
   15MOL   H89616604   4.722   6.590   5.510 -0.1602 -2.6426 -0.5348
   15MOL   H89716605   4.744   6.723   5.245 -2.4329 -0.2407  0.4722
   15MOL   C89816606   4.882   6.590   5.317 -0.3127 -1.0549  0.1603
   15MOL   O89916607   4.917   6.514   5.405  0.5541 -0.8838 -0.0420
   15MOL   C90016608   4.969   6.621   5.195  0.5437  0.1147  0.0253
   15MOL   C90116609   5.099   6.533   5.185 -0.0562 -0.2094 -0.2968
   15MOL   C90216610   5.079   6.388   5.145  0.3618  0.0749 -0.1027
   15MOL   C90316611   5.210   6.299   5.172 -0.3922  0.1358  0.6480
   15MOL   C90416612   5.280   6.254   5.041  0.6066 -0.2643 -0.1828
   15MOL   C90516613   5.189   6.165   4.955  0.5882 -0.4556 -0.1226
   15MOL   C90616614   5.244   6.122   4.816  0.3291 -0.1159 -0.1173
   15MOL   C90716615   5.280   6.250   4.732 -0.7695 -0.6454  0.0559
   15MOL   C90816616   5.314   6.226   4.588  0.7683  0.6655  0.1925
   15MOL   C90916617   5.355   6.339   4.495  0.0241 -0.4653 -0.3802
   15MOL   C91016618   5.477   6.416   4.548 -0.0693 -0.3314  0.3302
   15MOL   O91116619   5.476   6.537   4.536 -0.3153  0.0626 -0.0810
   15MOL   N91216620   5.583   6.354   4.610 -0.1886 -0.0980 -0.4964
   15MOL   C91316621   5.706   6.428   4.647  0.0434 -0.1291 -0.2623
   15MOL   C91416622   5.681   6.511   4.768  0.1637  0.3077  0.6794
   15MOL   C91516623   5.801   6.557   4.850 -0.6523 -0.6079  0.1125
   15MOL   C91616624   5.870   6.669   4.779 -0.9644  0.4542 -0.3541
   15MOL   C91716625   5.971   6.729   4.879  0.2184  0.4756 -0.6779
   15MOL   C91816626   6.011   6.868   4.815 -0.2674 -0.3505  0.1640
   15MOL   N91916627   6.085   6.950   4.912  0.5515  0.1194 -0.1616
   15MOL   H92016628   4.899   6.608   5.113 -3.2923  0.2948  3.1079
   15MOL   H92116629   4.988   6.728   5.185  1.3670 -0.0719 -0.4958
   15MOL   H92216630   5.151   6.543   5.281 -1.5738 -1.0218  0.6275
   15MOL   H92316631   5.172   6.572   5.114 -0.4928  0.3390 -0.4438
   15MOL   H92416632   5.027   6.383   5.050 -1.4394 -0.0946  0.8732
   15MOL   H92516633   4.995   6.363   5.209  0.9144 -1.0232  0.2012
   15MOL   H92616634   5.275   6.349   5.244 -0.9013  0.0905  1.1488
   15MOL   H92716635   5.185   6.207   5.226  0.7061  0.5826  1.9303
   15MOL   H92816636   5.370   6.201   5.073 -0.1471 -1.9869 -0.8091
   15MOL   H92916637   5.307   6.341   4.981  0.5244  0.0512  0.2364
   15MOL   H93016638   5.156   6.080   5.015 -0.0604 -1.4663 -1.8831
   15MOL   H93116639   5.098   6.220   4.931  1.9476  2.1606  0.5576
   15MOL   H93216640   5.172   6.057   4.767 -0.2861 -0.1132  0.7569
   15MOL   H93316641   5.340   6.071   4.821  0.1013 -0.4189  1.6235
   15MOL   H93416642   5.365   6.294   4.784  0.4253 -5.2587  2.2346
   15MOL   H93516643   5.199   6.323   4.731 -2.0817 -2.1076 -1.2884
   15MOL   H93616644   5.388   6.149   4.564 -1.1372 -0.8620 -0.8833
   15MOL   H93716645   5.224   6.183   4.544  0.0059  0.1782  2.1660
   15MOL   H93816646   5.382   6.306   4.395  2.4908  0.6590 -0.1346
   15MOL   H93916647   5.277   6.414   4.486 -0.6396 -1.2175 -0.9178
   15MOL   H94016648   5.573   6.256   4.633 -0.1589 -0.0954 -0.4727
   15MOL   H94116649   5.739   6.486   4.560 -1.1160 -1.8551 -1.8840
   15MOL   H94216650   5.785   6.354   4.658  0.3857  0.0943 -1.1497
   15MOL   H94316651   5.628   6.601   4.737 -0.4000  0.0578  0.9203
   15MOL   H94416652   5.613   6.463   4.838  0.3875  2.0321  2.1112
   15MOL   H94516653   5.753   6.593   4.941  0.2951 -0.9559  0.7542
   15MOL   H94616654   5.855   6.470   4.887 -0.2703  0.4547  2.1128
   15MOL   H94716655   5.799   6.743   4.743 -0.1741  1.2276 -0.3554
   15MOL   H94816656   5.927   6.622   4.698  0.9575  1.4410  0.3818
   15MOL   H94916657   5.924   6.744   4.976  2.0941 -1.7873  0.6327
   15MOL   H95016658   6.057   6.663   4.891 -0.0740 -0.1868 -2.1926
   15MOL   H95116659   5.923   6.922   4.780 -0.1092 -1.5764 -2.2148
   15MOL   H95216660   6.063   6.863   4.719  0.3803 -0.3607  0.5113
   15MOL   H95316661   6.101   6.908   5.002 -1.1931 -1.0770 -0.3880
   15MOL   C95416662   6.148   7.063   4.873  0.1741 -0.0330  0.7637
   15MOL   O95516663   6.127   7.124   4.770 -0.1869  0.3562 -0.1023
   15MOL   C95616664   6.246   7.125   4.973  0.2673 -0.0944 -0.5217
   15MOL   C95716665   6.202   7.256   5.040 -0.0937  0.1888 -0.2503
   15MOL   C95816666   6.116   7.242   5.168 -0.7969  0.3734 -0.3033
   15MOL   C95916667   5.978   7.220   5.132  0.4161  0.6235  0.3189
   15MOL   C96016668   5.883   7.208   5.247  0.4679 -0.2261  0.1121
   15MOL   C96116669   5.891   7.069   5.316  0.4866 -1.0140 -0.2505
   15MOL   C96216670   5.791   7.041   5.429 -0.0821 -0.7776  0.0712
   15MOL   C96316671   5.791   6.904   5.494  0.3189  0.7589  0.1394
   15MOL   C96416672   5.688   6.878   5.612 -0.1121  0.4939  0.0896
   15MOL   C96516673   5.552   6.823   5.567 -0.1435 -0.7359  0.2241
   15MOL   C96616674   5.553   6.675   5.546 -0.2495  0.2197  0.0116
   15MOL   O96716675   5.585   6.599   5.637  0.1398  0.2502 -0.2548
   15MOL   N96816676   5.526   6.635   5.421  0.6546  0.0169 -0.3949
   15MOL   C96916677   5.535   6.502   5.365  0.5072 -0.3647  0.1085
   15MOL   C97016678   5.677   6.459   5.333  0.6122 -0.6182  0.2280
   15MOL   C97116679   5.683   6.317   5.275 -0.4435 -0.2275  0.6483
   15MOL   C97216680   5.652   6.308   5.127 -0.2152  0.1934  0.8193
   15MOL   C97316681   5.679   6.167   5.083  0.0566 -0.4358 -0.3597
   15MOL   C97416682   5.705   6.162   4.933 -0.0481 -0.1786 -0.0769
   15MOL   N97516683   5.731   6.030   4.892 -0.6467 -0.2311 -0.3277
   15MOL   H97616684   6.289   7.059   5.049 -1.8876 -0.6800  0.2403
   15MOL   H97716685   6.335   7.145   4.914 -0.8078  0.6626 -1.8929
   15MOL   H97816686   6.161   7.318   4.961 -0.0240 -0.4877 -0.8246
   15MOL   H97916687   6.294   7.311   5.059 -0.0336 -0.1075  0.3412
   15MOL   H98016688   6.155   7.160   5.229 -1.1555  2.3834  2.7452
   15MOL   H98116689   6.120   7.334   5.225 -0.5757  0.8423 -1.0707
   15MOL   H98216690   5.953   7.308   5.073 -1.8204  0.4669  0.9697
   15MOL   H98316691   5.965   7.132   5.069  1.2768 -0.3705  1.4978
   15MOL   H98416692   5.903   7.291   5.315 -1.4224  2.0624 -2.0443
   15MOL   H98516693   5.779   7.222   5.219  0.3907  0.8587  0.9179
   15MOL   H98616694   5.871   6.986   5.248 -0.3144 -0.5138 -0.6254
   15MOL   H98716695   5.992   7.065   5.356  0.9053  2.2630 -0.8530
   15MOL   H98816696   5.803   7.118   5.505  0.1276 -0.4683 -0.2677
   15MOL   H98916697   5.693   7.073   5.393 -0.5347  0.4013  2.2914
   15MOL   H99016698   5.776   6.828   5.417  3.3821  0.9763 -0.7493
   15MOL   H99116699   5.892   6.877   5.527 -0.1230 -0.7202  0.3039
   15MOL   H99216700   5.665   6.972   5.662 -1.8930 -0.9208  2.0240
   15MOL   H99316701   5.734   6.803   5.676  2.1535  2.2830  0.6583
   15MOL   H99416702   5.489   6.853   5.650  2.0283 -1.8916  2.3308
   15MOL   H99516703   5.521   6.885   5.482 -2.1742 -1.2306  0.5863
   15MOL   H99616704   5.491   6.707   5.360 -0.1778 -1.3052 -1.4932
   15MOL   H99716705   5.478   6.494   5.273 -1.7281 -0.4197  1.4821
   15MOL   H99816706   5.494   6.439   5.444 -0.3745  1.1665  0.9043
   15MOL   H99916707   5.747   6.468   5.416 -0.9013 -0.4688  1.4974
   15MOL     H116708   5.724   6.527   5.262  1.8525 -0.0274  1.5826
   15MOL     H216709   5.614   6.252   5.329 -1.9667  0.4674 -0.4300
   15MOL     H316710   5.786   6.281   5.286 -0.2386 -0.1256 -0.8931
   15MOL     H416711   5.556   6.351   5.100  1.8895  3.4555 -1.9760
   15MOL     H516712   5.718   6.376   5.072  0.1117 -0.1836  0.7397
   15MOL     H616713   5.591   6.109   5.113  0.8294 -1.7051 -0.5409
   15MOL     H716714   5.768   6.126   5.130  0.4619  3.4850  2.5757
   15MOL     H816715   5.619   6.197   4.877  0.1295 -1.3156 -1.0798
   15MOL     H916716   5.788   6.229   4.910  0.8099  0.1823  3.7166
   15MOL    H1016717   5.750   5.967   4.969 -3.4175 -0.4861  0.1767
   15MOL    C1116718   5.701   5.986   4.768 -0.2822 -0.2846 -0.1147
   15MOL    O1216719   5.653   6.065   4.685  0.6517 -0.0406  0.5108
   15MOL    C1316720   5.745   5.844   4.730  0.0448  0.1204 -0.3827
   15MOL    C1416721   5.629   5.750   4.735 -0.4661  0.0976 -0.2777
   15MOL    C1516722   5.592   5.691   4.865 -0.3261  0.6996 -0.1607
   15MOL    C1616723   5.492   5.577   4.848 -0.0109  0.1341  0.1485
   15MOL    C1716724   5.552   5.445   4.789  0.1856 -1.0148 -0.1802
   15MOL    C1816725   5.447   5.333   4.804  0.0901 -0.4041 -0.7194
   15MOL    C1916726   5.500   5.205   4.735  0.2518  0.3619 -0.0428
   15MOL    C2016727   5.425   5.073   4.772  0.3043  0.1164 -1.1640
   15MOL    C2116728   5.312   5.033   4.672  0.4362  0.8382 -0.7064
   15MOL    C2216729   5.176   5.105   4.686 -0.2383 -1.0292 -0.1041
   15MOL    C2316730   5.056   5.021   4.634 -0.0579  1.0556 -0.3664
   15MOL    O2416731   5.053   4.987   4.517  0.0675 -0.3767 -0.0009
   15MOL    N2516732   4.961   4.984   4.723  0.1565  0.2469  0.1275
   15MOL    C2616733   4.839   4.919   4.687 -0.2801 -0.1059 -0.0489
   15MOL    C2716734   4.847   4.764   4.703  0.1168 -0.7690 -0.9290
   15MOL    C2816735   4.707   4.704   4.691  0.8309  0.0935 -0.3312
   15MOL    C2916736   4.699   4.554   4.709  1.0308  0.0037  0.7256
   15MOL    C3016737   4.737   4.473   4.577 -0.0919  0.0104 -0.4579
   15MOL    C3116738   4.775   4.326   4.596  0.4054  0.1111  0.1119
   15MOL    N3216739   4.756   4.238   4.475 -0.0908  0.4062 -0.8120
   15MOL    H3316740   5.831   5.815   4.790  1.9695 -3.2323 -4.5008
   15MOL    H3416741   5.787   5.840   4.630  0.9871 -2.5066  0.0673
   15MOL    H3516742   5.650   5.666   4.669 -3.0023 -1.7431  1.1823
   15MOL    H3616743   5.553   5.799   4.675  2.1492  3.7683 -0.7940
   15MOL    H3716744   5.546   5.764   4.932  0.8999  0.8652  0.5365
   15MOL    H3816745   5.682   5.660   4.918 -0.1840  1.0036 -0.2250
   15MOL    H3916746   5.434   5.558   4.938 -0.4840  0.3111 -0.1150
   15MOL    H4016747   5.419   5.624   4.782  0.9702  0.4482 -0.7244
   15MOL    H4116748   5.585   5.460   4.687  1.7936 -0.7368  0.3769
   15MOL    H4216749   5.641   5.418   4.845  0.5897  0.7533  0.0664
   15MOL    H4316750   5.440   5.311   4.910 -1.1261 -3.3117 -1.3656
   15MOL    H4416751   5.345   5.351   4.771 -0.4848 -1.4840  0.4447
   15MOL    H4516752   5.497   5.223   4.628  1.7196 -0.8840 -0.2962
   15MOL    H4616753   5.601   5.179   4.764 -0.0930  0.0517  0.9345
   15MOL    H4716754   5.494   4.988   4.774  2.7569  2.0576 -0.6849
   15MOL    H4816755   5.379   5.086   4.871  1.2983  2.1692 -0.9420
   15MOL    H4916756   5.287   4.927   4.680 -0.7937  1.1911  0.2424
   15MOL    H5016757   5.333   5.034   4.565 -0.8582  0.3488 -0.9772
   15MOL    H5116758   5.154   5.123   4.791  0.7999 -0.0506 -0.0490
   15MOL    H5216759   5.197   5.197   4.631 -2.2868 -0.3372  0.2331
   15MOL    H5316760   4.971   5.016   4.819  1.6964 -3.4193  1.2831
   15MOL    H5416761   4.818   4.938   4.581 -0.7521  0.2307  0.1049
   15MOL    H5516762   4.748   4.961   4.731 -0.7657 -1.7646  0.5719
   15MOL    H5616763   4.872   4.744   4.807  0.7194 -0.7531 -1.0669
   15MOL    H5716764   4.923   4.720   4.638 -0.7906 -2.4989 -0.8633
   15MOL    H5816765   4.652   4.728   4.600  0.5756  3.4489  0.6550
   15MOL    H5916766   4.648   4.751   4.769  1.5264  0.1119  0.1952
   15MOL    H6016767   4.599   4.540   4.749  0.4483  0.5676 -0.5256
   15MOL    H6116768   4.773   4.521   4.782  1.1312 -0.1298  0.5620
   15MOL    H6216769   4.828   4.513   4.533  0.5063 -0.9628 -0.1081
   15MOL    H6316770   4.668   4.492   4.495 -0.4305  1.6838  0.1907
   15MOL    H6416771   4.719   4.277   4.675 -0.1257  0.4173 -0.0773
   15MOL    H6516772   4.882   4.313   4.613  0.6569 -1.0599 -2.2184
   15MOL    H6616773   4.834   4.244   4.412  0.3276 -1.3322 -0.4954
   15MOL    C6716774   4.643   4.170   4.448 -0.3851  0.0155  0.2360
   15MOL    O6816775   4.545   4.159   4.522 -0.0491 -0.5216 -0.4193
   15MOL    C6916776   4.650   4.081   4.320 -0.0763 -0.1822  0.2528
   15MOL    C7016777   4.511   4.072   4.246 -0.5582  0.4637  0.1450
   15MOL    C7116778   4.465   4.205   4.186 -0.1308  0.1829 -0.5696
   15MOL    C7216779   4.323   4.204   4.116  0.2868  0.2374 -0.4365
   15MOL    C7316780   4.277   4.346   4.083 -0.4910 -0.4169 -0.2426
   15MOL    C7416781   4.147   4.354   4.011 -0.1056  0.4764 -0.0376
   15MOL    C7516782   4.160   4.289   3.870 -0.6753  0.2283  0.2648
   15MOL    C7616783   4.028   4.331   3.799  0.1960 -0.0829 -0.4818
   15MOL    C7716784   4.015   4.298   3.654  0.3943 -0.2151 -0.0215
   15MOL    C7816785   4.117   4.371   3.561  0.1384 -0.7799 -0.2819
   15MOL    C7916786   4.115   4.322   3.417  0.4756  0.0360  0.2320
   15MOL    O8016787   4.019   4.254   3.371  0.0628  0.1855  0.8015
   15MOL    N8116788   4.214   4.366   3.340 -0.6455  0.3397 -0.0350
   15MOL    C8216789   4.239   4.318   3.207  0.2091 -0.0207  0.8881
   15MOL    C8316790   4.140   4.372   3.101  0.3521  0.6921  0.3664
   15MOL    C8416791   4.167   4.342   2.951  0.6306 -0.8222 -0.0263
   15MOL    C8516792   4.075   4.429   2.858 -0.1834 -0.2253  0.1055
   15MOL    C8616793   3.922   4.418   2.883  0.1424 -1.2761  0.8768
   15MOL    C8716794   3.841   4.483   2.760 -0.3051  0.4975 -0.7734
   15MOL    N8816795   3.699   4.462   2.777 -0.0574  0.0500  0.2005
   15MOL    H8916796   4.683   3.980   4.345  1.1167  0.4389  1.2829
   15MOL    H9016797   4.719   4.124   4.248  0.8832 -2.4188 -0.1961
   15MOL    H9116798   4.502   3.989   4.176 -1.3696  0.1738  0.5860
   15MOL    H9216799   4.434   4.039   4.315 -2.1894 -1.6917 -2.5813
   15MOL    H9316800   4.458   4.273   4.271  0.3856  0.1105 -0.4698
   15MOL    H9416801   4.542   4.255   4.127 -0.4307  0.3592 -0.8092
   15MOL    H9516802   4.329   4.136   4.031  0.8679 -1.6345  1.0608
   15MOL    H9616803   4.250   4.169   4.189  2.0170 -0.2396  1.1216
   15MOL    H9716804   4.269   4.409   4.172 -0.5894  1.4663 -1.5514
   15MOL    H9816805   4.362   4.392   4.033 -3.0456  4.2740 -0.6004
   15MOL    H9916806   4.060   4.327   4.071  0.1202  1.7047  0.8768
   15MOL   H10016807   4.130   4.462   4.001 -0.3347  0.2428 -2.5508
   15MOL   H10116808   4.155   4.180   3.884  0.6751  0.1708  0.3636
   15MOL   H10216809   4.256   4.315   3.826  0.0473 -1.2837  0.8683
   15MOL   H10316810   3.939   4.285   3.843  1.9885 -1.8520  1.4240
   15MOL   H10416811   4.026   4.439   3.813  2.1748 -0.0796 -0.0785
   15MOL   H10516812   3.917   4.323   3.614  0.4950 -0.7490 -0.6045
   15MOL   H10616813   4.028   4.190   3.664  0.2190 -0.6866 -4.0827
   15MOL   H10716814   4.090   4.475   3.544  0.2772 -0.5306  0.9975
   15MOL   H10816815   4.219   4.371   3.600  0.2927  0.3258 -0.6648
   15MOL   H10916816   4.285   4.422   3.383 -1.8045 -0.1528  2.6612
   15MOL   H11016817   4.256   4.210   3.201  1.1613  0.2319 -1.3069
   15MOL   H11116818   4.335   4.360   3.180 -0.3705  0.1443 -0.9694
   15MOL   H11216819   4.153   4.480   3.100  0.4909  0.6840  0.9604
   15MOL   H11316820   4.035   4.352   3.122  0.9756 -1.8091  1.3114
   15MOL   H11416821   4.151   4.234   2.941  1.0974 -0.9030  0.0882
   15MOL   H11516822   4.267   4.356   2.908  2.4003 -1.8883  3.5324
   15MOL   H11616823   4.111   4.532   2.869  1.5819 -0.8734  0.5006
   15MOL   H11716824   4.106   4.409   2.755  2.2770 -0.3523  0.8350
   15MOL   H11816825   3.894   4.313   2.893 -1.8610 -0.7793  0.7255
   15MOL   H11916826   3.896   4.465   2.978 -2.6495  1.5691 -1.1788
   15MOL   H12016827   3.849   4.592   2.762  0.8032  0.3900  0.7362
   15MOL   H12116828   3.862   4.435   2.665  0.7207  0.8480 -0.7270
   15MOL   H12216829   3.656   4.496   2.862 -3.1637  1.5311 -1.8539
   15MOL   H12316830   3.681   4.363   2.768  0.8265 -0.2118  1.2145
   16MOL     C116831   2.342   6.298   4.203  0.3744 -0.2896  0.6505
   16MOL     O216832   2.247   6.246   4.254  0.5770  0.2724 -0.1422
   16MOL     C316833   2.368   6.309   4.058  0.1836  0.4597 -0.3648
   16MOL     C416834   2.509   6.364   4.008  0.4534 -0.6278  0.5827
   16MOL     C516835   2.628   6.288   4.060 -0.3912  0.1284 -0.5376
   16MOL     C616836   2.764   6.337   4.010 -0.5340  0.9676  0.0193
   16MOL     C716837   2.794   6.325   3.858 -0.5707  0.5637  0.1377
   16MOL     C816838   2.928   6.407   3.827  0.0204 -0.7397  0.6301
   16MOL     C916839   2.958   6.415   3.682  0.3882 -0.6300 -0.1513
   16MOL    C1016840   3.103   6.450   3.643 -0.0733 -0.2632 -0.2422
   16MOL    C1116841   3.127   6.426   3.490  0.0443 -1.0411  0.0017
   16MOL    C1216842   3.058   6.536   3.411 -0.2102 -0.5207 -0.5103
   16MOL    C1316843   3.126   6.675   3.428 -0.3491  0.1519  0.3763
   16MOL    O1416844   3.235   6.682   3.384  0.6187 -0.2701  0.5219
   16MOL    N1516845   3.065   6.790   3.477 -0.6068 -0.6245 -0.4604
   16MOL    C1616846   3.137   6.913   3.468  0.1596 -0.4126 -0.3848
   16MOL    C1716847   3.071   7.002   3.364  0.1509 -0.1411  0.4418
   16MOL    C1816848   3.139   7.140   3.337 -0.6336  0.2704  0.2061
   16MOL    C1916849   3.058   7.223   3.231 -0.2825 -0.5607 -0.1353
   16MOL    C2016850   3.113   7.364   3.214 -0.3400 -0.3819 -0.0456
   16MOL    C2116851   3.048   7.457   3.108 -0.0483  0.8841 -0.6969
   16MOL    N2216852   3.111   7.589   3.100  0.0999  0.3525  0.6393
   16MOL    H2316853   2.294   6.368   4.004 -1.1677  0.6938  1.6750
   16MOL    H2416854   2.354   6.205   4.028 -0.7602  0.9191 -1.5882
   16MOL    H2516855   2.517   6.471   4.024 -1.5334 -0.4103  0.2020
   16MOL    H2616856   2.498   6.340   3.902  1.3305 -1.5300  0.6897
   16MOL    H2716857   2.618   6.182   4.040 -0.9330 -0.3677  2.1457
   16MOL    H2816858   2.623   6.306   4.167  0.8971  2.8224 -0.8844
   16MOL    H2916859   2.757   6.445   4.023 -1.3927  0.8372  0.7882
   16MOL    H3016860   2.851   6.315   4.072  0.3328  0.5246 -1.3555
   16MOL    H3116861   2.715   6.375   3.801 -0.1026 -0.7754 -1.6912
   16MOL    H3216862   2.790   6.220   3.833  0.7696  0.5857 -0.1637
   16MOL    H3316863   2.916   6.506   3.873 -3.6103 -0.8970  0.1736
   16MOL    H3416864   3.007   6.348   3.873 -0.0819 -2.0071 -0.8142
   16MOL    H3516865   2.933   6.314   3.650  0.3952 -0.8643  0.5760
   16MOL    H3616866   2.877   6.473   3.636  0.4333  0.3484  0.9856
   16MOL    H3716867   3.106   6.550   3.685 -0.1395 -1.2822  2.2711
   16MOL    H3816868   3.164   6.384   3.704 -0.0990  0.8931  1.0415
   16MOL    H3916869   3.095   6.330   3.449 -0.4205 -0.0863 -1.9159
   16MOL    H4016870   3.235   6.421   3.476 -0.3055 -1.3770 -2.7139
   16MOL    H4116871   3.060   6.503   3.307  1.7524 -1.2775 -0.2691
   16MOL    H4216872   2.957   6.539   3.450 -0.6365  0.3744 -1.6796
   16MOL    H4316873   2.976   6.790   3.525  0.0519  0.7778  0.7877
   16MOL    H4416874   3.242   6.904   3.438  0.4243  2.0491 -0.2406
   16MOL    H4516875   3.128   6.958   3.567 -0.6406  0.1842 -0.7312
   16MOL    H4616876   2.966   7.009   3.393  0.5488  0.8261  1.7123
   16MOL    H4716877   3.070   6.944   3.272 -1.0526 -0.2420  0.5098
   16MOL    H4816878   3.137   7.194   3.432  0.3884 -2.2920  1.7368
   16MOL    H4916879   3.240   7.124   3.301  0.3838  1.8603  2.2064
   16MOL    H5016880   2.952   7.221   3.254 -0.7334 -0.6220 -2.1824
   16MOL    H5116881   3.066   7.164   3.140 -0.8752  0.8159 -1.1026
   16MOL    H5216882   3.083   7.413   3.307 -1.4279  1.0542 -1.1499
   16MOL    H5316883   3.221   7.368   3.200 -0.2825 -1.5090 -0.0263
   16MOL    H5416884   3.063   7.408   3.012  0.6821 -0.5028  0.0937
   16MOL    H5516885   2.941   7.460   3.128  0.3566  1.0936  1.5743
   16MOL    H5616886   3.192   7.585   3.160  0.8814  0.8559 -0.3592
   16MOL    H5716887   2.404   6.352   4.275  1.3791 -0.1595 -0.2995
   16MOL    C5816888   3.061   0.012   3.056 -0.0642 -0.2766 -0.3288
   16MOL    O5916889   2.950   0.024   3.003 -0.1159  0.1459 -0.4271
   16MOL    C6016890   3.146   0.133   3.080 -0.7538 -0.5472 -0.4997
   16MOL    C6116891   3.086   0.227   3.193 -0.1598 -0.1123  0.6318
   16MOL    C6216892   3.120   0.178   3.337  0.0616 -0.5101 -0.0871
   16MOL    C6316893   3.045   0.238   3.458 -0.7050 -0.3696  0.5825
   16MOL    C6416894   3.143   0.268   3.571  0.2067  0.6507 -0.6528
   16MOL    C6516895   3.071   0.297   3.697  0.1797 -0.1023  0.0722
   16MOL    C6616896   3.162   0.297   3.815  0.0861  0.0277  0.1423
   16MOL    C6716897   3.087   0.319   3.949  0.4404  0.2805  0.0839
   16MOL    C6816898   3.188   0.346   4.061  0.2319 -0.1587  0.2823
   16MOL    C6916899   3.131   0.332   4.205 -0.5845 -0.0758 -0.5205
   16MOL    C7016900   3.232   0.374   4.315  0.2318  1.0440 -0.2069
   16MOL    O7116901   3.352   0.383   4.285  0.6968  0.6323 -0.0119
   16MOL    N7216902   3.181   0.403   4.430 -0.1754 -0.7470 -0.1755
   16MOL    C7316903   3.262   0.428   4.544 -0.7467 -0.5979  0.2013
   16MOL    C7416904   3.283   0.582   4.571 -0.2988 -0.0100 -0.6130
   16MOL    C7516905   3.371   0.607   4.699 -0.1815 -0.2376  0.1894
   16MOL    C7616906   3.385   0.757   4.728 -0.3950 -0.1574 -0.1522
   16MOL    C7716907   3.435   0.790   4.867  0.1696 -0.2706 -0.6320
   16MOL    C7816908   3.459   0.942   4.893  0.0987 -0.2718 -0.2549
   16MOL    N7916909   3.478   0.978   5.035 -0.7200  0.2268  0.6353
   16MOL    H8016910   3.142   0.195   2.991  0.4584  1.5076  0.8245
   16MOL    H8116911   3.250   0.106   3.096 -0.6805 -1.0608 -1.7658
   16MOL    H8216912   3.122   0.325   3.164 -1.1090  0.1027  0.1668
   16MOL    H8316913   2.977   0.230   3.188 -0.2642  1.5410  3.0240
   16MOL    H8416914   3.228   0.195   3.335 -0.0215  0.0841  0.5408
   16MOL    H8516915   3.121   0.070   3.354 -1.0194 -0.2256  1.8452
   16MOL    H8616916   2.973   0.163   3.488  0.5873 -2.3339 -1.0643
   16MOL    H8716917   2.998   0.328   3.417 -2.1938 -1.2469  0.3234
   16MOL    H8816918   3.195   0.174   3.592  2.2473  2.2770  1.7902
   16MOL    H8916919   3.219   0.342   3.548  2.9456 -2.2184 -1.2064
   16MOL    H9016920   3.001   0.222   3.734 -0.2864 -0.0185 -0.6313
   16MOL    H9116921   3.030   0.397   3.681 -1.5157 -0.9393 -0.9724
   16MOL    H9216922   3.241   0.368   3.791 -2.2098  2.2886 -1.0042
   16MOL    H9316923   3.203   0.196   3.819 -2.2966 -0.9164  1.5585
   16MOL    H9416924   3.024   0.406   3.936  0.2548  0.1758  0.2763
   16MOL    H9516925   3.024   0.232   3.968  0.5920  0.7141  2.7531
   16MOL    H9616926   3.240   0.441   4.045 -0.7080  0.2069 -0.6720
   16MOL    H9716927   3.273   0.278   4.055  0.4325 -0.1455  2.7430
   16MOL    H9816928   3.044   0.396   4.219  0.6472  1.9965 -2.0447
   16MOL    H9916929   3.088   0.234   4.224  1.0161 -1.2389 -2.7838
   16MOL   H10016930   3.081   0.404   4.446 -0.1028  1.2561  0.2519
   16MOL   H10116931   3.360   0.383   4.534  0.4933  2.1542 -0.5622
   16MOL   H10216932   3.212   0.389   4.633 -0.7595  0.3679  0.6314
   16MOL   H10316933   3.337   0.637   4.493  2.8910  0.4281  1.7713
   16MOL   H10416934   3.181   0.619   4.582  0.2148  1.4016 -0.4897
   16MOL   H10516935   3.466   0.556   4.687 -0.6350 -0.5078 -2.8030
   16MOL   H10616936   3.320   0.559   4.782  0.5826  0.2222  0.9308
   16MOL   H10716937   3.447   0.793   4.646 -0.9044 -2.9802 -1.8717
   16MOL   H10816938   3.289   0.807   4.715 -0.5249 -0.3844 -0.0780
   16MOL   H10916939   3.522   0.730   4.892 -0.0198 -0.1610  0.3076
   16MOL   H11016940   3.360   0.760   4.940  1.0569 -1.5980 -0.2510
   16MOL   H11116941   3.374   1.004   4.864  0.6227 -0.5383 -2.4473
   16MOL   H11216942   3.543   0.966   4.829  0.6110 -2.0696 -0.2920
   16MOL   H11316943   3.408   1.040   5.074  0.4698  1.1520  1.3321
   16MOL   C11416944   3.592   0.958   5.098 -0.2677  1.3067 -0.1970
   16MOL   O11516945   3.684   0.887   5.044  0.4110 -0.1511 -0.1225
   16MOL   C11616946   3.608   1.035   5.233 -0.2613  0.1924 -0.8850
   16MOL   C11716947   3.749   1.026   5.296  0.0300  0.1403 -0.1304
   16MOL   C11816948   3.787   0.893   5.374 -0.5986  0.0313 -0.0645
   16MOL   C11916949   3.923   0.901   5.453 -0.3013 -0.4000 -0.2463
   16MOL   C12016950   3.942   0.787   5.557  0.8276 -0.7200  0.1390
   16MOL   C12116951   4.079   0.796   5.631  0.1359 -0.0048 -0.7546
   16MOL   C12216952   4.057   0.852   5.774  0.1023  0.7062  0.6704
   16MOL   C12316953   4.010   1.001   5.771 -0.2594  0.0120 -0.0402
   16MOL   C12416954   4.120   1.092   5.707  0.6819 -0.2315  0.0293
   16MOL   C12516955   4.102   1.244   5.738  0.0674  0.0716 -0.3301
   16MOL   C12616956   4.022   1.309   5.625 -1.3020 -0.2764  0.6503
   16MOL   O12716957   4.085   1.331   5.519  0.3557 -0.2559 -0.6045
   16MOL   N12816958   3.898   1.350   5.639 -0.0560  0.4862  0.1807
   16MOL   C12916959   3.810   1.407   5.534  0.1876 -0.5213  0.3081
   16MOL   C13016960   3.673   1.471   5.592  0.4252 -0.1012  0.4323
   16MOL   C13116961   3.567   1.486   5.484  0.2464  0.1449 -0.5842
   16MOL   C13216962   3.505   1.368   5.409 -0.4100 -0.3620  0.4565
   16MOL   C13316963   3.403   1.418   5.309 -0.0255 -0.4494 -0.4825
   16MOL   C13416964   3.313   1.301   5.264  0.6727 -0.2584  0.2136
   16MOL   N13516965   3.234   1.328   5.148 -1.0308 -0.2396  0.0644
   16MOL   H13616966   3.585   1.139   5.213 -1.6729  0.4404  1.7768
   16MOL   H13716967   3.542   0.987   5.305  0.0289 -1.0725 -1.4378
   16MOL   H13816968   3.779   1.113   5.353  2.8041  0.2238 -1.6235
   16MOL   H13916969   3.817   1.027   5.211  0.4010  0.1879  0.1632
   16MOL   H14016970   3.700   0.856   5.428 -1.9899  1.0302 -1.5796
   16MOL   H14116971   3.805   0.817   5.299  1.2336  0.6983 -0.3263
   16MOL   H14216972   4.006   0.916   5.384 -1.1393 -1.0250 -1.3915
   16MOL   H14316973   3.920   0.995   5.509  1.0001 -1.1010  1.0242
   16MOL   H14416974   3.854   0.760   5.615 -0.0261  0.6862 -0.4873
   16MOL   H14516975   3.945   0.692   5.504  0.9424 -0.6004 -0.0682
   16MOL   H14616976   4.143   0.849   5.561 -1.5094 -0.1928 -2.4458
   16MOL   H14716977   4.114   0.695   5.648 -0.0471  0.2777  1.5069
   16MOL   H14816978   3.990   0.795   5.838 -0.9442  0.4329 -0.6409
   16MOL   H14916979   4.154   0.856   5.823  2.2191 -0.5358 -3.2101
   16MOL   H15016980   3.995   1.046   5.869  2.6443 -0.4694  0.6825
   16MOL   H15116981   3.921   1.022   5.712 -0.3422 -2.3760 -0.8378
   16MOL   H15216982   4.129   1.080   5.600  1.0056  2.4819 -0.2939
   16MOL   H15316983   4.214   1.075   5.759  0.4301  0.7790  0.8431
   16MOL   H15416984   4.199   1.293   5.748  1.4815 -2.9931  1.5617
   16MOL   H15516985   4.057   1.262   5.836  1.8929 -1.2417  0.7665
   16MOL   H15616986   3.846   1.313   5.717 -1.3182  1.5865 -0.0939
   16MOL   H15716987   3.779   1.318   5.479 -3.1693  0.3096  0.7735
   16MOL   H15816988   3.862   1.474   5.465  0.3217 -0.3666  0.5562
   16MOL   H15916989   3.691   1.566   5.642  0.6897 -1.1012  2.3134
   16MOL   H16016990   3.629   1.408   5.670  0.1824 -0.5035 -0.0337
   16MOL   H16116991   3.485   1.540   5.532  1.8570  2.3249 -0.2064
   16MOL   H16216992   3.603   1.548   5.402  0.3699 -0.7327 -1.1971
   16MOL   H16316993   3.579   1.301   5.365  0.7751 -0.6419  2.8066
   16MOL   H16416994   3.455   1.304   5.482  0.0018 -0.2910  0.8001
   16MOL   H16516995   3.451   1.461   5.221  1.2440  0.7045  0.7572
   16MOL   H16616996   3.335   1.489   5.356  1.4699  0.5474  0.1892
   16MOL   H16716997   3.378   1.213   5.263  0.6293 -0.2814 -0.5828
   16MOL   H16816998   3.244   1.276   5.344 -0.3790  1.9775  0.0247
   16MOL   H16916999   3.213   1.424   5.122  0.1769 -0.7138 -2.8691
   16MOL   C17017000   3.188   1.240   5.057 -0.1939 -0.4343  0.2398
   16MOL   O17117001   3.217   1.124   5.059  0.9340  0.7032  0.2606
   16MOL   C17217002   3.116   1.304   4.939  0.5545  0.0212  0.6394
   16MOL   C17317003   3.092   1.204   4.821  0.2104  0.0127 -0.1276
   16MOL   C17417004   3.205   1.215   4.727 -0.5770 -0.6408  0.1248
   16MOL   C17517005   3.197   1.114   4.607  0.3006  0.2862 -0.9961
   16MOL   C17617006   3.302   1.135   4.503 -0.9710  0.1667 -0.3254
   16MOL   C17717007   3.277   1.053   4.374  0.3154 -0.6687  0.0056
   16MOL   C17817008   3.313   0.906   4.376  0.0902  1.3849  0.2472
   16MOL   C17917009   3.288   0.851   4.234  0.3632  0.0293 -0.7152
   16MOL   C18017010   3.145   0.796   4.232  0.3355 -0.5434 -0.1884
   16MOL   C18117011   3.104   0.755   4.088 -0.3101 -0.4986  0.6082
   16MOL   C18217012   2.966   0.690   4.091 -0.0326  0.9687 -0.0806
   16MOL   O18317013   2.925   0.620   4.184 -0.4534  0.4163  0.1127
   16MOL   N18417014   2.910   0.704   3.973  0.1175 -0.2878 -0.3300
   16MOL   C18517015   2.782   0.649   3.935  0.1926  0.1471 -0.0846
   16MOL   C18617016   2.749   0.627   3.780  0.3794 -0.1557 -0.1756
   16MOL   C18717017   2.612   0.561   3.760 -0.0640 -0.2624  0.6397
   16MOL   C18817018   2.571   0.513   3.622 -0.0052  0.3253 -0.0901
   16MOL   C18917019   2.422   0.466   3.625 -0.2424  0.0788  0.5188
   16MOL   C19017020   2.346   0.467   3.486 -0.4211 -1.0956 -0.2169
   16MOL   N19117021   2.208   0.430   3.491  0.2682  0.6227 -0.0460
   16MOL   H19217022   3.011   1.321   4.963  0.5801 -0.6217  1.2566
   16MOL   H19317023   3.154   1.399   4.903 -1.7221  0.8567  0.3692
   16MOL   H19417024   3.006   1.238   4.763  0.7898 -0.4670 -1.2826
   16MOL   H19517025   3.048   1.107   4.847 -0.3669  0.1759 -0.4852
   16MOL   H19617026   3.296   1.198   4.783 -0.5566  2.2234  1.0466
   16MOL   H19717027   3.208   1.317   4.689  1.3914 -0.6242  0.2912
   16MOL   H19817028   3.194   1.017   4.655 -1.6955  0.8936  0.1996
   16MOL   H19917029   3.095   1.125   4.569  0.5047  1.1191 -1.3158
   16MOL   H20017030   3.312   1.240   4.475 -2.1681  0.0353 -1.2990
   16MOL   H20117031   3.392   1.110   4.559 -1.2011  0.1655  0.0514
   16MOL   H20217032   3.349   1.090   4.301 -0.1452  3.1780  1.3993
   16MOL   H20317033   3.180   1.080   4.332  1.2729  2.4321 -0.3506
   16MOL   H20417034   3.421   0.906   4.395  0.0817 -1.8553  0.6568
   16MOL   H20517035   3.259   0.856   4.456 -1.9954  2.4024 -0.5073
   16MOL   H20617036   3.294   0.936   4.166 -1.2455  0.3873 -0.4323
   16MOL   H20717037   3.355   0.770   4.208  0.4588  0.0073 -0.3947
   16MOL   H20817038   3.076   0.877   4.256 -0.0404 -0.7245 -0.6452
   16MOL   H20917039   3.136   0.719   4.308  0.4270 -1.2927 -0.9334
   16MOL   H21017040   3.114   0.837   4.016  2.2576  0.6427  2.1924
   16MOL   H21117041   3.172   0.682   4.044  0.5043  1.0659 -0.8166
   16MOL   H21217042   2.956   0.769   3.910 -3.2055  1.3130 -1.2159
   16MOL   H21317043   2.703   0.708   3.983  1.9548  1.8558  0.7902
   16MOL   H21417044   2.770   0.550   3.978 -0.9572  0.6152  0.7144
   16MOL   H21517045   2.763   0.717   3.719 -0.6249  0.3546  0.3309
   16MOL   H21617046   2.813   0.546   3.745 -0.4741 -0.1387 -1.8733
   16MOL   H21717047   2.594   0.481   3.831 -0.2305  1.1827  2.2618
   16MOL   H21817048   2.540   0.638   3.787 -0.0208  1.0262 -2.5866
   16MOL   H21917049   2.633   0.433   3.582  1.2538  1.3846 -0.3197
   16MOL   H22017050   2.576   0.589   3.544  0.5988 -0.2790 -0.6405
   16MOL   H22117051   2.373   0.526   3.702 -0.0329  2.8580 -1.4595
   16MOL   H22217052   2.416   0.364   3.664  0.2563 -1.7304 -3.8776
   16MOL   H22317053   2.407   0.394   3.432 -0.1426  0.6163 -2.3055
   16MOL   H22417054   2.375   0.558   3.433 -1.3998 -1.6755 -1.7779
   16MOL   H22517055   2.140   0.504   3.499  0.1864  0.5986 -0.5251
   16MOL   C22617056   2.162   0.303   3.476 -0.4978 -0.2722 -0.4895
   16MOL   O22717057   2.236   0.202   3.457 -0.4586  0.1789  0.4889
   16MOL   C22817058   2.014   0.289   3.497  0.6240  0.7508  0.3861
   16MOL   C22917059   1.951   0.227   3.368  0.2835 -0.0888 -0.2735
   16MOL   C23017060   1.977   0.306   3.244  0.9378  0.0750  0.1838
   16MOL   C23117061   1.925   0.454   3.258  0.6395  0.5041  0.2108
   16MOL   C23217062   1.918   0.531   3.121  0.1936 -0.6737  0.4226
   16MOL   C23317063   1.880   0.676   3.136  0.5649  0.0643 -0.8839
   16MOL   C23417064   1.870   0.750   2.998  0.3259  0.2829 -0.4173
   16MOL   C23517065   1.797   0.670   2.887 -0.4872 -1.3763 -0.0878
   16MOL   C23617066   1.782   0.761   2.760 -0.6042  0.1130  0.5639
   16MOL   C23717067   1.728   0.682   2.639  0.1563  0.2933  0.2933
   16MOL   C23817068   1.586   0.632   2.654  0.1971 -0.0239  0.0349
   16MOL   O23917069   1.505   0.703   2.712 -0.2778 -0.2063 -0.2108
   16MOL   N24017070   1.552   0.511   2.606  0.6052 -0.1002  0.7212
   16MOL   C24117071   1.420   0.454   2.599  0.1590 -1.6067 -0.6468
   16MOL   C24217072   1.381   0.357   2.719 -0.2313 -0.5762  0.2185
   16MOL   C24317073   1.247   0.290   2.690 -0.2039 -0.5457  0.4062
   16MOL   C24417074   1.252   0.183   2.567 -0.5678 -0.6880 -0.7561
   16MOL   C24517075   1.319   0.053   2.608 -0.0342  0.8072 -0.1771
   16MOL   C24617076   1.298   7.635   2.499  0.0191 -0.1096  0.0209
   16MOL   N24717077   1.372   7.511   2.528 -0.5382  0.2048 -0.1601
   16MOL   H24817078   1.980   0.389   3.524  1.1283  1.2580 -0.8336
   16MOL   H24917079   1.991   0.227   3.584  0.3591  0.5519  0.1723
   16MOL   H25017080   1.962   0.119   3.363 -2.1903 -0.4614  1.3429
   16MOL   H25117081   1.844   0.233   3.390  0.3948  1.2987 -0.0283
   16MOL   H25217082   2.078   0.295   3.205  1.1118 -0.5356  0.7859
   16MOL   H25317083   1.915   0.261   3.167 -0.1768 -0.4609  1.3777
   16MOL   H25417084   1.997   0.511   3.317  0.3180  0.5073  0.5995
   16MOL   H25517085   1.836   0.468   3.319  0.0919 -1.0937 -0.1850
   16MOL   H25617086   1.848   0.483   3.052  0.4280 -0.4492  0.0295
   16MOL   H25717087   2.016   0.519   3.074  0.5809 -0.5191  1.1834
   16MOL   H25817088   1.786   0.686   3.189 -0.2998  0.0693 -2.3997
   16MOL   H25917089   1.956   0.722   3.199 -0.2390  0.4157 -0.1613
   16MOL   H26017090   1.962   0.793   2.960  0.5627 -1.4907 -1.9198
   16MOL   H26117091   1.819   0.846   3.007  0.1814  0.3565 -1.9296
   16MOL   H26217092   1.857   0.588   2.848  0.4484 -0.2335 -1.1023
   16MOL   H26317093   1.700   0.630   2.916 -0.9030 -0.3963 -0.1136
   16MOL   H26417094   1.720   0.844   2.793 -1.8325 -0.4063 -0.3903
   16MOL   H26517095   1.878   0.807   2.736 -0.3852  0.9277  2.9281
   16MOL   H26617096   1.734   0.744   2.550  0.8510 -0.3514 -0.1169
   16MOL   H26717097   1.790   0.597   2.611  2.9436  2.7109 -1.1837
   16MOL   H26817098   1.622   0.461   2.554  1.7973  1.2439  1.0140
   16MOL   H26917099   1.411   0.397   2.506 -1.8751 -1.9010 -0.2836
   16MOL   H27017100   1.344   0.532   2.589  1.5384 -0.1903 -0.2457
   16MOL   H27117101   1.380   0.421   2.807 -1.6435 -0.0160 -0.1929
   16MOL   H27217102   1.453   0.275   2.731 -0.3661 -0.8937 -1.0999
   16MOL   H27317103   1.226   0.234   2.781 -0.4772 -0.0248  0.6629
   16MOL   H27417104   1.177   0.372   2.674  0.7579  0.1559 -0.2721
   16MOL   H27517105   1.295   0.225   2.476 -1.0221 -1.6668 -1.4273
   16MOL   H27617106   1.145   0.172   2.550 -1.0655  0.0870  1.7141
   16MOL   H27717107   1.271   0.023   2.701 -0.9377  0.1659 -0.8453
   16MOL   H27817108   1.425   0.054   2.633  0.4043 -2.8482 -1.7197
   16MOL   H27917109   1.318   7.668   2.398 -0.5832 -1.2504 -0.4748
   16MOL   H28017110   1.191   7.615   2.490  0.0748 -0.0425 -0.7919
   16MOL   H28117111   1.449   7.510   2.594 -0.0426 -1.5595 -0.7294
   16MOL   C28217112   1.359   7.395   2.454 -0.0890  0.2803 -0.9986
   16MOL   O28317113   1.262   7.380   2.376  0.3211  0.3628 -0.5907
   16MOL   C28417114   1.456   7.282   2.471 -0.4648  0.2291  0.7326
   16MOL   C28517115   1.413   7.176   2.574 -0.1245  0.0846 -0.2044
   16MOL   C28617116   1.501   7.059   2.593  0.5877  0.1794 -0.0816
   16MOL   C28717117   1.469   6.978   2.716  0.1772 -0.1475  0.4259
   16MOL   C28817118   1.581   6.870   2.743 -0.5687 -0.0483  0.3052
   16MOL   C28917119   1.525   6.752   2.835 -0.1439  0.3825  0.0543
   16MOL   C29017120   1.515   6.814   2.979  0.1069  0.8859  0.4251
   16MOL   C29117121   1.475   6.699   3.076 -0.0300 -0.3061  0.0801
   16MOL   C29217122   1.462   6.748   3.218 -0.0310  0.0038 -0.5371
   16MOL   C29317123   1.417   6.646   3.332 -0.4859  0.0272 -0.3268
   16MOL   C29417124   1.534   6.552   3.379  0.3053 -0.1140  0.3114
   16MOL   O29517125   1.646   6.576   3.343  0.0030 -0.3619  0.1904
   16MOL   N29617126   1.504   6.455   3.466 -0.0675  0.5178  0.4505
   16MOL   C29717127   1.611   6.373   3.528 -0.1402 -0.1672  0.0303
   16MOL   C29817128   1.700   6.451   3.630 -0.1436  0.5820 -0.2167
   16MOL   C29917129   1.626   6.530   3.740  0.4051 -0.9086 -0.4069
   16MOL   C30017130   1.730   6.613   3.823 -0.6238 -0.3456 -0.4268
   16MOL   C30117131   1.761   6.749   3.759 -0.0420 -0.4804  0.1330
   16MOL   C30217132   1.869   6.821   3.831  0.2860  0.6514 -0.2688
   16MOL   N30317133   1.912   6.946   3.768 -0.1144 -0.3232 -0.6157
   16MOL   H30417134   1.487   7.228   2.381 -2.0139  0.2511  0.1848
   16MOL   H30517135   1.547   7.331   2.506 -0.6634  0.9091  0.2955
   16MOL   H30617136   1.318   7.137   2.536 -0.4254  1.4391 -0.8483
   16MOL   H30717137   1.405   7.222   2.672  2.2054  1.0753 -0.4489
   16MOL   H30817138   1.487   7.006   2.499 -1.7977 -0.4039  0.5867
   16MOL   H30917139   1.607   7.085   2.606  0.5372 -0.3443  1.4526
   16MOL   H31017140   1.370   6.932   2.715 -1.1724  2.6773  0.4110
   16MOL   H31117141   1.456   7.040   2.805 -0.5020 -0.6085  0.6573
   16MOL   H31217142   1.613   6.824   2.650 -0.5415 -0.2186  0.3991
   16MOL   H31317143   1.669   6.921   2.782 -1.1502  0.3926  1.0535
   16MOL   H31417144   1.432   6.705   2.805  1.4765 -2.7856 -0.2063
   16MOL   H31517145   1.602   6.675   2.837 -0.1108  0.3623 -1.6540
   16MOL   H31617146   1.424   6.873   2.975  0.1467  0.8643 -1.1972
   16MOL   H31717147   1.606   6.865   3.012 -0.1061  0.7216  1.2813
   16MOL   H31817148   1.549   6.619   3.067  1.3735  1.1359 -1.4548
   16MOL   H31917149   1.378   6.660   3.042  0.3829  0.2909 -1.8383
   16MOL   H32017150   1.557   6.795   3.243 -1.1090  2.2297 -0.5482
   16MOL   H32117151   1.394   6.833   3.223  1.7560  1.4504 -0.3260
   16MOL   H32217152   1.366   6.694   3.415  0.3049  1.2496 -0.5261
   16MOL   H32317153   1.339   6.582   3.292  0.4753 -1.9894  0.9301
   16MOL   H32417154   1.410   6.454   3.502 -0.6246  0.9922 -0.9546
   16MOL   H32517155   1.678   6.328   3.455  0.2813  1.3561 -0.5286
   16MOL   H32617156   1.566   6.290   3.583 -0.7415 -0.6462 -1.1667
   16MOL   H32717157   1.755   6.524   3.570 -1.6153  1.0426 -1.0237
   16MOL   H32817158   1.779   6.386   3.669 -1.6651 -1.5052 -0.5726
   16MOL   H32917159   1.560   6.469   3.803  1.2352 -1.2901  0.1057
   16MOL   H33017160   1.558   6.605   3.699  1.0646  0.4914  1.0157
   16MOL   H33117161   1.686   6.638   3.920  0.1073  2.2578 -0.7338
   16MOL   H33217162   1.814   6.546   3.840 -2.1960 -2.5186 -0.9443
   16MOL   H33317163   1.667   6.802   3.746  0.0970 -0.2024  0.2483
   16MOL   H33417164   1.796   6.728   3.658 -1.1006  2.0836 -0.7998
   16MOL   H33517165   1.829   6.844   3.930  0.4713  1.6375 -0.4157
   16MOL   H33617166   1.946   6.746   3.846  0.0514  0.8598  2.1650
   16MOL   H33717167   1.966   6.940   3.683  0.4984 -2.2376 -0.1342
   16MOL   C33817168   1.898   7.064   3.825 -0.4988 -0.5251 -0.1295
   16MOL   O33917169   1.868   7.082   3.944 -0.1165  0.0559 -0.0707
   16MOL   C34017170   1.939   7.178   3.730  0.0380 -0.1979 -0.5833
   16MOL   C34117171   1.888   7.316   3.782  0.3676  0.2327  0.4853
   16MOL   C34217172   1.922   7.438   3.692 -0.2629  0.0989  0.8514
   16MOL   C34317173   1.844   7.435   3.566 -0.3694 -0.0148  0.0902
   16MOL   C34417174   1.849   7.561   3.489  0.3405  0.3466  0.7850
   16MOL   C34517175   1.778   7.560   3.354  0.4394  0.0165  0.0558
   16MOL   C34617176   1.637   7.493   3.361  0.3487  0.1094  0.7445
   16MOL   C34717177   1.533   7.575   3.439  0.6736  0.6440 -0.1334
   16MOL   C34817178   1.394   7.505   3.429  0.0311  0.2213  0.3685
   16MOL   C34917179   1.299   7.570   3.532  0.1947 -0.6901 -0.3814
   16MOL   C35017180   1.161   7.519   3.518  0.2604 -0.1706 -0.6073
   16MOL   O35117181   1.135   7.411   3.466  0.0428  0.0886  0.6140
   16MOL   N35217182   1.067   7.602   3.562  0.4893  0.5667 -0.0871
   16MOL   C35317183   0.926   7.581   3.571  0.1573 -0.0845  0.3672
   16MOL   C35417184   0.859   7.674   3.679  0.1990 -0.4827 -0.1608
   16MOL   C35517185   0.909   7.654   3.822 -0.1207 -0.1948 -0.0427
   16MOL   C35617186   0.828   0.051   3.922 -0.3849 -0.4303 -0.0183
   16MOL   C35717187   0.850   0.024   4.069  0.5007 -0.4545  0.2901
   16MOL   C35817188   0.763   0.123   4.154  0.1336  0.4835  0.0547
   16MOL   N35917189   0.784   0.094   4.292  0.2196  0.1300  0.5441
   16MOL   H36017190   1.900   7.147   3.633 -0.3758  0.5746 -0.6630
   16MOL   H36117191   2.048   7.170   3.733  0.2446  2.5934  0.2154
   16MOL   H36217192   1.780   7.308   3.796  0.0844 -0.1312 -1.7929
   16MOL   H36317193   1.923   7.312   3.885 -2.6168 -1.0848  1.5039
   16MOL   H36417194   2.025   7.444   3.658 -0.9283  1.8427 -0.9902
   16MOL   H36517195   1.905   7.538   3.731  3.2176  2.5873 -3.5981
   16MOL   H36617196   1.880   7.347   3.512  3.4743  0.1760  2.1744
   16MOL   H36717197   1.742   7.404   3.591  0.1276 -1.6296  0.1375
   16MOL   H36817198   1.800   7.644   3.542  2.1920  0.6952  1.9950
   16MOL   H36917199   1.954   7.586   3.480  0.4283  0.1691  1.2614
   16MOL   H37017200   1.763   7.656   3.304  2.3822  0.3212  0.0227
   16MOL   H37117201   1.839   7.494   3.293 -1.0289 -0.7294 -0.6095
   16MOL   H37217202   1.607   7.485   3.256  1.3540 -1.1262  0.5320
   16MOL   H37317203   1.652   7.388   3.386  1.2150 -0.1089 -0.6377
   16MOL   H37417204   1.562   7.590   3.543 -1.3181 -0.2387  0.5815
   16MOL   H37517205   1.513   7.675   3.401  0.5941  0.6909  0.0284
   16MOL   H37617206   1.414   7.398   3.437  0.6195  0.2631 -0.4416
   16MOL   H37717207   1.354   7.524   3.330 -0.3059 -1.8113  0.0982
   16MOL   H37817208   1.332   7.537   3.630  0.8090  1.7226  0.2687
   16MOL   H37917209   1.308   7.678   3.523  3.4984 -0.6179  3.0441
   16MOL   H38017210   1.100   7.689   3.602 -0.1891  0.9652 -0.4009
   16MOL   H38117211   0.912   7.475   3.593  2.2763 -0.1888  1.3633
   16MOL   H38217212   0.882   7.611   3.476  0.4493  2.9718  1.1640
   16MOL   H38317213   0.750   7.664   3.682 -0.1984  2.8638 -0.8318
   16MOL   H38417214   0.879   0.083   3.644  0.9756 -0.0907  1.3443
   16MOL   H38517215   0.901   7.551   3.855  1.7833 -1.2029 -2.5830
   16MOL   H38617216   1.016   7.674   3.827  0.1462 -0.7189 -2.7909
   16MOL   H38717217   0.838   0.155   3.892  1.1291 -1.0638 -1.7949
   16MOL   H38817218   0.721   0.035   3.907 -0.5446  1.6141 -1.2542
   16MOL   H38917219   0.955   0.029   4.098  1.1274  0.4797 -2.0154
   16MOL   H39017220   0.817   7.612   4.077  1.7656 -0.7929  1.3258
   16MOL   H39117221   0.795   0.222   4.122  0.8839  0.2057 -0.0694
   16MOL   H39217222   0.657   0.111   4.131  0.0076 -0.5833  1.1142
   16MOL   H39317223   0.865   0.136   4.335 -2.4352  4.6492  1.3509
   16MOL   C39417224   0.694   0.028   4.373  0.3451 -0.0016 -0.7076
   16MOL   O39517225   0.587   7.672   4.334 -0.0353 -0.8431  0.4424
   16MOL   C39617226   0.739   0.026   4.520  1.3078  0.3611  0.4140
   16MOL   C39717227   0.840   7.608   4.547 -0.0391 -0.1963 -0.0307
   16MOL   C39817228   0.785   7.472   4.552  0.0135 -0.4486  0.2663
   16MOL   C39917229   0.866   7.360   4.482  0.1094 -1.1937 -0.5451
   16MOL   C40017230   0.810   7.226   4.506  0.3536  0.9656 -0.7520
   16MOL   C40117231   0.869   7.118   4.410 -0.3118 -0.1090  0.3081
   16MOL   C40217232   0.795   6.987   4.389 -0.4934  0.4857  0.6240
   16MOL   C40317233   0.829   6.913   4.263 -0.0449 -0.5709  0.3056
   16MOL   C40417234   0.763   6.781   4.245 -0.1077  0.3338 -0.7539
   16MOL   C40517235   0.820   6.707   4.126 -0.5956 -0.0151 -0.3088
   16MOL   C40617236   0.742   6.578   4.088  0.2567 -0.2196 -0.1874
   16MOL   O40717237   0.640   6.552   4.146  0.4414 -0.4129  0.4739
   16MOL   N40817238   0.796   6.498   3.992 -0.8419 -0.3453 -0.2118
   16MOL   C40917239   0.730   6.390   3.922 -0.5765 -0.0872  0.6802
   16MOL   C41017240   0.836   6.278   3.911  0.1664  0.3354 -0.1631
   16MOL   C41117241   0.833   6.187   3.789 -0.2590 -0.2164  0.6357
   16MOL   C41217242   0.931   6.069   3.811  0.4685 -0.3378  0.1921
   16MOL   C41317243   1.084   6.102   3.841  0.0331 -0.0567  0.4785
   16MOL   C41417244   1.152   6.184   3.734  0.2114  0.3190  0.6487
   16MOL   N41517245   1.136   6.134   3.593  0.0749 -0.6342 -0.4692
   16MOL   H41617246   0.659   0.022   4.594  1.3307 -1.3550  0.3678
   16MOL   H41717247   0.793   0.118   4.544 -0.9453  1.9076 -0.2319
   16MOL   H41817248   0.896   7.642   4.633  1.9370 -1.7419 -0.6783
   16MOL   H41917249   0.906   7.622   4.461  0.8144 -1.7808  0.3469
   16MOL   H42017250   0.685   7.480   4.508  0.6701  0.5762 -1.0657
   16MOL   H42117251   0.777   7.444   4.657 -2.3387 -0.8040  0.0365
   16MOL   H42217252   0.970   7.366   4.512 -0.0882  1.1209 -0.2181
   16MOL   H42317253   0.866   7.387   4.376  2.4860  0.5137 -0.1493
   16MOL   H42417254   0.822   7.194   4.610 -1.7922 -1.2132 -1.1228
   16MOL   H42517255   0.702   7.210   4.498  0.7553 -2.1139 -0.3177
   16MOL   H42617256   0.890   7.161   4.312 -1.0651 -1.1737 -0.3198
   16MOL   H42717257   0.967   7.100   4.454 -0.4973  0.0248  0.7820
   16MOL   H42817258   0.822   6.926   4.475 -2.0017  0.7471  1.2994
   16MOL   H42917259   0.689   7.012   4.386 -0.8703 -1.1144  0.0941
   16MOL   H43017260   0.804   6.986   4.186  1.2903 -2.2530 -1.8064
   16MOL   H43117261   0.938   6.909   4.260 -0.0660 -0.2212 -1.6444
   16MOL   H43217262   0.655   6.796   4.236 -0.3385 -0.3942  0.6866
   16MOL   H43317263   0.767   6.719   4.334  0.1712  0.0472 -0.9670
   16MOL   H43417264   0.812   6.774   4.040 -5.0884  1.1232  0.8473
   16MOL   H43517265   0.920   6.685   4.163 -0.6952  1.5289  0.9472
   16MOL   H43617266   0.885   6.519   3.948 -0.7481 -0.3941 -0.0458
   16MOL   H43717267   0.707   6.441   3.828  0.9245 -0.4312  0.1137
   16MOL   H43817268   0.642   6.364   3.981  0.6662  1.5622  3.3669
   16MOL   H43917269   0.820   6.213   3.997 -2.4214 -2.4476 -2.6353
   16MOL   H44017270   0.934   6.325   3.919  0.2545 -0.2545  2.6913
   16MOL   H44117271   0.728   6.166   3.765  0.1905  0.6292 -2.2710
   16MOL   H44217272   0.860   6.241   3.699  0.2357 -1.5731 -0.0464
   16MOL   H44317273   0.889   6.012   3.895  1.0412 -0.5475  0.3449
   16MOL   H44417274   0.933   6.006   3.722  0.7787  1.0959 -0.8325
   16MOL   H44517275   1.096   6.145   3.940 -0.4332  0.1620  0.4410
   16MOL   H44617276   1.136   6.006   3.854  0.3832 -0.1163 -1.2507
   16MOL   H44717277   1.090   6.273   3.729 -1.1010 -0.5932  0.3807
   16MOL   H44817278   1.258   6.204   3.753 -0.0442  1.2763  1.1013
   16MOL   H44917279   1.103   6.041   3.572 -0.2705 -0.5463 -0.3102
   16MOL   C45017280   1.200   6.192   3.489 -0.4524  0.2215 -0.4151
   16MOL   O45117281   1.276   6.284   3.505  0.2507  0.5795 -0.2687
   16MOL   C45217282   1.189   6.126   3.350 -0.1506 -0.2294 -0.4379
   16MOL   C45317283   1.217   6.224   3.232 -0.7770 -0.3580  0.1418
   16MOL   C45417284   1.116   6.341   3.230 -0.6010 -0.7254  0.4811
   16MOL   C45517285   1.141   6.452   3.128 -0.0632  0.0271 -0.3847
   16MOL   C45617286   1.071   6.435   2.991 -0.3219 -0.2788 -0.1927
   16MOL   C45717287   1.121   6.554   2.902 -0.4047 -0.4418  0.4172
   16MOL   C45817288   1.072   6.573   2.754 -0.0577  0.4025  0.2588
   16MOL   C45917289   1.104   6.710   2.686 -0.4654  0.2092 -0.3872
   16MOL   C46017290   1.049   6.839   2.744 -0.1756  0.2179 -0.6639
   16MOL   C46117291   1.070   6.966   2.652 -0.0963 -0.3255 -0.2203
   16MOL   C46217292   1.030   7.095   2.726 -0.1592  0.1271 -0.6296
   16MOL   O46317293   0.966   7.090   2.833 -0.1869 -0.7787  0.6704
   16MOL   N46417294   1.066   7.210   2.667 -0.1421 -0.0384 -0.3806
   16MOL   C46517295   1.044   7.338   2.735  0.1849 -0.0265  0.1022
   16MOL   C46617296   0.987   7.440   2.640  0.1233 -0.0700  0.2456
   16MOL   C46717297   0.945   7.573   2.726  0.3962 -0.0076  0.1933
   16MOL   C46817298   0.873   7.676   2.643 -0.3760  0.3804 -0.1755
   16MOL   C46917299   0.819   0.106   2.720 -0.1777 -0.0883  0.1854
   16MOL   C47017300   0.931   0.196   2.780  0.0067  0.1399 -0.0835
   16MOL   N47117301   0.872   0.316   2.842  0.2793 -0.1269 -0.3553
   16MOL   H47217302   1.253   6.039   3.339  0.6241 -0.1274  2.6298
   16MOL   H47317303   1.090   6.089   3.322 -0.0052 -1.2208  0.3215
   16MOL   H47417304   1.213   6.174   3.135  0.3342  1.6391 -0.9540
   16MOL   H47517305   1.317   6.262   3.251 -1.0947  0.8376 -0.5700
   16MOL   H47617306   1.120   6.384   3.330 -0.4773  1.4337 -0.4222
   16MOL   H47717307   1.014   6.303   3.219 -1.1852  0.1108  2.7856
   16MOL   H47817308   1.248   6.473   3.124  0.4872 -1.9607  2.6068
   16MOL   H47917309   1.093   6.542   3.167 -0.5318 -0.9206  1.2641
   16MOL   H48017310   0.964   6.420   3.003 -0.3826 -0.0906 -0.5023
   16MOL   H48117311   1.119   6.347   2.946  3.3158  2.0693 -1.1353
   16MOL   H48217312   1.229   6.550   2.891 -0.7409 -2.7810 -2.8463
   16MOL   H48317313   1.096   6.646   2.955 -1.7413 -1.9029  2.3942
   16MOL   H48417314   1.130   6.496   2.703  0.0011  1.7058 -1.6608
   16MOL   H48517315   0.972   6.530   2.752 -0.2282  0.7212  1.2807
   16MOL   H48617316   1.211   6.704   2.672 -0.4106 -3.3123  0.9703
   16MOL   H48717317   1.061   6.709   2.586 -0.6422  0.8670 -0.3184
   16MOL   H48817318   1.099   6.860   2.839  0.3855 -2.0905 -0.4364
   16MOL   H48917319   0.942   6.833   2.766  0.0225 -2.9504 -0.4031
   16MOL   H49017320   1.179   6.967   2.640  0.0077 -3.2526  0.2532
   16MOL   H49117321   1.035   6.963   2.549 -0.8897  0.0537  0.0386
   16MOL   H49217322   1.127   7.204   2.587 -1.2416 -0.0997 -1.2284
   16MOL   H49317323   1.140   7.376   2.770  0.6846 -1.8056  0.7029
   16MOL   H49417324   0.963   7.325   2.807 -1.7133 -0.5761 -2.0758
   16MOL   H49517325   1.065   7.456   2.566  0.1782  0.7552  0.4758
   16MOL   H49617326   0.901   7.401   2.586  1.0731 -2.5280  0.4243
   16MOL   H49717327   1.031   7.619   2.776 -0.2033  0.0253  1.2029
   16MOL   H49817328   0.879   7.539   2.805  2.4913 -0.8779  1.6196
   16MOL   H49917329   0.791   7.625   2.591 -0.3954 -0.9810  1.1403
   16MOL   H50017330   0.931   0.019   2.557 -0.7085 -0.7352 -0.8707
   16MOL   H50117331   0.761   0.167   2.651 -1.1520  0.0961  1.1526
   16MOL   H50217332   0.755   0.069   2.800 -1.2401 -0.8533 -0.9857
   16MOL   H50317333   1.006   0.148   2.843 -0.0543  1.3369  0.9170
   16MOL   H50417334   0.986   0.237   2.696 -1.8044  3.8515  0.4435
   16MOL   H50517335   0.832   0.381   2.776  1.9960  0.5543 -0.7674
   16MOL   C50617336   0.881   0.349   2.971 -0.0159 -0.3317 -0.1913
   16MOL   O50717337   0.926   0.274   3.061 -0.4828  0.3002 -0.3297
   16MOL   C50817338   0.828   0.487   3.011  1.3099  0.1570 -0.6725
   16MOL   C50917339   0.688   0.486   3.065 -0.4624  0.8319 -0.5787
   16MOL   C51017340   0.627   0.618   3.127  0.0690  0.2612 -0.4095
   16MOL   C51117341   0.490   0.594   3.174  0.3261  0.4439  0.8040
   16MOL   C51217342   0.421   0.707   3.250 -0.0660 -0.0622 -0.4852
   16MOL   C51317343   0.390   0.834   3.160  0.3850 -0.8782 -0.9761
   16MOL   C51417344   0.313   0.932   3.245 -0.0007 -0.5506  0.7488
   16MOL   C51517345   0.262   1.056   3.169  0.3087 -0.4281  0.4371
   16MOL   C51617346   0.380   1.128   3.092  0.2243 -0.4150 -0.4175
   16MOL   C51717347   0.482   1.210   3.179 -0.3652 -0.2385 -0.1890
   16MOL   C51817348   0.551   1.333   3.112  0.3690 -0.0569 -0.1712
   16MOL   O51917349   0.488   1.405   3.032  0.0280  0.3689  0.2550
   16MOL   N52017350   0.665   1.363   3.165  0.1612 -0.3367  0.2791
   16MOL   C52117351   0.726   1.498   3.154 -0.2436  0.2955  0.5059
   16MOL   C52217352   0.841   1.491   3.057  0.1492  0.4326 -0.2825
   16MOL   C52317353   0.912   1.625   3.024  0.1376 -0.5624 -0.0100
   16MOL   C52417354   1.020   1.623   2.914 -0.4366 -0.1061 -0.3507
   16MOL   C52517355   1.061   1.765   2.873  0.4068 -0.1568  0.3119
   16MOL   C52617356   1.160   1.795   2.760  0.6151 -0.1390 -0.8110
   16MOL   N52717357   1.133   1.921   2.695 -0.4486 -0.4806 -0.6476
   16MOL   H52817358   0.846   0.562   2.933 -1.4582  1.5290 -0.0548
   16MOL   H52917359   0.906   0.515   3.082  0.2024  0.4889  0.4334
   16MOL   H53017360   0.680   0.401   3.134  1.4721 -1.1936 -2.7479
   16MOL   H53117361   0.621   0.450   2.987  0.5644 -0.9509 -0.6761
   16MOL   H53217362   0.621   0.689   3.044  1.5945 -0.0189 -0.7707
   16MOL   H53317363   0.686   0.658   3.210  0.9978 -2.1373  0.1169
   16MOL   H53417364   0.421   0.550   3.102 -1.1564  0.0775  2.4136
   16MOL   H53517365   0.493   0.505   3.238  0.2257 -1.7178 -2.0807
   16MOL   H53617366   0.327   0.662   3.281  0.5596  1.1951  3.4874
   16MOL   H53717367   0.479   0.747   3.333  0.7068  0.7071 -1.3846
   16MOL   H53817368   0.487   0.863   3.120  0.5779  0.1606  0.1969
   16MOL   H53917369   0.336   0.804   3.070  0.2736  0.4481 -1.3632
   16MOL   H54017370   0.228   0.886   3.295  1.3649 -2.6822  1.1913
   16MOL   H54117371   0.363   0.982   3.328  0.4269  2.4245 -1.2304
   16MOL   H54217372   0.194   1.025   3.090  2.7790 -1.4095 -1.3751
   16MOL   H54317373   0.219   1.132   3.233 -3.1830 -0.8786 -1.2602
   16MOL   H54417374   0.327   1.191   3.021 -2.2769 -1.2126  0.6629
   16MOL   H54517375   0.435   1.062   3.025  0.1642  1.5095 -2.3980
   16MOL   H54617376   0.442   1.247   3.273 -0.6915 -2.2417  0.4801
   16MOL   H54717377   0.567   1.144   3.201 -1.2950 -1.0169  1.1192
   16MOL   H54817378   0.703   1.299   3.233  1.6166 -1.3781 -1.4703
   16MOL   H54917379   0.756   1.534   3.252  1.8681 -0.9548  0.3472
   16MOL   H55017380   0.659   1.570   3.107  1.7539  0.3954 -2.2583
   16MOL   H55117381   0.791   1.460   2.965 -2.9475  3.1788  0.3821
   16MOL   H55217382   0.913   1.413   3.084  1.1788  1.3580 -0.3327
   16MOL   H55317383   0.958   1.651   3.120 -0.8922  0.5422  0.2006
   16MOL   H55417384   0.842   1.701   2.991 -1.3518 -2.7326 -1.9302
   16MOL   H55517385   0.997   1.558   2.830  1.1457  1.1173 -1.7752
   16MOL   H55617386   1.106   1.579   2.965 -2.2662 -2.3738  0.8455
   16MOL   H55717387   0.967   1.817   2.856  0.2553 -0.2549  0.8316
   16MOL   H55817388   1.097   1.813   2.964 -1.0904  1.1698  0.2153
   16MOL   H55917389   1.265   1.782   2.785  0.3920 -2.0641 -0.7971
   16MOL   H56017390   1.145   1.717   2.685  1.9614  0.3581 -1.6013
   16MOL   H56117391   1.134   2.005   2.751 -0.6274 -1.3958  0.7539
   16MOL   C56217392   1.093   1.934   2.569 -0.6169  0.2009  0.4498
   16MOL   O56317393   1.067   1.841   2.494  0.2031  0.1271 -0.5377
   16MOL   C56417394   1.088   2.078   2.515  0.3413 -0.8358  0.0581
   16MOL   C56517395   0.961   2.104   2.438  0.3577  0.0429 -0.1057
   16MOL   C56617396   0.839   2.121   2.523  0.0776 -0.0354 -0.0093
   16MOL   C56717397   0.715   2.150   2.445  0.6234  0.5342  0.1005
   16MOL   C56817398   0.596   2.164   2.541  0.2201  0.1085  0.6432
   16MOL   C56917399   0.473   2.202   2.460  0.1868  0.6203 -0.0547
   16MOL   C57017400   0.428   2.091   2.355  0.6369 -0.4336  0.1155
   16MOL   C57117401   0.351   1.967   2.413 -0.8478  0.0157 -0.5306
   16MOL   C57217402   0.206   1.997   2.424  0.8717 -0.4815  0.2545
   16MOL   C57317403   0.133   1.864   2.472  0.7466 -0.7893 -0.4704
   16MOL   C57417404   7.675   1.884   2.444  0.3083 -0.0155 -0.1810
   16MOL   O57517405   7.596   1.919   2.533 -0.2502 -0.5090 -0.2388
   16MOL   N57617406   7.634   1.848   2.322 -0.2862  0.1832 -0.2861
   16MOL   C57717407   7.502   1.844   2.264 -0.1703  0.7944 -0.0281
   16MOL   C57817408   7.512   1.895   2.117 -0.4488  0.2585  0.0816
   16MOL   C57917409   7.377   1.868   2.052  0.8499 -0.5376 -0.8364
   16MOL   C58017410   7.265   1.960   2.109  1.2346 -0.5936  0.4549
   16MOL   C58117411   7.124   1.893   2.094 -0.3637 -0.1927 -0.0074
   16MOL   C58217412   7.007   1.985   2.129  0.2027  0.1235 -0.0509
   16MOL   N58317413   6.883   1.928   2.101  0.1496 -0.3027 -0.4687
   16MOL   H58417414   1.093   2.152   2.595 -1.9191  0.0435 -0.5659
   16MOL   H58517415   1.176   2.090   2.452 -0.5694 -0.2653 -1.1054
   16MOL   H58617416   0.988   2.186   2.372  1.3987 -1.2475 -1.3022
   16MOL   H58717417   0.948   2.021   2.368 -1.4693 -0.5296  0.8794
   16MOL   H58817418   0.855   2.213   2.580 -1.8049  0.5237 -0.3460
   16MOL   H58917419   0.825   2.032   2.585  1.9361  0.0279  0.5438
   16MOL   H59017420   0.722   2.239   2.383  2.3006  0.8350  0.7159
   16MOL   H59117421   0.695   2.072   2.371 -0.5677  0.4675  0.4682
   16MOL   H59217422   0.576   2.067   2.585 -1.6184  0.0649 -0.2247
   16MOL   H59317423   0.611   2.242   2.616  1.1568  0.8390 -0.2802
   16MOL   H59417424   0.387   2.220   2.525 -0.2201 -0.5737 -0.2384
   16MOL   H59517425   0.491   2.297   2.411  0.2301  0.9878  0.6636
   16MOL   H59617426   0.372   2.136   2.273  0.3000 -1.2257 -0.0908
   16MOL   H59717427   0.514   2.057   2.298  1.0640 -2.8778  2.1247
   16MOL   H59817428   0.391   1.939   2.510 -1.5746 -1.0310 -0.5236
   16MOL   H59917429   0.365   1.891   2.336  1.1548  0.6786 -0.8448
   16MOL   H60017430   0.166   2.037   2.331 -0.4451 -1.4582  0.3849
   16MOL   H60117431   0.187   2.075   2.499  1.1577 -1.2913  1.1772
   16MOL   H60217432   0.158   1.773   2.417  0.1090 -0.9500 -0.4880
   16MOL   H60317433   0.143   1.834   2.576  0.5773  0.3388 -0.1174
   16MOL   H60417434   0.004   1.795   2.263 -1.7562 -0.4828 -1.2653
   16MOL   H60517435   7.430   1.900   2.325 -1.0714 -0.6551  0.2726
   16MOL   H60617436   7.473   1.740   2.276 -2.1559  1.2780 -0.4303
   16MOL   H60717437   7.591   1.832   2.076 -0.5282 -0.3191  0.8214
   16MOL   H60817438   7.541   2.000   2.115 -0.1109  0.1945  1.4230
   16MOL   H60917439   7.343   1.766   2.069 -0.0385 -0.1622 -0.3262
   16MOL   H61017440   7.383   1.880   1.944 -3.3739  0.7529 -1.0532
   16MOL   H61117441   7.275   1.980   2.216 -1.8495 -0.3439  0.7515
   16MOL   H61217442   7.277   2.054   2.054 -0.4412  0.0744  1.1948
   16MOL   H61317443   7.120   1.804   2.158  0.8016 -0.2328  0.0211
   16MOL   H61417444   7.102   1.852   1.996 -1.5063  1.9693 -0.6928
   16MOL   H61517445   7.006   2.008   2.236 -0.0721  1.0546 -0.2442
   16MOL   H61617446   6.997   2.088   2.095  0.2877 -0.0786 -0.6873
   16MOL   H61717447   6.845   1.862   2.166 -0.6519 -0.6764 -1.3048
   16MOL   C61817448   6.818   1.941   1.988 -0.7129 -0.3377  0.1005
   16MOL   O61917449   6.869   1.999   1.894 -0.3136 -0.6157  0.3823
   16MOL   C62017450   6.692   1.860   1.959 -0.3088  0.3930 -0.6140
   16MOL   C62117451   6.619   1.894   1.828 -0.2197 -0.5546  0.4624
   16MOL   C62217452   6.496   1.811   1.803  0.4888  0.9929 -0.0368
   16MOL   C62317453   6.405   1.861   1.678  0.1197  0.1715  0.3726
   16MOL   C62417454   6.266   1.792   1.658  0.3824 -0.7147  0.2146
   16MOL   C62517455   6.180   1.878   1.558 -0.2603  0.6248 -0.5290
   16MOL   C62617456   6.037   1.814   1.546  0.3796 -0.4124 -0.3611
   16MOL   C62717457   5.926   1.894   1.472  0.4828 -0.0156 -0.5518
   16MOL   C62817458   5.893   2.025   1.552  0.0969 -0.1216 -1.1414
   16MOL   C62917459   5.758   2.089   1.522  0.3001  0.4780 -0.8574
   16MOL   C63017460   5.640   1.993   1.524 -0.2421  0.0629 -0.1883
   16MOL   O63117461   5.630   1.920   1.625 -0.4252 -0.3320 -0.1739
   16MOL   N63217462   5.551   1.993   1.426  0.4087 -0.4182  0.1724
   16MOL   C63317463   5.412   1.948   1.421  0.0932  0.1508 -0.3012
   16MOL   C63417464   5.325   2.069   1.391  0.1629 -0.2299 -0.0363
   16MOL   C63517465   5.278   2.153   1.514 -0.0973  0.3338 -0.1585
   16MOL   C63617466   5.378   2.215   1.618 -0.4045 -0.7113  0.7147
   16MOL   C63717467   5.319   2.288   1.738 -0.6512  0.0189  0.4418
   16MOL   C63817468   5.406   2.404   1.807  0.6007  0.6297 -0.8461
   16MOL   N63917469   5.537   2.362   1.849  0.7078  0.0229 -0.0703
   16MOL   H64017470   6.638   1.871   2.054  0.7277  1.2480 -0.1136
   16MOL   H64117471   6.726   1.756   1.952  0.2834  0.5614 -0.3111
   16MOL   H64217472   6.688   1.899   1.743 -1.0111 -0.0112 -0.1608
   16MOL   H64317473   6.577   1.994   1.839  1.5771 -0.0226  2.9362
   16MOL   H64417474   6.436   1.817   1.894  0.2084  0.8153 -0.2110
   16MOL   H64517475   6.522   1.706   1.789  0.1638  1.1590 -1.9515
   16MOL   H64617476   6.384   1.964   1.704  0.9692  0.1080  1.3326
   16MOL   H64717477   6.462   1.864   1.585  1.6360  1.2993  1.3201
   16MOL   H64817478   6.288   1.698   1.607  1.5516  0.1052 -0.8438
   16MOL   H64917479   6.201   1.769   1.742  0.0491 -0.0466  0.1475
   16MOL   H65017480   6.225   1.866   1.460  1.1142 -0.4979  0.2231
   16MOL   H65117481   6.174   1.986   1.574 -0.3268  0.8843 -2.2738
   16MOL   H65217482   6.045   1.713   1.505  0.6700  0.1815 -1.8082
   16MOL   H65317483   6.001   1.802   1.648 -1.0422  2.6015 -0.4622
   16MOL   H65417484   5.962   1.937   1.379 -0.2072 -0.1149 -0.8605
   16MOL   H65517485   5.836   1.839   1.446  0.3239 -0.4299  0.7944
   16MOL   H65617486   5.963   2.102   1.520 -1.1488  1.4707 -0.0684
   16MOL   H65717487   5.903   2.019   1.661 -0.6487 -1.0850 -1.1140
   16MOL   H65817488   5.728   2.164   1.595  2.4542 -0.6467  1.2501
   16MOL   H65917489   5.750   2.141   1.426 -0.0991  1.1530 -0.4601
   16MOL   H66017490   5.568   2.044   1.340 -3.0569 -1.7927 -1.4374
   16MOL   H66117491   5.396   1.874   1.343  0.0873 -0.3108  0.1348
   16MOL   H66217492   5.390   1.890   1.511  0.8865 -1.4461 -1.1109
   16MOL   H66317493   5.224   2.041   1.361  0.4340  0.4178 -1.5826
   16MOL   H66417494   5.364   2.134   1.312  0.2177 -0.4442 -0.1863
   16MOL   H66517495   5.207   2.230   1.486 -0.3077 -0.1351 -0.9252
   16MOL   H66617496   5.218   2.091   1.581  1.1704  1.9095  2.5089
   16MOL   H66717497   5.445   2.284   1.567  0.1128 -1.6705  0.0711
   16MOL   H66817498   5.458   2.148   1.652  0.4496 -0.1863 -0.2267
   16MOL   H66917499   5.230   2.333   1.694 -1.9942 -0.9806  2.0695
   16MOL   H67017500   5.273   2.212   1.801  0.4168  0.3213  1.6173
   16MOL   H67117501   5.399   2.499   1.755 -1.4026  1.1091  0.2302
   16MOL   H67217502   5.357   2.440   1.897  2.1327  1.4251 -0.3100
   16MOL   H67317503   5.612   2.422   1.818 -1.3485  2.0632 -1.1909
   16MOL   C67417504   5.569   2.259   1.927  0.7193  0.6090  0.4257
   16MOL   O67517505   5.477   2.183   1.968 -0.2610 -0.0498 -0.5790
   16MOL   C67617506   5.713   2.249   1.984 -0.3762  0.0629  0.6890
   16MOL   C67717507   5.769   2.109   1.967 -0.6745 -0.3143 -0.1125
   16MOL   C67817508   5.902   2.090   2.041  0.0375  0.0455 -0.1157
   16MOL   C67917509   6.024   2.135   1.957 -0.1129  0.2983 -0.2889
   16MOL   C68017510   6.152   2.143   2.047  0.1558 -0.2816 -0.1898
   16MOL   C68117511   6.223   2.008   2.056  0.2479  0.2999 -0.3889
   16MOL   C68217512   6.359   2.018   2.136 -0.6058 -0.8405 -0.3165
   16MOL   C68317513   6.457   2.133   2.102  0.3588  0.0475 -0.8970
   16MOL   C68417514   6.584   2.122   2.198 -0.5309 -0.1378  0.3505
   16MOL   C68517515   6.564   2.156   2.353  0.0570 -0.6515 -0.0579
   16MOL   C68617516   6.523   2.302   2.373 -0.3268 -0.0037  0.4921
   16MOL   O68717517   6.569   2.386   2.292 -0.4143 -0.4953 -0.0271
   16MOL   N68817518   6.436   2.321   2.473 -0.5451  0.7009  0.5418
   16MOL   C68917519   6.362   2.449   2.504  0.2811  0.3407  0.0795
   16MOL   C69017520   6.211   2.430   2.492 -0.5684  0.1420  0.5450
   16MOL   C69117521   6.150   2.566   2.497  0.3721 -0.4518 -0.0154
   16MOL   C69217522   6.007   2.570   2.500 -0.2655 -0.1306  0.2505
   16MOL   C69317523   5.945   2.701   2.506  0.2431 -0.0407  0.3566
   16MOL   C69417524   5.789   2.713   2.491  0.2180  0.6421 -0.4177
   16MOL   N69517525   5.751   2.846   2.529 -0.2848 -0.4415  0.6333
   16MOL   H69617526   5.706   2.276   2.090 -0.3178  1.4430  0.3476
   16MOL   H69717527   5.772   2.326   1.936 -0.2479 -0.3849  0.1332
   16MOL   H69817528   5.794   2.078   1.866 -1.8740  0.7399 -0.7436
   16MOL   H69917529   5.703   2.034   2.011 -2.7174  1.8276  0.6410
   16MOL   H70017530   5.907   2.133   2.141  1.0081 -2.3396  0.8887
   16MOL   H70117531   5.911   1.982   2.054 -0.4665 -0.0200 -0.2907
   16MOL   H70217532   5.995   2.232   1.917  2.9351  0.8667 -1.2989
   16MOL   H70317533   6.042   2.067   1.873 -2.4191 -1.0256  0.2589
   16MOL   H70417534   6.136   2.189   2.144  0.7383 -2.8320  1.1464
   16MOL   H70517535   6.214   2.215   1.992 -0.7121 -0.0771 -0.9246
   16MOL   H70617536   6.156   1.938   2.108  0.7465  1.0413  1.2894
   16MOL   H70717537   6.251   1.976   1.956  0.7697 -0.5622  0.0252
   16MOL   H70817538   6.330   2.027   2.241 -0.5353 -1.2203 -0.2642
   16MOL   H70917539   6.408   1.921   2.124 -0.4328 -0.7692 -0.1860
   16MOL   H71017540   6.479   2.144   1.996 -0.5062  0.0950 -1.0788
   16MOL   H71117541   6.412   2.229   2.127  0.2344 -0.1956 -0.1704
   16MOL   H71217542   6.658   2.179   2.144 -0.8445  1.6083  1.7140
   16MOL   H71317543   6.610   2.016   2.200 -1.8994 -0.4813  1.5188
   16MOL   H71417544   6.498   2.090   2.410  1.7511 -2.6438 -0.3305
   16MOL   H71517545   6.658   2.166   2.407 -0.0914 -1.6113  0.4026
   16MOL   H71617546   6.432   2.246   2.540 -0.7990  0.0993 -0.1328
   16MOL   H71717547   6.382   2.491   2.602 -0.4490 -0.4595  0.5811
   16MOL   H71817548   6.380   2.523   2.426  1.9665 -0.2572 -0.1145
   16MOL   H71917549   6.181   2.370   2.578  0.5814 -2.7787 -1.0180
   16MOL   H72017550   6.186   2.376   2.401  1.9608  2.6275 -1.7044
   16MOL   H72117551   6.188   2.616   2.586 -0.3242 -0.1815  0.1311
   16MOL   H72217552   6.190   2.628   2.417 -0.0403  0.8300  0.7667
   16MOL   H72317553   5.975   2.514   2.588  0.2498  0.7342  0.9933
   16MOL   H72417554   5.964   2.516   2.415 -2.7977 -0.6304  1.7909
   16MOL   H72517555   5.990   2.761   2.427  0.5460 -0.8557 -0.0957
   16MOL   H72617556   5.978   2.755   2.595 -0.6207 -1.6218  1.6504
   16MOL   H72717557   5.772   2.690   2.386 -0.1496 -0.4527 -0.1280
   16MOL   H72817558   5.733   2.636   2.544  0.9553  0.3144 -0.1096
   16MOL   H72917559   5.710   2.861   2.620  0.7022 -0.7138  1.1310
   16MOL   C73017560   5.761   2.949   2.446  1.1783  0.3090 -0.8019
   16MOL   O73117561   5.782   2.927   2.328  0.1483  0.5388  0.3064
   16MOL   C73217562   5.733   3.090   2.508  0.0872 -0.3232  0.5038
   16MOL   C73317563   5.637   3.184   2.435  0.0280  0.3123 -0.1636
   16MOL   C73417564   5.499   3.132   2.405  0.2500  0.6269 -0.3142
   16MOL   C73517565   5.416   3.110   2.536 -0.7841  0.4094  0.6659
   16MOL   C73617566   5.266   3.082   2.531  0.2843 -0.2611 -0.2213
   16MOL   C73717567   5.245   2.938   2.473 -0.9833 -0.1490  0.2152
   16MOL   C73817568   5.097   2.925   2.410 -0.0437 -0.5205 -0.0585
   16MOL   C73917569   5.053   2.789   2.353 -0.4096 -0.4847 -0.0799
   16MOL   C74017570   4.901   2.766   2.337 -0.2473  0.4096 -0.4292
   16MOL   C74117571   4.866   2.623   2.312  0.0647 -0.3813  0.5121
   16MOL   C74217572   4.863   2.584   2.160 -0.6474 -1.5851  0.9523
   16MOL   O74317573   4.769   2.614   2.087 -0.1471  0.7473  0.3003
   16MOL   N74417574   4.975   2.523   2.123 -0.3970  0.0735 -0.2278
   16MOL   C74517575   5.006   2.460   1.996 -0.2801  0.5674 -0.1188
   16MOL   C74617576   5.077   2.326   2.014 -0.4486  0.8002 -0.3733
   16MOL   C74717577   5.035   2.225   2.125  0.4079 -0.2280 -0.1263
   16MOL   C74817578   5.143   2.124   2.155 -0.1240  1.3566 -0.3615
   16MOL   C74917579   5.115   2.035   2.288  0.0697  0.6173 -0.1070
   16MOL   C75017580   4.998   1.930   2.277  0.0319  0.3265 -0.2153
   16MOL   N75117581   5.025   1.810   2.200 -0.2640 -0.6926  0.0605
   16MOL   H75217582   5.830   3.138   2.513 -0.9412  1.9777 -0.8322
   16MOL   H75317583   5.709   3.086   2.615 -1.0260  1.5194  0.3522
   16MOL   H75417584   5.681   3.201   2.337  0.4159  1.0720  0.1368
   16MOL   H75517585   5.629   3.279   2.488  0.4725 -2.1490  4.6127
   16MOL   H75617586   5.509   3.043   2.343  0.6426  0.6965 -0.3527
   16MOL   H75717587   5.449   3.215   2.355  1.3599  1.6864  0.2890
   16MOL   H75817588   5.408   3.198   2.600  1.3662  0.6366  0.6581
   16MOL   H75917589   5.474   3.045   2.601 -1.6920 -0.8196  0.2558
   16MOL   H76017590   5.222   3.157   2.465 -1.4827  0.2831  1.5098
   16MOL   H76117591   5.221   3.094   2.630  0.9324  1.1704 -0.0820
   16MOL   H76217592   5.315   2.891   2.404 -1.0972 -0.2655  0.1784
   16MOL   H76317593   5.248   2.868   2.556 -0.9150  1.3777  1.5340
   16MOL   H76417594   5.022   2.969   2.476  0.7158  0.5691  0.0778
   16MOL   H76517595   5.099   2.993   2.324  0.3674  0.2384  0.5498
   16MOL   H76617596   5.111   2.769   2.262  0.2998 -2.1407  0.7161
   16MOL   H76717597   5.083   2.717   2.428  0.0701  0.7112  0.8942
   16MOL   H76817598   4.856   2.826   2.258 -1.5746  0.5600  0.4124
   16MOL   H76917599   4.848   2.785   2.431 -0.6629  0.2069 -0.6229
   16MOL   H77017600   4.923   2.555   2.376  0.9543 -0.3317 -0.2200
   16MOL   H77117601   4.759   2.618   2.331 -0.1062  3.2198  0.8406
   16MOL   H77217602   5.045   2.518   2.196 -0.4497  0.0328 -0.1793
   16MOL   H77317603   5.074   2.528   1.945  0.2360  0.7848  0.8418
   16MOL   H77417604   4.923   2.448   1.927  1.3719  1.8147 -2.4147
   16MOL   H77517605   5.182   2.353   2.022 -0.7921  2.1710 -0.2091
   16MOL   H77617606   5.073   2.276   1.917  0.3322  0.1135 -0.0551
   16MOL   H77717607   4.943   2.172   2.100  0.9771 -2.2523  1.8527
   16MOL   H77817608   5.023   2.284   2.216  2.0789  0.8647 -0.6016
   16MOL   H77917609   5.160   2.053   2.075  0.4033  1.1493 -0.0672
   16MOL   H78017610   5.239   2.173   2.168  0.2609  0.1072  1.7569
   16MOL   H78117611   5.096   2.100   2.373  1.6065  0.4894  0.3517
   16MOL   H78217612   5.206   1.984   2.323 -0.8082 -0.0858  1.2125
   16MOL   H78317613   4.971   1.909   2.381  1.1715 -0.5807 -0.0964
   16MOL   H78417614   4.902   1.967   2.242 -0.2523  0.1925  0.4127
   16MOL   H78517615   5.115   1.802   2.154 -1.1842 -1.6004 -1.6099
   16MOL   C78617616   4.935   1.709   2.184 -0.7539  0.1399 -0.8273
   16MOL   O78717617   4.824   1.702   2.242 -0.1924  0.0206  0.2868
   16MOL   C78817618   4.974   1.597   2.085 -0.4462 -0.6910 -0.3101
   16MOL   C78917619   5.012   1.470   2.166 -0.9927  0.5757  0.0570
   16MOL   C79017620   5.139   1.477   2.255 -0.4631  0.2330  0.1980
   16MOL   C79117621   5.158   1.341   2.315 -0.4176 -0.0316  0.0754
   16MOL   C79217622   5.263   1.340   2.427 -0.5092 -0.0147 -0.5923
   16MOL   C79317623   5.239   1.232   2.534  0.3422 -0.2220 -0.1083
   16MOL   C79417624   5.314   1.249   2.665  0.1644 -0.0747 -0.5855
   16MOL   C79517625   5.325   1.117   2.748  0.2710  0.7617 -0.4712
   16MOL   C79617626   5.195   1.072   2.814 -0.1268  0.3104  0.0003
   16MOL   C79717627   5.204   0.942   2.902  0.3292  0.2747 -0.2281
   16MOL   C79817628   5.209   0.805   2.827 -0.4917 -0.5792 -0.3802
   16MOL   O79917629   5.203   0.800   2.707 -0.4989  0.3142  0.1953
   16MOL   N80017630   5.223   0.697   2.905 -0.3655 -0.1054  0.1713
   16MOL   C80117631   5.237   0.559   2.872 -0.0336  0.0967  0.0999
   16MOL   C80217632   5.120   0.494   2.789  0.2226 -0.0946 -0.2815
   16MOL   C80317633   5.141   0.344   2.757  0.5551 -0.1013  0.0592
   16MOL   C80417634   5.013   0.275   2.702 -0.4439  0.7840 -1.0721
   16MOL   C80517635   5.015   0.118   2.717 -0.5414  0.3867  0.2965
   16MOL   C80617636   4.885   0.047   2.687 -0.3223  0.3285 -0.0943
   16MOL   N80717637   4.906   7.592   2.699  0.4092 -0.1650 -0.6821
   16MOL   H80817638   5.054   1.621   2.014  1.1481 -2.0396  0.9680
   16MOL   H80917639   4.892   1.587   2.015 -1.2470  0.4912  0.4503
   16MOL   H81017640   4.930   1.438   2.230 -1.1225 -0.1271 -0.4702
   16MOL   H81117641   5.029   1.395   2.090  0.2601  1.6081 -0.7063
   16MOL   H81217642   5.136   1.560   2.327 -0.5817 -0.2746  0.7789
   16MOL   H81317643   5.224   1.506   2.193  1.0253 -2.2369  1.0042
   16MOL   H81417644   5.057   1.303   2.330  0.3669 -1.6148  1.5804
   16MOL   H81517645   5.196   1.272   2.239  1.7765  1.6468 -0.4189
   16MOL   H81617646   5.360   1.312   2.386 -1.4840 -2.3228 -1.4195
   16MOL   H81717647   5.266   1.436   2.479  2.2149 -0.7947  0.7970
   16MOL   H81817648   5.134   1.221   2.560  1.0861 -2.2528  2.2334
   16MOL   H81917649   5.254   1.132   2.493 -0.9971 -0.4295 -0.1161
   16MOL   H82017650   5.415   1.275   2.633 -0.3505  0.0093 -2.1901
   16MOL   H82117651   5.275   1.327   2.730  1.4483  1.4829 -1.6352
   16MOL   H82217652   5.368   1.044   2.679  0.9300  1.6661 -1.0452
   16MOL   H82317653   5.403   1.133   2.823  0.0761 -0.4368 -0.0160
   16MOL   H82417654   5.119   1.054   2.739 -0.3291 -1.5060  0.6078
   16MOL   H82517655   5.158   1.153   2.877 -0.1688 -0.1862  0.6260
   16MOL   H82617656   5.290   0.964   2.967  0.0854  1.6892 -0.3603
   16MOL   H82717657   5.124   0.931   2.975  1.2512 -0.6612  0.6714
   16MOL   H82817658   5.223   0.704   3.006 -0.9031  1.4866  0.0855
   16MOL   H82917659   5.234   0.501   2.964  1.7232  0.4474  0.3878
   16MOL   H83017660   5.337   0.544   2.832  0.8583  0.2420  2.2362
   16MOL   H83117661   5.091   0.545   2.697 -0.3813 -3.4440 -2.0187
   16MOL   H83217662   5.030   0.490   2.850  0.4586 -3.2949 -0.0245
   16MOL   H83317663   5.223   0.335   2.685  1.0318  0.3545  0.5359
   16MOL   H83417664   5.173   0.293   2.849  1.1735  1.8265  0.9481
   16MOL   H83517665   5.011   0.290   2.594  0.1805 -1.7242 -1.4748
   16MOL   H83617666   4.924   0.311   2.752 -0.8179  0.3716 -1.4269
   16MOL   H83717667   5.038   0.094   2.820  0.8534  2.2621  0.4567
   16MOL   H83817668   5.104   0.079   2.666 -0.1338  0.8575  0.6409
   16MOL   H83917669   4.860   0.074   2.584 -1.4724 -1.7351 -0.4071
   16MOL   H84017670   4.806   0.084   2.752  0.3571  0.4039  0.6922
   16MOL   H84117671   4.972   7.544   2.640 -0.1670 -1.2862 -0.4228
   16MOL   C84217672   4.867   7.524   2.808 -0.3316  0.2095  0.5321
   16MOL   O84317673   4.776   7.564   2.881 -0.3570  0.1628 -0.0089
   16MOL   C84417674   4.945   7.395   2.844 -0.3871 -0.4818  0.0907
   16MOL   C84517675   4.972   7.386   2.997  0.9446 -0.0000 -0.5785
   16MOL   C84617676   5.051   7.505   3.056 -0.3676  0.3376 -0.2170
   16MOL   C84717677   5.195   7.513   3.003 -0.0250  0.0081  0.5680
   16MOL   C84817678   5.277   7.611   3.081 -0.4203 -0.6264 -0.5960
   16MOL   C84917679   5.414   7.632   3.019 -0.5629 -0.5275  0.3214
   16MOL   C85017680   5.406   0.051   2.911  0.4627  0.3839 -0.3012
   16MOL   C85117681   5.543   0.073   2.848 -0.0647  0.2187 -0.4555
   16MOL   C85217682   5.536   0.175   2.741  0.7412  0.4926  0.2125
   16MOL   C85317683   5.671   0.207   2.673  0.4069 -0.3382  0.7667
   16MOL   C85417684   5.787   0.235   2.770 -0.8724 -0.3528  0.0262
   16MOL   O85517685   5.868   0.143   2.792  1.3466 -0.2863 -0.4058
   16MOL   N85617686   5.807   0.364   2.809  0.2968  0.0286  1.0494
   16MOL   C85717687   5.900   0.408   2.914  0.0782  0.4443 -0.0791
   16MOL   C85817688   5.851   0.373   3.058 -0.0428 -0.1545  0.8092
   16MOL   C85917689   5.700   0.403   3.070 -0.4977  0.1918  0.1924
   16MOL   C86017690   5.652   0.374   3.211 -0.8409 -0.6671  0.5779
   16MOL   C86117691   5.496   0.395   3.236 -0.6062  0.3837  0.3378
   16MOL   C86217692   5.438   0.533   3.243 -0.2243 -0.1814 -0.2293
   16MOL   N86317693   5.302   0.521   3.302  0.4574  0.2665  0.4155
   16MOL   H86417694   5.043   7.408   2.798 -0.5170 -0.0047 -0.0586
   16MOL   H86517695   4.892   7.306   2.812 -0.1052 -0.6457  0.0755
   16MOL   H86617696   5.012   7.288   3.025 -3.1054 -1.1164  1.7401
   16MOL   H86717697   4.874   7.383   3.044  1.1701  0.2376 -0.0856
   16MOL   H86817698   5.002   7.597   3.024 -0.6279  0.3639  0.2545
   16MOL   H86917699   5.062   7.492   3.164  2.2597 -1.2966 -0.6189
   16MOL   H87017700   5.199   7.545   2.899  0.8378  1.9573  1.1635
   16MOL   H87117701   5.242   7.416   3.014 -0.9572 -0.3938  1.1172
   16MOL   H87217702   5.222   0.013   3.086  1.7755  0.6258  1.3408
   16MOL   H87317703   5.291   7.582   3.185  2.0093  3.6506  0.4089
   16MOL   H87417704   5.474   7.674   3.100 -1.2390 -1.1171  1.1255
   16MOL   H87517705   5.473   7.550   2.978  1.9136  1.9618 -1.3071
   16MOL   H87617706   5.325   0.030   2.842  0.6453 -2.2126  0.2134
   16MOL   H87717707   5.373   0.140   2.963 -1.2504 -1.0833  1.1722
   16MOL   H87817708   5.585   7.671   2.810  1.1291 -0.2626  1.9539
   16MOL   H87917709   5.609   0.116   2.924  1.2082 -1.7081 -0.4433
   16MOL   H88017710   5.490   0.265   2.781 -0.4429 -0.6206  1.4062
   16MOL   H88117711   5.466   0.147   2.662 -0.5059  0.5048  1.3002
   16MOL   H88217712   5.690   0.134   2.595 -0.3364  0.5285 -0.2283
   16MOL   H88317713   5.658   0.301   2.621  2.1291  0.5175  1.8063
   16MOL   H88417714   5.747   0.434   2.769  0.6757  0.3777  1.0903
   16MOL   H88517715   5.902   0.515   2.933  0.0357  0.3478  0.4673
   16MOL   H88617716   6.002   0.372   2.899  0.2594  0.3133  1.3897
   16MOL   H88717717   5.904   0.435   3.130  1.6315  1.9118 -2.1430
   16MOL   H88817718   5.875   0.268   3.075 -1.1433 -0.8424 -1.6331
   16MOL   H88917719   5.639   0.351   2.996  0.0315 -2.0572  1.3127
   16MOL   H89017720   5.691   0.510   3.053 -0.8467 -0.2341 -2.6526
   16MOL   H89117721   5.722   0.415   3.284  1.3401  1.3313 -2.4818
   16MOL   H89217722   5.677   0.272   3.239 -1.5477 -1.7563 -2.6117
   16MOL   H89317723   5.428   0.330   3.180 -2.0354  0.8250  1.5212
   16MOL   H89417724   5.479   0.346   3.332 -1.8984 -0.2194 -0.1838
   16MOL   H89517725   5.500   0.594   3.309 -0.0560 -1.9478  1.2576
   16MOL   H89617726   5.449   0.584   3.147  3.9498 -0.3011  0.1068
   16MOL   H89717727   5.293   0.453   3.376  3.2357 -2.2561 -1.4259
   16MOL   C89817728   5.188   0.583   3.266  0.1611 -0.0410 -0.1280
   16MOL   O89917729   5.188   0.669   3.180  0.5624 -0.8137  0.3932
   16MOL   C90017730   5.053   0.546   3.350 -0.1203  0.3940 -0.1583
   16MOL   C90117731   4.925   0.609   3.297 -0.0389  0.0777  0.8197
   16MOL   C90217732   4.884   0.537   3.168 -0.1137  0.5465  0.0648
   16MOL   C90317733   4.810   0.406   3.192 -0.9760  0.3066  1.1068
   16MOL   C90417734   4.829   0.305   3.079 -0.4413  0.0394  1.1423
   16MOL   C90517735   4.748   0.178   3.090 -0.3983  0.2976  0.1408
   16MOL   C90617736   4.793   0.088   3.205 -0.6281  0.4306 -0.4607
   16MOL   C90717737   4.687   7.675   3.219  0.0963  0.4085  0.0998
   16MOL   C90817738   4.729   7.561   3.317 -0.0325  0.4562  0.8367
   16MOL   C90917739   4.610   7.482   3.371 -0.3514  0.2945 -0.2832
   16MOL   C91017740   4.656   7.376   3.477  0.0419 -0.9237  1.0867
   16MOL   O91117741   4.774   7.334   3.483 -0.2286  0.5049 -0.2169
   16MOL   N91217742   4.566   7.342   3.566 -0.1392  0.2462  0.0658
   16MOL   C91317743   4.589   7.253   3.680 -0.2167  0.0966  0.2821
   16MOL   C91417744   4.678   7.310   3.798  0.3909  0.2960 -0.1254
   16MOL   C91517745   4.680   7.217   3.923  0.0405 -0.5117  0.1960
   16MOL   C91617746   4.724   7.278   4.059 -0.6288 -0.2581  0.1257
   16MOL   C91717747   4.868   7.298   4.067 -0.0516 -0.2375 -0.6589
   16MOL   C91817748   4.913   7.333   4.217  0.2456  0.8365  0.1851
   16MOL   N91917749   4.851   7.455   4.265  0.2719 -0.2695  0.5948
   16MOL   H92017750   5.041   0.440   3.372 -2.7197  0.5112 -0.8968
   16MOL   H92117751   5.069   0.582   3.451  1.2657  2.1259 -0.9587
   16MOL   H92217752   4.940   0.716   3.288  0.0554 -0.0672 -0.9712
   16MOL   H92317753   4.851   0.582   3.372  0.9983 -2.3058  1.0363
   16MOL   H92417754   4.971   0.513   3.107 -1.8537  1.0929 -2.7431
   16MOL   H92517755   4.818   0.602   3.110 -1.9100 -2.4801 -1.4717
   16MOL   H92617756   4.849   0.348   3.276  0.2060 -0.4162  0.0748
   16MOL   H92717757   4.704   0.430   3.192 -0.5858  2.1198 -0.4322
   16MOL   H92817758   4.932   0.269   3.068  0.0878  2.2662 -2.0846
   16MOL   H92917759   4.819   0.344   2.978 -2.8279 -0.0424  1.3277
   16MOL   H93017760   4.647   0.211   3.112 -0.6145  0.1625 -0.6235
   16MOL   H93117761   4.753   0.123   2.996  0.9440 -1.4521  1.1983
   16MOL   H93217762   4.805   0.139   3.301  1.0978  1.0117 -0.9710
   16MOL   H93317763   4.891   0.042   3.191 -0.5389  1.1709 -2.4847
   16MOL   H93417764   4.677   7.633   3.119 -0.5116  0.5487  0.1014
   16MOL   H93517765   4.595   0.027   3.256  0.9246  1.3451  1.0908
   16MOL   H93617766   4.802   7.489   3.280 -1.0546 -1.1172  1.8124
   16MOL   H93717767   4.785   7.610   3.397 -1.3980  0.4280  1.8247
   16MOL   H93817768   4.534   7.540   3.423  1.4142 -0.0579  2.8970
   16MOL   H93917769   4.567   7.425   3.289 -2.3839 -0.9833  1.6206
   16MOL   H94017770   4.473   7.380   3.576  0.0740  0.5033  1.1277
   16MOL   H94117771   4.634   7.160   3.647  2.3452  1.2441  0.4653
   16MOL   H94217772   4.489   7.229   3.716  0.7925 -1.7373  1.9535
   16MOL   H94317773   4.782   7.313   3.765  1.1067  1.2699  2.1080
   16MOL   H94417774   4.639   7.407   3.827 -1.3345  0.0257 -1.4838
   16MOL   H94517775   4.583   7.169   3.941  0.9029 -2.0264  0.9093
   16MOL   H94617776   4.748   7.135   3.898 -0.6917 -0.7687 -0.9964
   16MOL   H94717777   4.695   7.222   4.148  2.8244  1.7120  2.5978
   16MOL   H94817778   4.665   7.366   4.082 -1.2437 -1.1060  1.9448
   16MOL   H94917779   4.921   7.205   4.045 -3.9949 -2.2920 -1.9461
   16MOL   H95017780   4.900   7.372   3.994 -0.8182  0.5481 -0.2011
   16MOL   H95117781   5.022   7.336   4.214  0.2744  0.8731  1.2322
   16MOL   H95217782   4.879   7.249   4.277 -2.1547  1.7465  0.1638
   16MOL   H95317783   4.761   7.484   4.230  0.4282  1.0363  1.2519
   16MOL   C95417784   4.906   7.537   4.351 -0.1066 -0.4932 -0.0506
   16MOL   O95517785   5.010   7.508   4.411  0.0309 -0.2112 -0.0265
   16MOL   C95617786   4.841   7.669   4.385  0.1191  0.3222  0.4034
   16MOL   C95717787   4.759   7.667   4.511  0.2934  0.2611  0.5781
   16MOL   C95817788   4.708   0.106   4.568  0.0487 -0.4351  0.0408
   16MOL   C95917789   4.562   0.129   4.544 -0.2066 -0.0703 -0.4701
   16MOL   C96017790   4.495   0.251   4.623 -0.5763 -0.0517  0.7155
   16MOL   C96117791   4.536   0.379   4.552 -0.1456 -0.3313  0.2947
   16MOL   C96217792   4.495   0.508   4.622 -0.4374 -0.3411 -0.3659
   16MOL   C96317793   4.546   0.635   4.550 -0.6097 -0.3278  0.0283
   16MOL   C96417794   4.697   0.658   4.560 -0.1013 -0.4846  0.3378
   16MOL   C96517795   4.739   0.782   4.486  0.5311 -0.2231  0.0826
   16MOL   C96617796   4.894   0.781   4.486  0.7713 -0.3827 -0.0526
   16MOL   O96717797   4.961   0.683   4.509  0.6629 -0.5973 -0.3764
   16MOL   N96817798   4.955   0.899   4.474  0.4643  0.3937 -0.2788
   16MOL   C96917799   5.096   0.931   4.480  0.7211 -0.0188 -0.0681
   16MOL   C97017800   5.129   1.030   4.591 -0.1915  0.1720 -0.3794
   16MOL   C97117801   5.083   0.978   4.724 -0.8267 -0.0755 -0.1854
   16MOL   C97217802   5.135   1.077   4.834 -0.0688  0.2949 -0.3757
   16MOL   C97317803   5.086   1.034   4.968  0.2100 -0.3950  0.3101
   16MOL   C97417804   5.155   1.111   5.080 -0.1043 -0.0882  0.1303
   16MOL   N97517805   5.185   1.259   5.065 -0.2854 -0.2222  0.2918
   16MOL   H97617806   4.928   0.041   4.403 -0.6664  1.3856  0.4582
   16MOL   H97717807   4.785   0.013   4.299 -0.0562  2.6799  1.4370
   16MOL   H97817808   4.827   7.624   4.584  1.8065 -0.3930 -1.1561
   16MOL   H97917809   4.676   7.599   4.491 -1.4372  2.2596  0.8420
   16MOL   H98017810   4.736   0.108   4.674 -1.6956  1.0996  0.5073
   16MOL   H98117811   4.769   0.192   4.540 -2.9542  1.8819  0.3325
   16MOL   H98217812   4.536   0.147   4.440 -0.7908  0.6192 -0.2067
   16MOL   H98317813   4.503   0.039   4.565  0.1794  0.1986  1.9357
   16MOL   H98417814   4.389   0.237   4.643 -0.1256 -1.7342  2.0354
   16MOL   H98517815   4.539   0.264   4.722  0.4815  0.9284  0.1240
   16MOL   H98617816   4.642   0.384   4.531 -0.3361 -0.3949 -0.6836
   16MOL   H98717817   4.478   0.378   4.460  1.3660 -0.5073 -0.6657
   16MOL   H98817818   4.387   0.500   4.623 -0.4524 -0.0628  0.7514
   16MOL   H98917819   4.538   0.498   4.722 -0.9516 -0.2699 -0.1368
   16MOL   H99017820   4.501   0.634   4.451 -1.3224 -0.1246  0.3470
   16MOL   H99117821   4.497   0.721   4.596  2.8047  1.5614  0.2675
   16MOL   H99217822   4.738   0.577   4.499 -0.1229 -0.1126 -0.1840
   16MOL   H99317823   4.734   0.650   4.662  0.2538  2.0089  0.4422
   16MOL   H99417824   4.705   0.792   4.383 -1.8264 -2.1203  0.6401
   16MOL   H99517825   4.711   0.866   4.549  1.9470 -0.1848  0.6835
   16MOL   H99617826   4.908   0.973   4.423  0.9402  0.0439 -1.2401
   16MOL   H99717827   5.116   0.967   4.379 -0.0844 -0.8503 -0.5270
   16MOL   H99817828   5.165   0.847   4.475 -1.1693 -1.6496  0.5474
   16MOL   H99917829   5.065   1.118   4.586 -0.9150 -0.4341 -2.1035
   16MOL     H117830   5.235   1.055   4.593  0.9461 -4.2817  1.2856
   16MOL     H217831   5.114   0.875   4.743  4.9158  1.6768  0.8285
   16MOL     H317832   4.974   0.985   4.731 -0.9781 -0.5773 -1.7986
   16MOL     H417833   5.244   1.078   4.835 -0.0507 -0.2179 -1.6399
   16MOL     H517834   5.085   1.172   4.812 -0.0263 -0.0844 -2.1625
   16MOL     H617835   5.082   0.927   4.986  2.5880 -0.8983 -1.8475
   16MOL     H717836   4.981   1.061   4.976  0.2404 -0.3524  0.5738
   16MOL     H817837   5.094   1.105   5.170 -1.0901  3.6848 -0.1954
   16MOL     H917838   5.246   1.057   5.107 -0.9227 -1.8179 -0.4983
   16MOL    H1017839   5.284   1.281   5.072  0.1150 -2.0618  0.7362
   16MOL    C1117840   5.098   1.358   5.049  0.1490 -0.7179 -0.0917
   16MOL    O1217841   4.978   1.335   5.041  0.0213 -0.3523 -0.1609
   16MOL    C1317842   5.153   1.500   5.049 -0.2977 -0.6874  0.0390
   16MOL    C1417843   5.148   1.583   5.175 -0.5926 -0.4195 -0.5349
   16MOL    C1517844   5.243   1.532   5.283 -0.5330 -0.6156 -0.1676
   16MOL    C1617845   5.258   1.640   5.394 -0.6578 -0.7113 -0.1603
   16MOL    C1717846   5.345   1.592   5.514  0.0765  0.0760  0.2846
   16MOL    C1817847   5.323   1.651   5.655 -0.5887  0.8885 -0.1279
   16MOL    C1917848   5.353   1.799   5.676 -0.6871  0.4565  0.4366
   16MOL    C2017849   5.270   1.839   5.802  0.3586 -0.0226 -0.7121
   16MOL    C2117850   5.309   1.981   5.858  0.0214 -0.3712  0.1175
   16MOL    C2217851   5.274   2.103   5.762  0.8377  0.5365 -0.2906
   16MOL    C2317852   5.281   2.237   5.822 -0.4516  0.6478 -0.8171
   16MOL    O2417853   5.253   2.250   5.940  0.4220 -0.2030  0.2746
   16MOL    N2517854   5.334   2.336   5.752  0.2047 -0.5257  0.0628
   16MOL    C2617855   5.337   2.473   5.796  0.5191  0.1927  0.2148
   16MOL    C2717856   5.459   2.542   5.728 -0.6413 -0.4957  0.0145
   16MOL    C2817857   5.429   2.583   5.589  0.2059  0.3104  0.3427
   16MOL    C2917858   5.553   2.605   5.500  0.1220 -0.3029 -0.4791
   16MOL    C3017859   5.614   2.746   5.524  0.5973  0.1767 -0.5738
   16MOL    C3117860   5.748   2.780   5.463 -0.4802 -0.9202  0.1676
   16MOL    N3217861   5.802   2.905   5.510  0.0647  0.0688 -0.8397
   16MOL    H3317862   5.078   1.537   4.978  1.9857  0.1143 -2.0018
   16MOL    H3417863   5.253   1.505   5.008 -0.5316  0.8483 -0.3956
   16MOL    H3517864   5.046   1.602   5.209 -0.7837  0.7880 -1.7374
   16MOL    H3617865   5.189   1.678   5.140  1.3444 -0.4596  1.4899
   16MOL    H3717866   5.343   1.518   5.241 -1.1030 -1.9579 -1.1263
   16MOL    H3817867   5.209   1.440   5.331  2.0344 -0.6210  1.7175
   16MOL    H3917868   5.285   1.736   5.350  2.9663 -2.1680 -1.2699
   16MOL    H4017869   5.154   1.656   5.423 -0.1460  0.1261  1.2585
   16MOL    H4117870   5.331   1.484   5.524 -0.1679  0.1090  0.3039
   16MOL    H4217871   5.450   1.603   5.486  0.2702 -1.6262  0.2830
   16MOL    H4317872   5.218   1.630   5.678 -1.1304  1.1093 -2.2702
   16MOL    H4417873   5.393   1.598   5.718  0.2248  1.4579 -0.5493
   16MOL    H4517874   5.457   1.808   5.706 -1.4602  2.1477  2.7797
   16MOL    H4617875   5.328   1.857   5.587 -0.9854 -1.0587 -0.4858
   16MOL    H4717876   5.163   1.841   5.780  0.6648  0.8954 -2.1877
   16MOL    H4817877   5.274   1.769   5.886  1.6430 -1.1776 -1.7093
   16MOL    H4917878   5.415   1.975   5.883  0.5728  1.8753 -1.5401
   16MOL    H5017879   5.255   1.984   5.952  0.9775  1.0601  0.6250
   16MOL    H5117880   5.342   2.109   5.678 -1.1991  0.4369 -1.9812
   16MOL    H5217881   5.172   2.096   5.725  1.0575  1.3430 -1.0552
   16MOL    H5317882   5.360   2.315   5.657  0.8203 -0.0628  0.1211
   16MOL    H5417883   5.347   2.487   5.903 -0.5286 -0.9760  0.4884
   16MOL    H5517884   5.245   2.525   5.770  0.7797 -0.2412 -1.7189
   16MOL    H5617885   5.543   2.474   5.722  0.7675  1.3059 -1.2294
   16MOL    H5717886   5.492   2.631   5.781  1.5612 -1.4209  0.2407
   16MOL    H5817887   5.372   2.676   5.593  0.9851  0.8372 -0.5814
   16MOL    H5917888   5.367   2.509   5.539  1.8396 -0.3811 -0.6797
   16MOL    H6017889   5.525   2.584   5.397  0.1877  0.2435 -0.6124
   16MOL    H6117890   5.628   2.528   5.516 -0.7793 -1.3388 -1.1811
   16MOL    H6217891   5.644   2.759   5.629  0.5745  0.0339 -0.5491
   16MOL    H6317892   5.541   2.824   5.507  0.9362  1.2589  2.5815
   16MOL    H6417893   5.728   2.790   5.356 -1.3435  2.3025  0.5866
   16MOL    H6517894   5.806   2.688   5.470  0.3242 -0.4342 -0.0944
   16MOL    H6617895   5.767   2.996   5.483  0.3356  0.4870  0.1926
   16MOL    C6717896   5.904   2.918   5.594 -0.4289 -0.2294 -0.1049
   16MOL    O6817897   5.967   2.821   5.640  0.0014 -0.3438  0.7299
   16MOL    C6917898   5.939   3.058   5.638 -0.4182  0.0628  0.9760
   16MOL    C7017899   6.027   3.066   5.764  1.0869  0.1064  0.6869
   16MOL    C7117900   6.052   3.207   5.809 -0.7493  0.2998 -0.4933
   16MOL    C7217901   6.163   3.275   5.733 -0.8197 -0.3768 -0.1966
   16MOL    C7317902   6.302   3.240   5.792 -0.3223  0.1405  0.4208
   16MOL    C7417903   6.340   3.336   5.902  0.5520  0.7916 -0.0826
   16MOL    C7517904   6.483   3.323   5.954 -0.2859 -0.3174 -0.0141
   16MOL    C7617905   6.517   3.417   6.072 -0.0752  0.1635 -0.4067
   16MOL    C7717906   6.469   3.353   6.198 -0.0078 -0.1973 -0.4490
   16MOL    C7817907   6.516   3.434   6.326  0.0846 -0.2135 -0.1225
   16MOL    C7917908   6.411   3.536   6.362  0.3005  0.1083 -0.6630
   16MOL    O8017909   6.312   3.496   6.427  0.4635 -0.6359  0.0298
   16MOL    N8117910   6.418   3.659   6.312 -0.4333 -0.3761  0.3999
   16MOL    C8217911   6.312   3.766   6.327  0.3660  0.4936 -0.1141
   16MOL    C8317912   6.195   3.736   6.239  0.2415  0.1658  0.3578
   16MOL    C8417913   6.093   3.851   6.257 -0.3272  0.5422  0.0711
   16MOL    C8517914   5.960   3.832   6.185  0.7908 -0.0476  0.3919
   16MOL    C8617915   5.872   3.956   6.197 -0.0791 -0.0993 -0.1459
   16MOL    C8717916   5.763   3.959   6.090 -0.2364  0.1360  0.2313
   16MOL    N8817917   5.683   4.080   6.091  0.2538 -0.1758  0.9951
   16MOL    H8917918   5.847   3.114   5.660 -1.2371 -0.0749 -1.9823
   16MOL    H9017919   5.992   3.111   5.559  0.4312 -2.1090  0.0432
   16MOL    H9117920   5.983   3.004   5.842  1.2892  1.0765  1.5805
   16MOL    H9217921   6.126   3.027   5.738  1.2456  2.2549 -2.1226
   16MOL    H9317922   5.959   3.264   5.808 -1.2477 -0.4531  1.3988
   16MOL    H9417923   6.089   3.192   5.910 -2.3848  0.2450  0.1127
   16MOL    H9517924   6.159   3.245   5.629  1.2640 -1.6963  0.0819
   16MOL    H9617925   6.150   3.384   5.730  3.3758  0.2386  0.2451
   16MOL    H9717926   6.305   3.135   5.822 -2.3929 -0.1682 -0.3788
   16MOL    H9817927   6.375   3.255   5.712 -0.3725  3.3168  0.9038
   16MOL    H9917928   6.318   3.439   5.872 -0.4893  0.2334 -1.2829
   16MOL   H10017929   6.270   3.312   5.982 -0.6073  1.1377 -0.9590
   16MOL   H10117930   6.540   3.346   5.865 -3.2219  1.7522 -1.4537
   16MOL   H10217931   6.499   3.217   5.972  0.1714 -0.0802  1.0132
   16MOL   H10317932   6.621   3.448   6.065 -0.6417  2.1455 -0.1149
   16MOL   H10417933   6.461   3.510   6.063  0.6375  0.5964 -0.3136
   16MOL   H10517934   6.507   3.250   6.200 -0.5052 -0.3551  2.2091
   16MOL   H10617935   6.361   3.341   6.194 -0.0818 -0.0440  0.8825
   16MOL   H10717936   6.532   3.367   6.411  1.1602 -1.6484 -1.4461
   16MOL   H10817937   6.611   3.485   6.314 -0.0759  0.6505  2.0523
   16MOL   H10917938   6.495   3.681   6.250 -0.6367 -1.7114 -0.3460
   16MOL   H11017939   6.344   3.867   6.300 -0.6960  0.9920  0.4581
   16MOL   H11117940   6.295   3.773   6.434 -0.5545  1.7846 -0.3310
   16MOL   H11217941   6.153   3.649   6.290  0.6015 -0.2775 -0.0941
   16MOL   H11317942   6.216   3.705   6.137  1.5330  1.0983  0.3345
   16MOL   H11417943   6.139   3.940   6.212 -1.6121  0.4156 -1.5304
   16MOL   H11517944   6.090   3.864   6.365  3.8933  0.7280  0.2791
   16MOL   H11617945   5.979   3.820   6.079  0.1514 -0.5536  0.3313
   16MOL   H11717946   5.906   3.741   6.210 -0.7555  1.1420  1.5875
   16MOL   H11817947   5.824   3.946   6.294 -1.1768  2.1378 -0.4249
   16MOL   H11917948   5.925   4.051   6.187  0.4944 -0.6824 -3.4050
   16MOL   H12017949   5.798   3.942   5.988 -1.5458 -0.6860 -0.0787
   16MOL   H12117950   5.694   3.876   6.102  1.5448 -1.4581 -0.3048
   16MOL   H12217951   5.648   4.097   6.184 -2.3199 -2.4866  0.5360
   16MOL   H12317952   5.596   4.057   6.045  0.7565  1.3794 -0.7991
   17MOL     C117953   6.096   5.599   3.307  0.7360 -0.2297  0.5720
   17MOL     O217954   6.059   5.487   3.280 -0.3061  0.1410 -0.5911
   17MOL     C317955   6.232   5.644   3.254 -0.0692 -0.3617 -0.8043
   17MOL     C417956   6.236   5.796   3.216 -0.2459  0.1531 -0.9476
   17MOL     C517957   6.251   5.885   3.337 -0.0580  0.1037  0.3093
   17MOL     C617958   6.227   6.039   3.321  0.1128  0.8914 -0.8555
   17MOL     C717959   6.289   6.118   3.196  0.1079  0.8342  0.3943
   17MOL     C817960   6.434   6.144   3.199  0.1258 -0.0838 -0.1458
   17MOL     C917961   6.473   6.257   3.300  0.2061 -0.2139 -0.0669
   17MOL    C1017962   6.625   6.278   3.303  0.0553 -0.4263 -0.2695
   17MOL    C1117963   6.667   6.349   3.168  0.6465  0.2450  0.8658
   17MOL    C1217964   6.806   6.413   3.177 -0.3557  0.0671  0.1545
   17MOL    C1317965   6.860   6.462   3.039  0.6819  0.2104  0.2736
   17MOL    O1417966   6.795   6.441   2.932 -0.4892 -0.0717 -0.0174
   17MOL    N1517967   6.980   6.515   3.035  0.3544  0.2174  0.0315
   17MOL    C1617968   7.056   6.547   2.912  0.2306 -0.6200 -0.4209
   17MOL    C1717969   7.189   6.613   2.950 -0.4691 -0.5465  0.1842
   17MOL    C1817970   7.278   6.647   2.822 -0.1582  0.0957 -0.1127
   17MOL    C1917971   7.384   6.757   2.850  0.0083  0.2532  0.2194
   17MOL    C2017972   7.486   6.787   2.745  0.2968 -0.1822  0.3974
   17MOL    C2117973   7.575   6.671   2.704 -0.9780  0.3290  0.3886
   17MOL    N2217974   7.622   6.587   2.813 -0.0180 -0.4176  0.1786
   17MOL    H2317975   6.240   5.583   3.164 -2.4862 -0.7682 -0.7746
   17MOL    H2417976   6.314   5.618   3.321 -1.0127 -1.3847 -0.0262
   17MOL    H2517977   6.147   5.821   3.158 -1.4076 -1.2188  0.1878
   17MOL    H2617978   6.319   5.827   3.152 -0.9291  2.4859 -0.7491
   17MOL    H2717979   6.350   5.862   3.378 -1.1880 -3.6317  1.0664
   17MOL    H2817980   6.172   5.852   3.404  0.0578  0.5675  0.6824
   17MOL    H2917981   6.122   6.063   3.305  0.1230  1.4281 -0.1436
   17MOL    H3017982   6.244   6.089   3.417 -0.2294  0.4290 -0.5534
   17MOL    H3117983   6.239   6.211   3.171 -0.2464  0.8121  0.9976
   17MOL    H3217984   6.264   6.054   3.112  0.8122 -2.4232  2.5874
   17MOL    H3317985   6.491   6.052   3.218 -0.8602 -0.9498 -1.2967
   17MOL    H3417986   6.463   6.184   3.102 -1.6792 -0.2069 -0.7442
   17MOL    H3517987   6.422   6.351   3.278  1.3760  0.0009 -1.9829
   17MOL    H3617988   6.440   6.234   3.401 -1.5700  1.4937 -0.2200
   17MOL    H3717989   6.648   6.344   3.387  1.7057 -0.0460 -1.0146
   17MOL    H3817990   6.690   6.191   3.311  0.4281 -0.0291  1.2536
   17MOL    H3917991   6.604   6.433   3.139 -0.1515  0.2221  2.5093
   17MOL    H4017992   6.680   6.272   3.092 -1.1144  0.0708  0.7425
   17MOL    H4117993   6.813   6.494   3.250 -0.1888  0.3007 -0.1212
   17MOL    H4217994   6.880   6.335   3.199 -1.0991 -1.3092 -2.0814
   17MOL    H4317995   7.030   6.501   3.122  1.6326  1.7483 -0.4384
   17MOL    H4417996   7.009   6.614   2.841 -2.6554 -0.1730  1.8447
   17MOL    H4517997   7.080   6.451   2.865  0.8383 -1.1021  0.8463
   17MOL    H4617998   7.260   6.557   3.011  0.7848 -0.6105 -1.2737
   17MOL    H4717999   7.157   6.695   3.014  2.3922  0.2918  0.6061
   17MOL    H4818000   7.329   6.559   2.783  0.5995  0.1904  0.6638
   17MOL    H4918001   7.220   6.674   2.733  1.5774 -2.5228 -2.1170
   17MOL    H5018002   7.434   6.734   2.944  1.5560  1.5008 -0.2731
   17MOL    H5118003   7.325   6.846   2.873  0.5987 -0.1143  3.4743
   17MOL    H5218004   7.440   6.825   2.653  0.7197  2.4003  1.2163
   17MOL    H5318005   7.550   6.865   2.787 -0.2648  0.9261 -0.7570
   17MOL    H5418006   7.522   6.609   2.632  0.9862 -0.2202 -0.6106
   17MOL    H5518007   7.654   6.724   2.651 -1.9488  1.2132 -0.1675
   17MOL    H5618008   7.574   6.498   2.820  1.5111 -1.0429  3.6156
   17MOL    H5718009   6.041   5.690   3.331 -0.9556 -0.7743 -1.1102
   17MOL    C5818010   0.037   6.605   2.891  0.5329 -0.2225 -0.0140
   17MOL    O5918011   0.104   6.707   2.880 -0.0075 -0.1088 -0.2439
   17MOL    C6018012   0.093   6.496   2.983  0.8460 -0.1478 -0.0692
   17MOL    C6118013   0.246   6.479   2.985 -0.4938  0.5016  0.7419
   17MOL    C6218014   0.300   6.403   3.106  0.5963 -0.3823 -0.5859
   17MOL    C6318015   0.246   6.263   3.125 -1.0402 -0.2051 -0.5441
   17MOL    C6418016   0.279   6.188   3.249  0.1644  0.0421 -0.6331
   17MOL    C6518017   0.205   6.225   3.374 -0.8497 -0.3789 -0.1947
   17MOL    C6618018   0.205   6.109   3.480 -0.5702  0.4624  0.7698
   17MOL    C6718019   0.110   6.142   3.593  0.3994 -0.3721 -0.0926
   17MOL    C6818020   0.093   6.021   3.689 -0.1972 -0.2127 -0.7932
   17MOL    C6918021   7.680   5.909   3.642 -0.2085  0.0533 -0.0953
   17MOL    C7018022   0.051   5.791   3.565 -0.5168  0.1231  0.5148
   17MOL    O7118023   0.146   5.726   3.609  0.1476  0.0827  0.0604
   17MOL    N7218024   7.674   5.755   3.455 -0.7585 -0.9664  0.4428
   17MOL    C7318025   0.016   5.639   3.364 -0.2227 -0.0894 -0.6378
   17MOL    C7418026   7.594   5.535   3.360  0.1051  0.2942 -0.5901
   17MOL    C7518027   7.615   5.418   3.258 -0.6195 -0.5725  0.3245
   17MOL    C7618028   7.666   5.291   3.324  0.2843  0.5245 -0.5228
   17MOL    C7718029   7.643   5.170   3.228 -0.4646 -0.4151 -0.6868
   17MOL    C7818030   0.001   5.035   3.286  0.2675  0.8391  0.0100
   17MOL    N7918031   7.680   4.924   3.193  0.0765  0.2770 -0.1842
   17MOL    H8018032   0.051   6.399   2.955  1.3697 -0.6979  1.0251
   17MOL    H8118033   0.069   6.520   3.086  0.8300 -0.0322 -0.1005
   17MOL    H8218034   0.281   6.423   2.898  0.2484  2.0396  0.0445
   17MOL    H8318035   0.291   6.578   2.980 -0.9328  0.7188  1.0263
   17MOL    H8418036   0.279   6.455   3.199  1.6832  1.6175 -1.4368
   17MOL    H8518037   0.409   6.408   3.106  0.5802  0.5478 -2.7748
   17MOL    H8618038   0.303   6.213   3.046  2.6982  2.1514  0.5033
   17MOL    H8718039   0.139   6.259   3.104 -0.8547 -2.1242 -1.2299
   17MOL    H8818040   0.249   6.088   3.216 -0.8485  0.3383 -0.6117
   17MOL    H8918041   0.387   6.180   3.259  0.1341  1.4999  1.2277
   17MOL    H9018042   0.104   6.254   3.346 -0.1473  1.3023 -1.0745
   17MOL    H9118043   0.248   6.314   3.420  0.5568 -1.9543  1.6202
   17MOL    H9218044   0.301   6.082   3.525 -0.5551 -2.6929 -0.9541
   17MOL    H9318045   0.162   6.020   3.434 -0.3326  0.8796 -0.2799
   17MOL    H9418046   0.161   6.223   3.646 -0.1455  0.2469 -0.5141
   17MOL    H9518047   0.012   6.174   3.558  0.1593 -0.4323  0.5078
   17MOL    H9618048   0.050   6.065   3.779 -4.6731 -0.8460 -2.5000
   17MOL    H9718049   0.179   5.974   3.738  0.8821  1.5123 -1.0039
   17MOL    H9818050   7.631   5.867   3.731  0.1433 -0.6380 -0.2197
   17MOL    H9918051   7.602   5.959   3.585 -0.6702 -0.6835 -0.1227
   17MOL   H10018052   7.593   5.809   3.430 -1.2996 -2.0943 -0.3107
   17MOL   H10118053   0.100   5.579   3.399  0.2691 -0.1738 -1.9435
   17MOL   H10218054   0.051   5.682   3.270  1.1972  3.3495  1.3468
   17MOL   H10318055   7.585   5.500   3.463 -0.6820  1.4830 -0.2328
   17MOL   H10418056   7.496   5.581   3.345 -1.3612 -2.7876 -0.9765
   17MOL   H10518057   7.686   5.443   3.179 -0.6684 -0.1401  0.4187
   17MOL   H10618058   7.527   5.406   3.194  0.1842 -0.6520 -0.7854
   17MOL   H10718059   0.081   5.306   3.345 -0.1437  0.0836  2.1396
   17MOL   H10818060   7.627   5.272   3.424  2.4360  2.8034  0.8069
   17MOL   H10918061   0.003   5.188   3.134  2.7471  2.2953  1.4792
   17MOL   H11018062   7.537   5.163   3.202 -0.7674  2.7141 -0.4348
   17MOL   H11118063   7.630   5.018   3.373 -1.3597 -1.9224 -1.6419
   17MOL   H11218064   0.101   5.040   3.330 -0.4939  0.6841  1.8215
   17MOL   H11318065   7.643   4.938   3.100 -0.1954 -1.4881 -0.3629
   17MOL   C11418066   0.017   4.795   3.224  0.4614  0.6159 -0.1340
   17MOL   O11518067   0.040   4.767   3.343  0.0131  0.4839 -0.1344
   17MOL   C11618068   7.687   4.688   3.121  0.7897 -0.3826 -0.1536
   17MOL   C11718069   7.677   4.551   3.197 -0.3149  0.3751 -0.2755
   17MOL   C11818070   7.662   4.444   3.087 -0.0759 -0.7123  0.0052
   17MOL   C11918071   7.621   4.306   3.142  0.3517  0.5617 -0.1736
   17MOL   C12018072   7.465   4.288   3.135 -0.1472 -0.2286 -1.2750
   17MOL   C12118073   7.399   4.179   3.221  0.6260  0.1811 -0.5440
   17MOL   C12218074   7.252   4.133   3.185 -0.2610 -0.4025  1.0257
   17MOL   C12318075   7.187   4.039   3.289 -0.1075 -0.1275 -0.5225
   17MOL   C12418076   7.159   4.101   3.426  1.0345 -0.8100 -0.2418
   17MOL   C12518077   7.120   3.993   3.536  0.6720  0.4397  0.6904
   17MOL   C12618078   7.088   4.053   3.672  0.7821  0.7036 -0.7135
   17MOL   O12718079   7.162   4.133   3.724 -0.0121 -0.0358  0.0725
   17MOL   N12818080   6.967   4.010   3.725  0.3775  0.1384  0.3997
   17MOL   C12918081   6.907   4.064   3.849  0.4836  0.3785  0.7998
   17MOL   C13018082   6.967   3.989   3.970  0.8226 -0.4437  0.5633
   17MOL   C13118083   6.941   4.056   4.110 -0.1504  0.1755  0.8619
   17MOL   C13218084   7.020   4.185   4.131  0.1013  0.1960  0.7821
   17MOL   C13318085   7.181   4.172   4.108 -0.1755 -1.0199 -0.1757
   17MOL   C13418086   7.252   4.306   4.060  0.5979  0.1331 -0.9824
   17MOL   N13518087   7.241   4.331   3.915  0.2296 -0.3565 -0.0514
   17MOL   H13618088   7.590   4.703   3.074  1.6242 -1.2946 -2.2334
   17MOL   H13718089   0.073   4.689   3.044 -0.8145  2.0174 -1.7979
   17MOL   H13818090   7.584   4.558   3.253 -0.8675  0.9616 -1.2498
   17MOL   H13918091   0.069   4.531   3.264  0.3485  2.9569 -0.2601
   17MOL   H14018092   7.581   4.476   3.021  0.6425 -0.1012 -0.5785
   17MOL   H14118093   0.053   4.439   3.016  1.4954  0.3420  1.7203
   17MOL   H14218094   7.666   4.217   3.100  0.9645  1.2491 -1.0037
   17MOL   H14318095   7.654   4.305   3.246 -1.5861 -1.5941  0.4473
   17MOL   H14418096   7.417   4.382   3.163  0.4008 -0.3466  0.1262
   17MOL   H14518097   7.436   4.281   3.031  0.5345 -1.1470 -1.4132
   17MOL   H14618098   7.411   4.201   3.327  3.4537 -0.0803 -0.7760
   17MOL   H14718099   7.452   4.088   3.193  3.5868  2.5421 -2.9771
   17MOL   H14818100   7.194   4.220   3.156  0.5798  0.1539  0.9729
   17MOL   H14918101   7.254   4.074   3.094 -1.4046 -2.0354  2.0293
   17MOL   H15018102   7.253   3.953   3.291  1.3013  0.9447 -0.1494
   17MOL   H15118103   7.086   4.007   3.264 -0.5812  1.1532 -0.2777
   17MOL   H15218104   7.080   4.174   3.412  1.0629 -0.4484  1.3817
   17MOL   H15318105   7.252   4.152   3.451  0.4540  1.1364 -1.9223
   17MOL   H15418106   7.197   3.917   3.552  2.3292  1.6022 -1.5129
   17MOL   H15518107   7.033   3.940   3.496  0.3181  2.9944 -2.0655
   17MOL   H15618108   6.894   3.969   3.668  0.4868  0.2547  0.1793
   17MOL   H15718109   6.801   4.037   3.842  0.9991 -1.5902  0.1208
   17MOL   H15818110   6.914   4.172   3.857 -0.2996  0.5282 -0.3716
   17MOL   H15918111   7.074   3.971   3.958  0.7894 -0.6253  0.5240
   17MOL   H16018112   6.933   3.885   3.966 -2.0432  0.4681 -0.2506
   17MOL   H16118113   6.834   4.076   4.111 -0.4772 -0.5660 -4.1936
   17MOL   H16218114   6.958   3.984   4.189 -1.0605  1.7285  2.5119
   17MOL   H16318115   6.972   4.251   4.059  1.5437  1.2873  0.7963
   17MOL   H16418116   6.996   4.227   4.229  0.9906 -1.5827  1.8037
   17MOL   H16518117   7.213   4.102   4.030  0.0131 -1.4983  0.3299
   17MOL   H16618118   7.230   4.147   4.202 -1.2132  0.9231  0.9014
   17MOL   H16718119   7.210   4.383   4.126 -2.3228 -0.6645 -1.8178
   17MOL   H16818120   7.358   4.299   4.082  0.2691 -0.5508  0.4445
   17MOL   H16918121   7.197   4.255   3.865  0.2862 -0.9172  0.7367
   17MOL   C17018122   7.267   4.442   3.841  0.5044  0.3452 -0.3182
   17MOL   O17118123   7.329   4.540   3.884  0.6766 -0.5841 -0.1906
   17MOL   C17218124   7.221   4.440   3.695 -0.1923  0.4467 -0.4079
   17MOL   C17318125   7.264   4.563   3.610 -0.1634  0.2174  0.0106
   17MOL   C17418126   7.253   4.543   3.456  0.1252 -0.1716 -1.0179
   17MOL   C17518127   7.277   4.670   3.369 -0.6056  0.1089  0.9631
   17MOL   C17618128   7.264   4.631   3.218  0.7647 -0.3139  0.2265
   17MOL   C17718129   7.190   4.730   3.132  0.1431  0.6347 -0.1676
   17MOL   C17818130   7.286   4.847   3.097  0.8673  0.0141 -0.3049
   17MOL   C17918131   7.227   4.970   3.027 -0.4449 -0.0997  0.4040
   17MOL   C18018132   7.098   5.030   3.087 -0.4215 -0.2003  0.4214
   17MOL   C18118133   7.045   5.145   2.997  1.0870  0.2205  0.3150
   17MOL   C18218134   7.120   5.279   3.013  0.0187  0.4400  0.7652
   17MOL   O18318135   7.211   5.302   3.097  0.8395  1.0296  0.3878
   17MOL   N18418136   7.088   5.370   2.918 -0.2502  0.3536  0.2880
   17MOL   C18518137   7.142   5.500   2.914 -0.3163 -0.0492 -0.1132
   17MOL   C18618138   7.164   5.536   2.762 -0.0417  0.9937 -0.4618
   17MOL   C18718139   7.216   5.678   2.742 -0.7214  0.3643 -0.1600
   17MOL   C18818140   7.180   5.741   2.604  0.3933  0.0705 -0.5818
   17MOL   C18918141   7.048   5.813   2.588 -0.9423 -0.0554  0.1037
   17MOL   C19018142   6.923   5.736   2.633  0.5799 -0.9581 -0.2546
   17MOL   N19118143   6.802   5.807   2.590  0.5971 -0.4478 -0.8294
   17MOL   H19218144   7.261   4.349   3.650  1.4228  0.2833  1.2634
   17MOL   H19318145   7.115   4.422   3.705 -0.6995  1.6500 -3.0937
   17MOL   H19418146   7.361   4.598   3.645  0.2700  0.0799 -1.0134
   17MOL   H19518147   7.198   4.646   3.631  1.1612  1.4923 -0.7479
   17MOL   H19618148   7.152   4.510   3.435 -0.2120  0.6401 -0.7092
   17MOL   H19718149   7.317   4.458   3.435  0.2471 -0.2314 -0.3929
   17MOL   H19818150   7.207   4.753   3.380 -0.4148 -0.0009  3.1867
   17MOL   H19918151   7.380   4.699   3.389  0.0010 -0.7224 -0.8906
   17MOL   H20018152   7.358   4.601   3.171  2.2772  1.7645  1.8408
   17MOL   H20118153   7.199   4.543   3.207 -0.6913  0.8323 -0.5215
   17MOL   H20218154   7.094   4.761   3.174 -0.3093  1.6322 -1.8940
   17MOL   H20318155   7.158   4.682   3.040 -0.7755  0.0875  0.4250
   17MOL   H20418156   7.348   4.884   3.179 -0.5850 -0.6651  1.1410
   17MOL   H20518157   7.369   4.809   3.038  1.2704  2.8889 -1.6461
   17MOL   H20618158   7.313   5.034   3.012  0.1042 -1.0401 -0.5356
   17MOL   H20718159   7.199   4.931   2.929  1.1360  0.7643 -0.4078
   17MOL   H20818160   7.127   5.078   3.181 -0.0783  0.6430 -0.1095
   17MOL   H20918161   7.018   4.961   3.113 -0.1039 -0.0704  1.8125
   17MOL   H21018162   7.047   5.115   2.892  1.1988 -0.6121  0.5517
   17MOL   H21118163   6.941   5.168   3.018  0.8120 -2.3940  2.0231
   17MOL   H21218164   7.027   5.335   2.845 -0.0989 -0.1121  0.3849
   17MOL   H21318165   7.239   5.518   2.961 -0.2901 -0.9347  0.1868
   17MOL   H21418166   7.062   5.559   2.959 -0.0512 -0.5371  1.0177
   17MOL   H21518167   7.236   5.463   2.725  1.3648  2.7414 -1.2473
   17MOL   H21618168   7.070   5.522   2.710 -0.4250  2.7406 -0.2555
   17MOL   H21718169   7.175   5.745   2.818 -0.7372 -0.7840  0.8427
   17MOL   H21818170   7.323   5.676   2.760 -0.8628 -1.3045  0.5346
   17MOL   H21918171   7.173   5.659   2.532  0.0158 -1.1918  0.8773
   17MOL   H22018172   7.260   5.810   2.579  0.1941  0.4996 -0.0339
   17MOL   H22118173   7.043   5.847   2.485 -2.7961  0.5232  0.3786
   17MOL   H22218174   7.057   5.908   2.642 -1.1961  0.5507 -0.9131
   17MOL   H22318175   6.927   5.743   2.741 -1.9612 -1.6598 -0.0762
   17MOL   H22418176   6.918   5.629   2.610 -1.6034 -1.0787  0.6095
   17MOL   H22518177   6.806   5.908   2.597 -2.0506 -0.3847  0.3334
   17MOL   C22618178   6.695   5.754   2.528 -0.0749 -0.0695 -0.1629
   17MOL   O22718179   6.678   5.635   2.506 -1.4633  0.0392  0.0476
   17MOL   C22818180   6.592   5.856   2.471  0.7448  1.1702  0.4056
   17MOL   C22918181   6.567   5.834   2.316 -0.4931 -1.0977 -0.4039
   17MOL   C23018182   6.520   5.966   2.249 -0.7558 -1.2463 -0.0557
   17MOL   C23118183   6.623   6.078   2.242  0.5814 -0.1099 -0.2941
   17MOL   C23218184   6.551   6.214   2.229 -0.6746 -0.4503 -0.8689
   17MOL   C23318185   6.459   6.241   2.102  0.6838 -0.1178 -0.3819
   17MOL   C23418186   6.532   6.243   1.963  0.5655 -0.2138 -0.2945
   17MOL   C23518187   6.447   6.248   1.835 -0.7174 -0.6770 -0.1004
   17MOL   C23618188   6.538   6.233   1.711 -1.0242  0.3286 -0.0358
   17MOL   C23718189   6.455   6.250   1.570 -1.9970 -0.8321 -0.0246
   17MOL   C23818190   6.349   6.140   1.544 -0.5603 -0.0140 -0.3774
   17MOL   O23918191   6.371   6.023   1.566  0.1203 -0.5171  0.4566
   17MOL   N24018192   6.229   6.184   1.492 -0.0463 -0.4298  0.8462
   17MOL   C24118193   6.120   6.095   1.449 -0.1209 -0.5438 -0.0472
   17MOL   C24218194   6.039   6.071   1.583  0.3103  0.0343  0.1571
   17MOL   C24318195   5.986   6.192   1.663  0.4681 -0.0557  0.1341
   17MOL   C24418196   5.897   6.146   1.783  0.1077  0.3513 -0.2970
   17MOL   C24518197   5.798   6.257   1.845 -0.0846  0.0874 -0.8063
   17MOL   C24618198   5.735   6.202   1.977  0.7534  0.1479 -0.5231
   17MOL   N24718199   5.639   6.092   1.944  0.6247 -0.0393  0.2169
   17MOL   H24818200   6.641   5.953   2.480 -1.7127  2.7875 -2.7798
   17MOL   H24918201   6.508   5.857   2.540  0.3257  0.6840 -0.0975
   17MOL   H25018202   6.660   5.798   2.272 -1.0547 -0.6413 -2.0261
   17MOL   H25118203   6.486   5.762   2.305 -1.7116  0.4102 -1.6570
   17MOL   H25218204   6.484   5.943   2.149  0.9729 -1.7696 -0.5882
   17MOL   H25318205   6.439   6.005   2.310 -0.4049  2.2118 -1.6807
   17MOL   H25418206   6.692   6.061   2.160  0.1843  0.3589 -0.7235
   17MOL   H25518207   6.684   6.093   2.331 -2.0063  0.4528  1.4454
   17MOL   H25618208   6.621   6.296   2.245 -0.6452 -0.8505  1.2057
   17MOL   H25718209   6.491   6.226   2.319 -0.8673  0.5762 -1.1341
   17MOL   H25818210   6.386   6.160   2.099  1.3656 -0.7062 -1.1552
   17MOL   H25918211   6.409   6.338   2.108 -0.5463 -0.7087 -0.8954
   17MOL   H26018212   6.603   6.160   1.962  0.0827 -0.6207 -0.8755
   17MOL   H26118213   6.602   6.326   1.950 -0.4913  0.6363 -0.5699
   17MOL   H26218214   6.367   6.175   1.833 -1.5759  0.2572  0.2076
   17MOL   H26318215   6.384   6.336   1.827  0.4013  0.1328 -0.1304
   17MOL   H26418216   6.617   6.308   1.720 -0.2665 -0.5955  1.2583
   17MOL   H26518217   6.584   6.135   1.724 -0.2799  0.7356  0.4217
   17MOL   H26618218   6.413   6.350   1.562  1.8320  0.8132 -0.7042
   17MOL   H26718219   6.528   6.248   1.489 -0.7991  0.0732  1.0019
   17MOL   H26818220   6.237   6.275   1.449  1.8063  0.6326  3.3328
   17MOL   H26918221   6.143   5.999   1.402 -0.4840 -0.1196 -1.1120
   17MOL   H27018222   6.047   6.152   1.392 -0.1325 -1.1081 -0.6067
   17MOL   H27118223   6.105   6.019   1.653 -2.5737 -4.6342 -0.4262
   17MOL   H27218224   5.961   6.003   1.550 -0.3836  0.5520  0.7272
   17MOL   H27318225   6.068   6.255   1.695 -0.2718  0.6787  0.5959
   17MOL   H27418226   5.914   6.245   1.600  1.5964  0.4757 -0.7073
   17MOL   H27518227   5.956   6.107   1.865 -0.6900  1.5964  0.8872
   17MOL   H27618228   5.840   6.065   1.738 -0.1043 -1.3511  2.9513
   17MOL   H27718229   5.723   6.293   1.774  0.2508 -1.8713 -2.1860
   17MOL   H27818230   5.849   6.347   1.879  0.8895  0.0102 -2.0439
   17MOL   H27918231   5.679   6.273   2.037 -1.5555 -3.2091  1.4531
   17MOL   H28018232   5.812   6.165   2.045 -0.7712 -3.0377 -0.4457
   17MOL   H28118233   5.682   6.002   1.960 -0.9814 -0.5293  1.8790
   17MOL   C28218234   5.513   6.111   1.904  0.3627  0.2511 -0.0485
   17MOL   O28318235   5.463   6.223   1.889 -0.3489 -0.4492  0.4318
   17MOL   C28418236   5.423   5.986   1.886  0.3479  0.0620 -0.2798
   17MOL   C28518237   5.317   5.976   2.004 -0.3588 -0.6977  0.8254
   17MOL   C28618238   5.369   6.005   2.141 -0.1876 -0.3586 -0.6327
   17MOL   C28718239   5.268   5.963   2.254 -0.6738  0.6789 -0.0469
   17MOL   C28818240   5.275   5.812   2.270 -0.0409  0.9504 -0.6531
   17MOL   C28918241   5.182   5.766   2.382 -0.1699 -0.0635  0.1874
   17MOL   C29018242   5.185   5.615   2.393  0.1055  0.3218  0.0231
   17MOL   C29118243   5.056   5.571   2.464  0.6265  0.4549 -0.4570
   17MOL   C29218244   5.056   5.426   2.503  0.2417 -0.3033  0.4489
   17MOL   C29318245   4.946   5.399   2.613 -0.6036 -0.5579  0.0564
   17MOL   C29418246   4.820   5.351   2.559 -0.2974  0.4504 -0.5724
   17MOL   O29518247   4.812   5.237   2.499  0.7010  0.5938  0.5881
   17MOL   N29618248   4.715   5.438   2.568 -1.3187 -0.1286 -0.0074
   17MOL   C29718249   4.579   5.422   2.519 -0.4253  0.7103 -0.3124
   17MOL   C29818250   4.474   5.473   2.623 -0.3656 -0.4780 -0.3810
   17MOL   C29918251   4.465   5.394   2.752 -0.3390 -0.9934  0.0908
   17MOL   C30018252   4.405   5.253   2.740 -0.3178  0.9937  0.5717
   17MOL   C30118253   4.351   5.196   2.878  0.4298 -0.1527  0.8340
   17MOL   C30218254   4.274   5.066   2.855  0.4698 -0.1471 -0.0367
   17MOL   N30318255   4.233   5.010   2.985 -0.1402  0.1279  0.1460
   17MOL   H30418256   5.371   5.987   1.790 -0.4558 -0.6841  0.1388
   17MOL   H30518257   5.483   5.895   1.888  1.9131  1.0270 -2.2477
   17MOL   H30618258   5.259   5.884   1.998  0.0461 -0.8888 -0.3006
   17MOL   H30718259   5.242   6.048   1.972  0.7149 -0.4608 -1.1941
   17MOL   H30818260   5.472   5.972   2.159 -0.0777  0.8467  1.0819
   17MOL   H30918261   5.359   6.112   2.160  0.6147 -0.4352  0.2938
   17MOL   H31018262   5.167   5.991   2.222 -1.3794 -0.9100  0.7694
   17MOL   H31118263   5.293   6.009   2.349 -2.9458  0.5454  0.6337
   17MOL   H31218264   5.234   5.766   2.179  3.7002 -0.5529 -1.6621
   17MOL   H31318265   5.379   5.779   2.273 -1.2193 -3.0044  0.3775
   17MOL   H31418266   5.220   5.806   2.476  1.3516  1.5228 -1.0604
   17MOL   H31518267   5.084   5.800   2.349 -0.5031 -1.9305 -0.8239
   17MOL   H31618268   5.275   5.591   2.449  0.6472 -1.2112 -1.4564
   17MOL   H31718269   5.208   5.560   2.302  1.0891  0.4381  0.2060
   17MOL   H31818270   4.979   5.591   2.390 -0.0996 -0.8254 -0.0716
   17MOL   H31918271   5.030   5.637   2.547 -1.2873  2.3752 -2.5263
   17MOL   H32018272   5.053   5.354   2.420  1.3407  0.5766 -0.3661
   17MOL   H32118273   5.157   5.406   2.539  0.8749 -0.8426 -1.5261
   17MOL   H32218274   4.988   5.316   2.670  0.0346 -1.5277 -1.7884
   17MOL   H32318275   4.928   5.476   2.687  2.2078 -0.5241  0.7517
   17MOL   H32418276   4.736   5.528   2.608  2.6605 -0.5082 -1.0866
   17MOL   H32518277   4.571   5.324   2.472 -0.8561  0.2176  0.7873
   17MOL   H32618278   4.562   5.485   2.431 -0.2309  0.6807 -0.3718
   17MOL   H32718279   4.380   5.473   2.569 -0.5717  1.1397 -0.0327
   17MOL   H32818280   4.502   5.575   2.647  1.8034 -1.4085  1.2854
   17MOL   H32918281   4.401   5.456   2.815  3.5575 -0.6149  3.8846
   17MOL   H33018282   4.564   5.396   2.796  0.1082 -1.1186 -0.9002
   17MOL   H33118283   4.323   5.261   2.669  1.1575 -0.8775 -1.4100
   17MOL   H33218284   4.481   5.188   2.696  0.7563  2.8978 -0.4456
   17MOL   H33318285   4.295   5.276   2.927  0.4213  1.3099 -1.5030
   17MOL   H33418286   4.438   5.192   2.944  0.3053  1.8809  1.1529
   17MOL   H33518287   4.190   5.082   2.788 -0.9772 -0.4224  1.6624
   17MOL   H33618288   4.337   4.995   2.801  0.1536  0.4221 -1.1400
   17MOL   H33718289   4.212   5.073   3.061  1.2350 -0.5791  1.1334
   17MOL   C33818290   4.195   4.885   2.999  0.4574 -0.7933  0.3136
   17MOL   O33918291   4.202   4.802   2.906  0.1436 -0.7530 -0.4700
   17MOL   C34018292   4.139   4.840   3.136 -0.1031 -0.0395  0.5301
   17MOL   C34118293   3.993   4.809   3.135  0.1179 -0.5273  0.1208
   17MOL   C34218294   3.903   4.928   3.094  0.8250 -1.0832  0.2749
   17MOL   C34318295   3.753   4.902   3.112 -0.7324 -0.3019  0.1277
   17MOL   C34418296   3.667   5.004   3.054  0.0225 -0.4298 -0.2069
   17MOL   C34518297   3.516   4.979   3.081  0.6279  0.0171  0.2144
   17MOL   C34618298   3.434   5.072   2.982 -0.0290  0.3684 -0.4887
   17MOL   C34718299   3.296   5.100   3.017 -0.3715 -0.3739  0.1140
   17MOL   C34818300   3.218   5.190   2.925  0.0025 -0.1040  0.3769
   17MOL   C34918301   3.269   5.336   2.895 -1.4713  0.0892  0.0797
   17MOL   C35018302   3.249   5.424   3.012  0.2529  0.5595 -0.4721
   17MOL   O35118303   3.306   5.394   3.118 -0.1786 -0.1243  0.3687
   17MOL   N35218304   3.182   5.545   3.001 -0.2888 -0.1717 -0.1604
   17MOL   C35318305   3.168   5.647   3.104 -0.3582  0.4751  0.1407
   17MOL   C35418306   3.096   5.772   3.055 -0.1390 -0.0036  0.4325
   17MOL   C35518307   3.104   5.875   3.167  0.6252 -0.5055 -0.4653
   17MOL   C35618308   2.987   5.979   3.143  0.1128  0.0157  1.0432
   17MOL   C35718309   2.963   6.069   3.263  0.7011 -0.5877 -0.2510
   17MOL   C35818310   2.847   6.167   3.242 -0.4883  0.2811 -0.2116
   17MOL   N35918311   2.717   6.104   3.244 -0.0532  0.1086 -0.1798
   17MOL   H36018312   4.162   4.925   3.201  0.3768  1.1067 -1.1059
   17MOL   H36118313   4.208   4.763   3.172 -2.2060 -1.7784  0.9208
   17MOL   H36218314   3.982   4.733   3.058  0.4243  0.5902 -1.0376
   17MOL   H36318315   3.972   4.749   3.224  0.7583 -0.1769  0.5115
   17MOL   H36418316   3.929   4.961   2.994 -0.8846 -0.1727  0.1157
   17MOL   H36518317   3.937   5.017   3.148  1.6094 -0.9598 -0.4129
   17MOL   H36618318   3.729   4.811   3.058  1.1297 -0.7316 -0.0082
   17MOL   H36718319   3.735   4.894   3.220  0.9325 -1.2638  0.3471
   17MOL   H36818320   3.694   5.101   3.098 -0.3331 -0.6074  0.4203
   17MOL   H36918321   3.690   5.021   2.949 -4.1748 -0.0291 -1.1832
   17MOL   H37018322   3.484   4.877   3.061  0.0551  0.6075 -1.9259
   17MOL   H37118323   3.498   5.002   3.186  0.2735  0.7470 -0.0034
   17MOL   H37218324   3.480   5.171   2.978  0.0256  0.4176  1.1639
   17MOL   H37318325   3.449   5.033   2.881 -0.0735  1.2360 -0.8368
   17MOL   H37418326   3.241   5.006   3.023 -0.6855 -0.0275  4.0734
   17MOL   H37518327   3.291   5.126   3.123 -1.2016  0.5631 -0.1453
   17MOL   H37618328   3.112   5.202   2.951  0.0088 -0.8903  0.7967
   17MOL   H37718329   3.220   5.148   2.825  1.8012 -0.6180  0.6146
   17MOL   H37818330   3.375   5.335   2.868 -1.4085 -1.8602  0.3420
   17MOL   H37918331   3.216   5.366   2.805 -1.3562  1.4714  0.4686
   17MOL   H38018332   3.149   5.570   2.908  0.3812  0.4882 -0.2307
   17MOL   H38118333   3.263   5.689   3.138 -0.8086  0.9474  0.8472
   17MOL   H38218334   3.121   5.607   3.194 -1.3037  2.8111  0.7480
   17MOL   H38318335   2.997   5.736   3.030  0.2143 -0.4688 -0.3275
   17MOL   H38418336   3.140   5.807   2.962 -0.4711  0.4827  0.4554
   17MOL   H38518337   3.085   5.831   3.265  0.7422  0.0723 -0.1807
   17MOL   H38618338   3.200   5.923   3.186 -0.7146  2.2213 -0.4026
   17MOL   H38718339   3.020   6.044   3.061 -1.8150 -0.7191 -0.3577
   17MOL   H38818340   2.889   5.946   3.108  1.2600 -1.1627 -1.1850
   17MOL   H38918341   3.057   6.123   3.279  0.5941 -0.6198  0.4868
   17MOL   H39018342   2.946   6.011   3.353 -1.9575 -0.6194 -0.7515
   17MOL   H39118343   2.832   6.226   3.332 -3.2917  1.0478 -1.1480
   17MOL   H39218344   2.864   6.245   3.168  1.5410  0.5833  0.5336
   17MOL   H39318345   2.704   6.030   3.312  0.6181 -0.0873 -0.2575
   17MOL   C39418346   2.606   6.137   3.171 -0.8320 -0.0545 -0.1080
   17MOL   O39518347   2.605   6.220   3.079  0.0278 -0.4320 -0.0962
   17MOL   C39618348   2.471   6.080   3.211  0.1292  0.2881  0.2602
   17MOL   C39718349   2.354   6.124   3.128  0.1969  0.3502  0.2248
   17MOL   C39818350   2.220   6.056   3.171  0.5014  0.3836  0.1065
   17MOL   C39918351   2.096   6.102   3.095 -0.3662 -0.2211  0.1514
   17MOL   C40018352   2.061   6.253   3.126  0.2457  0.2881  0.2324
   17MOL   C40118353   1.928   6.295   3.065 -0.1388  0.2883  0.2529
   17MOL   C40218354   1.876   6.437   3.096  0.0162  0.6580 -0.1819
   17MOL   C40318355   1.960   6.548   3.036 -0.5537  0.8070 -0.2326
   17MOL   C40418356   1.903   6.689   3.077  0.5282 -0.0214  0.1414
   17MOL   C40518357   1.945   6.808   2.990  0.4207 -0.2856 -0.3311
   17MOL   C40618358   2.085   6.843   3.009 -0.5192  0.1277 -1.1256
   17MOL   O40718359   2.120   6.932   3.089  0.0070  0.0754 -0.3160
   17MOL   N40818360   2.163   6.782   2.923  0.2599  0.0587 -0.8398
   17MOL   C40918361   2.307   6.789   2.930  0.7065  0.3419  0.0951
   17MOL   C41018362   2.357   6.682   2.837  0.6592  0.4383  0.0352
   17MOL   C41118363   2.308   6.539   2.876  0.4001 -0.3681 -0.1103
   17MOL   C41218364   2.348   6.431   2.777  0.3397  0.6401  0.6234
   17MOL   C41318365   2.287   6.295   2.805  0.2106 -0.3685 -0.1542
   17MOL   C41418366   2.357   6.172   2.735  0.3682  0.5868  0.2015
   17MOL   N41518367   2.277   6.053   2.745  0.2355  0.1664  0.2545
   17MOL   H41618368   2.454   6.111   3.314 -1.6811  1.1620 -0.3014
   17MOL   H41718369   2.475   5.971   3.210 -1.2891  0.2201  0.7685
   17MOL   H41818370   2.381   6.108   3.024 -1.1522 -1.4682  0.1238
   17MOL   H41918371   2.342   6.231   3.145 -0.8383  0.3888 -0.6789
   17MOL   H42018372   2.208   6.077   3.278  0.7714  0.9774  0.0266
   17MOL   H42118373   2.232   5.948   3.173  0.8179  0.4070 -0.4675
   17MOL   H42218374   2.017   6.030   3.116 -0.5072  0.0023  0.3871
   17MOL   H42318375   2.128   6.073   2.995 -1.8835 -2.6195  0.3317
   17MOL   H42418376   2.043   6.256   3.233  1.4432 -0.6994  0.4715
   17MOL   H42518377   2.147   6.316   3.105  0.6924 -0.7932 -1.2188
   17MOL   H42618378   1.931   6.272   2.958 -0.3981  1.7593 -0.0837
   17MOL   H42718379   1.853   6.223   3.099  0.9804 -0.5702  0.9331
   17MOL   H42818380   1.768   6.450   3.083 -0.1380 -0.7208 -0.2897
   17MOL   H42918381   1.887   6.447   3.204 -2.2423 -0.2725  0.1739
   17MOL   H43018382   2.060   6.535   3.077 -0.1171 -0.4424 -1.6535
   17MOL   H43118383   1.962   6.545   2.927 -2.0090  0.5494 -0.2657
   17MOL   H43218384   1.912   6.710   3.183 -2.2702  0.0019  0.3971
   17MOL   H43318385   1.796   6.679   3.057 -0.1233  0.1450  3.3942
   17MOL   H43418386   1.920   6.783   2.887 -1.4067  3.2242 -0.8351
   17MOL   H43518387   1.882   6.895   3.011 -0.2905  0.4346 -4.7766
   17MOL   H43618388   2.125   6.719   2.854 -0.5925 -0.6432  0.2510
   17MOL   H43718389   2.358   6.793   3.026  1.4428  0.8839 -0.3105
   17MOL   H43818390   2.341   6.883   2.886 -1.1233 -0.1228 -2.4323
   17MOL   H43918391   2.466   6.674   2.831  0.7464  1.0668  0.7199
   17MOL   H44018392   2.318   6.705   2.738 -1.3090  0.4661  0.8046
   17MOL   H44118393   2.357   6.509   2.969 -0.6399  1.6888  1.1365
   17MOL   H44218394   2.200   6.537   2.886  0.2968  1.2961 -0.8402
   17MOL   H44318395   2.326   6.459   2.674  1.4846 -0.7625 -0.0151
   17MOL   H44418396   2.456   6.421   2.786  0.3827 -0.9030 -1.3512
   17MOL   H44518397   2.299   6.265   2.909  1.3175 -0.2110 -0.2328
   17MOL   H44618398   2.179   6.306   2.793  0.2133  0.1266  0.2754
   17MOL   H44718399   2.383   6.178   2.629  0.1030  0.7161  0.1415
   17MOL   H44818400   2.449   6.154   2.789  0.2188 -3.6851 -0.7518
   17MOL   H44918401   2.185   6.051   2.787 -0.1113  2.7234 -0.2955
   17MOL   C45018402   2.309   5.937   2.685  0.1787  0.0068  0.1693
   17MOL   O45118403   2.412   5.920   2.619  0.0038 -0.3509 -0.3839
   17MOL   C45218404   2.196   5.833   2.685 -0.5632  0.1073 -0.3392
   17MOL   C45318405   2.220   5.720   2.791 -1.3013  0.1169 -0.7653
   17MOL   C45418406   2.172   5.745   2.935  0.2317  0.2027  0.3715
   17MOL   C45518407   2.245   5.665   3.050 -0.1157 -0.0631 -0.2693
   17MOL   C45618408   2.224   5.511   3.037  0.1026  0.2382  0.0219
   17MOL   C45718409   2.299   5.415   3.135  0.0505  0.4544 -0.0485
   17MOL   C45818410   2.295   5.269   3.098 -0.0425  0.0735  0.3023
   17MOL   C45918411   2.381   5.189   3.194 -0.2366  0.0852  0.8700
   17MOL   C46018412   2.377   5.038   3.168  0.3852 -0.0097  0.1625
   17MOL   C46118413   2.501   4.971   3.240  0.0898  0.1903  0.6747
   17MOL   C46218414   2.639   4.988   3.166  0.4987 -0.0382 -0.2951
   17MOL   O46318415   2.715   5.076   3.213 -0.1000  0.0926  0.8981
   17MOL   N46418416   2.667   4.901   3.071  0.1728  0.4424 -1.0829
   17MOL   C46518417   2.803   4.872   3.041  0.7474  0.5386  0.0898
   17MOL   C46618418   2.833   4.940   2.904  0.6090 -0.5939 -0.9550
   17MOL   C46718419   2.968   4.896   2.843 -0.6591 -0.7460 -0.3874
   17MOL   C46818420   2.988   4.975   2.710  0.7503  0.0436 -0.5266
   17MOL   C46918421   3.114   4.952   2.636  0.2072  0.5631  0.2392
   17MOL   C47018422   3.115   5.009   2.488 -0.9067  0.1062  0.9114
   17MOL   N47118423   3.205   4.933   2.399  0.4133 -0.5051 -0.6807
   17MOL   H47218424   2.099   5.880   2.705 -0.8947  0.1300 -1.9254
   17MOL   H47318425   2.196   5.794   2.583  1.3996  2.2035 -1.1764
   17MOL   H47418426   2.329   5.712   2.798 -1.2886  0.5922 -0.3825
   17MOL   H47518427   2.190   5.620   2.761 -2.9796  0.2556  0.4311
   17MOL   H47618428   2.063   5.739   2.940  0.2427 -1.1426 -0.8533
   17MOL   H47718429   2.187   5.851   2.955 -2.4226  0.8075 -0.6544
   17MOL   H47818430   2.204   5.705   3.143  1.7607  0.4013  0.3752
   17MOL   H47918431   2.348   5.699   3.064  0.0402  0.2088 -2.0045
   17MOL   H48018432   2.261   5.486   2.937  0.9841 -2.7961  1.0730
   17MOL   H48118433   2.116   5.504   3.039  0.1121 -0.0660 -0.5757
   17MOL   H48218434   2.254   5.432   3.233  0.9242  1.1076  0.2466
   17MOL   H48318435   2.402   5.450   3.132  0.7622 -1.6269 -0.9334
   17MOL   H48418436   2.189   5.248   3.107 -0.0332 -0.4428 -0.6983
   17MOL   H48518437   2.329   5.258   2.995 -1.3810  1.4512 -0.2983
   17MOL   H48618438   2.485   5.221   3.181  0.0139 -1.5952 -1.5236
   17MOL   H48718439   2.351   5.208   3.297 -2.1863  0.9703  0.1613
   17MOL   H48818440   2.381   5.021   3.060  1.9144 -0.5396  0.2985
   17MOL   H48918441   2.283   4.992   3.198 -0.6847 -0.0434 -3.0596
   17MOL   H49018442   2.504   4.999   3.345  0.1084 -0.2230  0.7819
   17MOL   H49118443   2.480   4.864   3.239 -0.0894  0.2268  0.3556
   17MOL   H49218444   2.600   4.838   3.028 -0.3514  0.8526 -0.8807
   17MOL   H49318445   2.831   4.766   3.034  0.6162  0.4177  1.3041
   17MOL   H49418446   2.871   4.908   3.118  1.1123  1.5057 -0.6765
   17MOL   H49518447   2.745   4.923   2.842 -1.6432  2.2926  1.3304
   17MOL   H49618448   2.845   5.044   2.933  1.7105 -0.3329 -2.3131
   17MOL   H49718449   2.978   4.791   2.815  2.5524 -0.6499  0.2412
   17MOL   H49818450   3.056   4.930   2.896 -1.2431  1.1158 -0.5453
   17MOL   H49918451   2.979   5.082   2.731  1.9250  0.3633 -1.5651
   17MOL   H50018452   2.904   4.940   2.650  0.9046 -0.8660 -0.2099
   17MOL   H50118453   3.196   4.987   2.700  0.8070  0.4215 -0.4462
   17MOL   H50218454   3.120   4.843   2.634  0.7373  0.5391  1.8002
   17MOL   H50318455   3.020   5.005   2.435 -0.7840  0.9213  0.6300
   17MOL   H50418456   3.148   5.113   2.490 -1.4041  0.3581 -2.0385
   17MOL   H50518457   3.280   4.888   2.450 -0.2940 -2.0027 -0.9297
   17MOL   C50618458   3.176   4.904   2.275  0.5562  0.4153  0.2863
   17MOL   O50718459   3.091   4.967   2.210 -0.2878 -0.0153 -0.6839
   17MOL   C50818460   3.238   4.775   2.221  0.3065  0.1310 -0.0599
   17MOL   C50918461   3.152   4.716   2.112  0.6847 -0.2059  0.0364
   17MOL   C51018462   3.191   4.571   2.076  0.2711  0.1205 -0.3096
   17MOL   C51118463   3.105   4.507   1.974  0.8794 -0.0796 -0.7212
   17MOL   C51218464   3.144   4.364   1.945 -0.1949  0.4660 -0.0921
   17MOL   C51318465   3.060   4.306   1.837  0.4192 -0.9038 -0.8464
   17MOL   C51418466   3.073   4.158   1.818 -0.3638  0.7535 -0.3816
   17MOL   C51518467   3.021   4.109   1.684 -0.0153  0.8987  0.2341
   17MOL   C51618468   2.864   4.112   1.675  1.2690  0.5713  0.3841
   17MOL   C51718469   2.813   4.070   1.536 -0.3253  0.2609 -0.2672
   17MOL   C51818470   2.831   4.178   1.428  0.1361 -0.1549 -0.2547
   17MOL   O51918471   2.730   4.243   1.407  0.0083 -0.1409 -0.4530
   17MOL   N52018472   2.948   4.200   1.371  0.0762 -0.1055 -0.6039
   17MOL   C52118473   2.988   4.313   1.279  0.2186 -0.5393 -0.3167
   17MOL   C52218474   2.978   4.453   1.342  0.3879  0.2708  0.1394
   17MOL   C52318475   3.013   4.569   1.248 -0.1184  0.6235  0.1232
   17MOL   C52418476   3.037   4.705   1.317  0.5695  0.2486 -0.4874
   17MOL   C52518477   3.102   4.803   1.217 -0.4418  0.6136  0.4459
   17MOL   C52618478   3.088   4.948   1.266  0.0894  0.0225 -0.2693
   17MOL   N52718479   2.949   4.991   1.268  0.6671 -0.2704  0.4846
   17MOL   H52818480   3.256   4.706   2.303 -1.6087 -1.6471 -1.0719
   17MOL   H52918481   3.324   4.801   2.159  0.7728 -2.1436 -0.3917
   17MOL   H53018482   3.155   4.782   2.025  2.2446  0.3000  0.4538
   17MOL   H53118483   3.047   4.724   2.139  0.6702 -0.4292  0.0479
   17MOL   H53218484   3.182   4.501   2.160  2.4936 -0.9264 -0.9064
   17MOL   H53318485   3.296   4.556   2.055  0.3326  0.4510 -0.2399
   17MOL   H53418486   3.003   4.507   2.012  0.8813  4.5174 -0.3990
   17MOL   H53518487   3.110   4.566   1.883 -2.9126  0.9866 -0.3262
   17MOL   H53618488   3.244   4.359   1.903  0.0660  0.2032  0.5528
   17MOL   H53718489   3.162   4.299   2.031  0.0722  1.7194  0.8150
   17MOL   H53818490   2.954   4.320   1.857  0.3613 -0.8275 -1.1942
   17MOL   H53918491   3.081   4.371   1.752 -0.1092  1.4571  0.7870
   17MOL   H54018492   3.176   4.131   1.839  0.3074  4.4128  1.3771
   17MOL   H54118493   3.005   4.119   1.894  1.3088 -0.2879  0.6289
   17MOL   H54218494   3.050   4.178   1.605 -1.2185  0.6973 -0.4010
   17MOL   H54318495   3.044   4.006   1.657  0.0948  0.9814  0.0015
   17MOL   H54418496   2.820   4.206   1.707  0.4711  0.3574 -0.0867
   17MOL   H54518497   2.819   4.043   1.747  0.2174  1.2976  0.4290
   17MOL   H54618498   2.871   3.983   1.504 -0.4254  0.6153 -1.4252
   17MOL   H54718499   2.708   4.044   1.536 -0.2126 -0.4470  3.5344
   17MOL   H54818500   3.023   4.135   1.391  0.0209  0.4068  1.4578
   17MOL   H54918501   2.944   4.311   1.180  1.9963 -1.4837 -1.1161
   17MOL   H55018502   3.093   4.296   1.253  0.3275 -1.0483  0.4368
   17MOL   H55118503   3.022   4.453   1.442 -0.1873  0.8375  0.3995
   17MOL   H55218504   2.873   4.460   1.369  0.8361 -0.3575  2.1203
   17MOL   H55318505   2.938   4.573   1.169 -0.7638 -0.4154  0.6820
   17MOL   H55418506   3.104   4.548   1.191 -0.2213  1.6419 -0.4259
   17MOL   H55518507   3.101   4.688   1.404  0.4684 -0.6760 -0.5912
   17MOL   H55618508   2.943   4.743   1.356  1.3653  1.7251  0.0703
   17MOL   H55718509   3.206   4.777   1.197 -0.0826  0.1198  2.8053
   17MOL   H55818510   3.076   4.805   1.111  0.4363  0.2094  0.2163
   17MOL   H55918511   3.132   4.956   1.365  0.3990 -1.8595 -0.2421
   17MOL   H56018512   3.149   5.015   1.206  0.7890  1.9489  2.4738
   17MOL   H56118513   2.912   5.013   1.177 -0.7991 -0.3403  1.0474
   17MOL   C56218514   2.875   5.022   1.376 -0.0243 -0.7555  0.5894
   17MOL   O56318515   2.918   5.013   1.487  0.1803 -0.3730 -0.2583
   17MOL   C56418516   2.736   5.084   1.356 -0.5227 -0.2519 -0.3770
   17MOL   C56518517   2.635   5.062   1.469 -0.8482 -0.4323  0.8826
   17MOL   C56618518   2.491   5.095   1.426  0.5637 -0.0543 -0.3134
   17MOL   C56718519   2.389   5.090   1.536 -0.0101  0.1917 -0.1532
   17MOL   C56818520   2.338   4.946   1.565  0.1138  0.5488  0.3600
   17MOL   C56918521   2.184   4.932   1.589  0.7878 -0.4783 -0.1196
   17MOL   C57018522   2.145   4.794   1.642  0.4673 -0.4959 -0.1616
   17MOL   C57118523   2.212   4.736   1.776 -0.1223  0.4158 -0.1327
   17MOL   C57218524   2.197   4.835   1.898 -0.4780  0.5131  0.5438
   17MOL   C57318525   2.324   4.893   1.955  0.1291  0.2309 -0.1495
   17MOL   C57418526   2.305   4.964   2.081  0.2205 -0.4346  0.3306
   17MOL   O57518527   2.199   5.019   2.112  0.2790  0.0731 -0.2823
   17MOL   N57618528   2.408   4.969   2.170  0.0921  0.0133 -0.3866
   17MOL   C57718529   2.417   5.041   2.295 -0.0290 -1.2694  0.4181
   17MOL   C57818530   2.476   5.176   2.279  0.0484  0.2044  0.9961
   17MOL   C57918531   2.619   5.171   2.228 -0.4343 -0.9444  0.3982
   17MOL   C58018532   2.698   5.303   2.208 -0.1224 -0.0812  0.3302
   17MOL   C58118533   2.842   5.272   2.171 -0.4572  0.1437 -0.1948
   17MOL   C58218534   2.919   5.407   2.157 -0.5226  0.0045 -0.1490
   17MOL   N58318535   3.050   5.389   2.107 -0.1457  0.1032  0.2688
   17MOL   H58418536   2.745   5.191   1.333  1.2321  0.1017  1.7455
   17MOL   H58518537   2.700   5.024   1.273  1.5341  0.6391 -1.9783
   17MOL   H58618538   2.625   4.964   1.516 -1.9405 -0.4938  0.5444
   17MOL   H58718539   2.651   5.124   1.557  0.5840 -1.1925  1.1781
   17MOL   H58818540   2.454   5.041   1.339 -2.7385 -1.7917  2.0573
   17MOL   H58918541   2.494   5.198   1.393 -2.2614  0.2771  0.3735
   17MOL   H59018542   2.434   5.132   1.626 -1.0940  1.7854 -0.3283
   17MOL   H59118543   2.303   5.151   1.510 -0.2112 -0.8031 -1.9073
   17MOL   H59218544   2.385   4.871   1.501  1.7224  1.8119  0.0241
   17MOL   H59318545   2.394   4.921   1.655  0.5569 -0.5791 -0.2050
   17MOL   H59418546   2.148   5.008   1.658 -1.1437  1.1234 -2.8072
   17MOL   H59518547   2.124   4.966   1.505  0.8630  1.3112  0.5404
   17MOL   H59618548   2.037   4.793   1.660  0.1016  2.6881 -1.8730
   17MOL   H59718549   2.162   4.719   1.564  0.4061  0.5491 -1.1988
   17MOL   H59818550   2.316   4.708   1.758 -0.0047  1.2272 -0.7897
   17MOL   H59918551   2.159   4.642   1.789 -0.6871  0.8489  0.6990
   17MOL   H60018552   2.146   4.768   1.966  0.1477  0.5564  1.0505
   17MOL   H60118553   2.126   4.915   1.874  0.6554  1.5545  0.5925
   17MOL   H60218554   2.403   4.819   1.961 -0.0827  0.0991  1.2032
   17MOL   H60318555   2.373   4.955   1.881  0.5441 -1.5160 -1.3778
   17MOL   H60418556   2.486   4.909   2.148 -0.8890 -1.4491  0.0331
   17MOL   H60518557   2.476   4.992   2.373  0.1077 -0.7058  0.6735
   17MOL   H60618558   2.318   5.043   2.342 -1.2495 -0.4877 -2.1007
   17MOL   H60718559   2.485   5.244   2.364 -3.1139  1.5224  0.3770
   17MOL   H60818560   2.413   5.235   2.212  0.5549  0.7332  0.9904
   17MOL   H60918561   2.617   5.122   2.131 -0.7898  0.1862 -0.1728
   17MOL   H61018562   2.674   5.106   2.296 -0.3234 -1.0239  0.2330
   17MOL   H61118563   2.644   5.364   2.136 -1.4142  0.7325  1.9593
   17MOL   H61218564   2.692   5.367   2.296  1.1857 -0.9931  1.1054
   17MOL   H61318565   2.836   5.207   2.084 -0.9017 -0.8019  0.5407
   17MOL   H61418566   2.894   5.217   2.250 -2.5299 -0.3588  0.8485
   17MOL   H61518567   2.867   5.473   2.086 -1.2046 -0.9839 -0.5797
   17MOL   H61618568   2.931   5.466   2.248  1.3906  1.1628 -1.1083
   17MOL   H61718569   3.059   5.379   2.007  0.6130 -2.5866  0.5704
   17MOL   C61818570   3.164   5.398   2.179 -0.7157 -0.4538  0.5641
   17MOL   O61918571   3.163   5.419   2.301  0.2136 -0.2429  0.7244
   17MOL   C62018572   3.292   5.350   2.114  0.0157  0.5811 -0.3359
   17MOL   C62118573   3.346   5.221   2.172  0.0294 -0.6504 -0.2320
   17MOL   C62218574   3.475   5.162   2.110  0.1831 -0.1167  0.3371
   17MOL   C62318575   3.590   5.253   2.126 -0.1257  0.7514  0.6322
   17MOL   C62418576   3.692   5.243   2.011  0.4584 -0.1961  0.0364
   17MOL   C62518577   3.795   5.352   2.011 -0.3399  0.3807  0.6145
   17MOL   C62618578   3.901   5.336   1.897 -0.0711  0.1348 -0.5698
   17MOL   C62718579   3.847   5.341   1.752  0.3893  0.2425  0.1609
   17MOL   C62818580   3.944   5.408   1.655 -0.8918  0.5129 -0.4911
   17MOL   C62918581   3.871   5.427   1.526 -0.9238 -0.0057 -0.8282
   17MOL   C63018582   3.790   5.558   1.508 -0.8703  0.2366  0.4310
   17MOL   O63118583   3.833   5.659   1.562 -0.2084 -0.4420 -0.0156
   17MOL   N63218584   3.684   5.555   1.430 -0.1614 -0.9490  0.1744
   17MOL   C63318585   3.605   5.673   1.389  0.5012  0.3421 -0.1420
   17MOL   C63418586   3.598   5.672   1.236 -0.2081  0.5269 -0.3404
   17MOL   C63518587   3.501   5.779   1.182  0.4096  0.0306 -0.0778
   17MOL   C63618588   3.355   5.772   1.221 -0.7858 -0.3623 -0.4561
   17MOL   C63718589   3.270   5.893   1.175  0.4138 -0.0536  0.6107
   17MOL   C63818590   3.120   5.864   1.209 -0.0070  0.6250  0.3234
   17MOL   N63918591   3.091   5.894   1.350  0.0737  0.0151  0.4139
   17MOL   H64018592   3.364   5.432   2.118 -0.3255  0.8240  1.2809
   17MOL   H64118593   3.260   5.341   2.011 -1.8752  0.2774  0.2510
   17MOL   H64218594   3.272   5.142   2.162 -0.9663  0.3575 -0.8368
   17MOL   H64318595   3.359   5.227   2.280  1.5071  3.7624 -0.5556
   17MOL   H64418596   3.449   5.151   2.004 -0.0176 -0.1900  0.3939
   17MOL   H64518597   3.502   5.067   2.156  0.2303 -0.5193 -0.4978
   17MOL   H64618598   3.560   5.357   2.137 -0.4769  0.5233  1.8968
   17MOL   H64718599   3.642   5.238   2.221 -0.0787 -1.0473  0.3466
   17MOL   H64818600   3.744   5.147   2.010  0.8242  0.0020 -0.4300
   17MOL   H64918601   3.648   5.242   1.911 -2.2973  1.0114  1.2037
   17MOL   H65018602   3.846   5.360   2.107 -0.3750  0.9666  0.5837
   17MOL   H65118603   3.747   5.448   1.996  0.0560  0.3911 -0.5855
   17MOL   H65218604   3.984   5.407   1.907  3.2978 -3.6573 -0.3487
   17MOL   H65318605   3.953   5.242   1.918 -1.5225 -0.8217 -1.2083
   17MOL   H65418606   3.805   5.245   1.721 -0.5414  0.5154  0.5637
   17MOL   H65518607   3.764   5.411   1.758  0.1276 -0.2195  2.3837
   17MOL   H65618608   4.023   5.333   1.646 -1.0039  0.3923 -0.4604
   17MOL   H65718609   3.987   5.498   1.697 -0.2386 -0.1813  0.3442
   17MOL   H65818610   3.950   5.444   1.453  1.9547 -0.8339  1.9933
   17MOL   H65918611   3.812   5.341   1.495 -2.6034  0.3510  1.2578
   17MOL   H66018612   3.639   5.467   1.410 -0.0645 -0.4018 -2.6678
   17MOL   H66118613   3.508   5.652   1.435  1.0127  2.1490  1.8481
   17MOL   H66218614   3.640   5.771   1.420  1.1430 -0.6117  2.2088
   17MOL   H66318615   3.583   5.571   1.200 -0.3875  0.5005 -0.1917
   17MOL   H66418616   3.691   5.702   1.188 -0.1936 -0.8367 -1.1923
   17MOL   H66518617   3.548   5.874   1.207 -0.4833  1.0304 -2.0898
   17MOL   H66618618   3.495   5.773   1.074  1.3308 -0.3197 -0.1181
   17MOL   H66718619   3.336   5.758   1.327 -0.2099  4.1229  0.3542
   17MOL   H66818620   3.315   5.680   1.179  4.6203 -2.6105 -1.1445
   17MOL   H66918621   3.298   5.993   1.209 -0.3854  0.3421  0.1305
   17MOL   H67018622   3.274   5.886   1.067  2.9864  1.1326  0.5999
   17MOL   H67118623   3.042   5.910   1.148  2.2860  0.8604 -2.5484
   17MOL   H67218624   3.100   5.759   1.189  0.4945  0.4410  0.7655
   17MOL   H67318625   3.169   5.912   1.411 -0.8739  1.0599  1.3555
   17MOL   C67418626   2.967   5.879   1.406  0.1531 -0.3035  0.2375
   17MOL   O67518627   2.867   5.859   1.344  0.5885  0.0035  0.2610
   17MOL   C67618628   2.963   5.904   1.558  0.1563  0.3032 -0.2146
   17MOL   C67718629   2.852   5.990   1.617 -0.5811  0.0408  0.3751
   17MOL   C67818630   2.831   6.122   1.553 -0.2415 -0.1019  0.2692
   17MOL   C67918631   2.719   6.211   1.607 -0.3678  0.7755  0.4065
   17MOL   C68018632   2.709   6.350   1.540  0.5443 -0.5229 -0.1381
   17MOL   C68118633   2.834   6.439   1.561  0.3178 -0.2173 -0.1053
   17MOL   C68218634   2.830   6.563   1.486 -0.2564  0.6017  0.2277
   17MOL   C68318635   2.957   6.644   1.499  0.2889 -0.6254  0.3610
   17MOL   C68418636   2.944   6.767   1.401  0.1139 -0.5090 -0.0358
   17MOL   C68518637   3.059   6.869   1.410 -0.1325  0.4947  0.1525
   17MOL   C68618638   3.073   6.963   1.288 -0.3978 -1.1044 -0.3918
   17MOL   O68718639   2.995   6.969   1.193 -0.2852 -0.0966  0.2259
   17MOL   N68818640   3.187   7.036   1.293  0.3562 -0.3349 -0.3250
   17MOL   C68918641   3.214   7.142   1.206  0.3151 -0.3044  0.2429
   17MOL   C69018642   3.344   7.213   1.238 -0.2138  0.1371 -0.1261
   17MOL   C69118643   3.345   7.359   1.185  0.1870 -0.2127  0.6722
   17MOL   C69218644   3.477   7.438   1.221 -0.4334  0.3825  0.5232
   17MOL   C69318645   3.466   7.587   1.188  0.6904 -0.7998  0.6360
   17MOL   C69418646   3.590   7.677   1.207 -0.3521  0.0351  0.1522
   17MOL   N69518647   3.555   0.130   1.192 -1.4620 -0.4143 -0.3105
   17MOL   H69618648   3.063   5.940   1.583  0.7849 -1.9405  0.6444
   17MOL   H69718649   2.977   5.806   1.604  0.6165 -0.3652 -1.7309
   17MOL   H69818650   2.874   5.998   1.724 -2.8866  0.1361  0.8831
   17MOL   H69918651   2.756   5.942   1.598 -0.5351  0.6153 -1.3534
   17MOL   H70018652   2.932   6.164   1.557 -0.0713 -0.1736 -2.4696
   17MOL   H70118653   2.814   6.103   1.447  2.0020 -1.1212  0.0506
   17MOL   H70218654   2.745   6.223   1.712  2.1642  2.3486 -0.3601
   17MOL   H70318655   2.622   6.161   1.602 -0.4068  0.8825  0.0601
   17MOL   H70418656   2.637   6.411   1.595  3.8726  2.4643  1.0813
   17MOL   H70518657   2.682   6.334   1.436 -1.2779 -2.0624  0.5203
   17MOL   H70618658   2.850   6.459   1.667 -2.9860  3.0677 -0.1602
   17MOL   H70718659   2.926   6.383   1.541  0.9868  0.0168  2.1182
   17MOL   H70818660   2.822   6.540   1.380  1.6864  0.1147  0.1603
   17MOL   H70918661   2.743   6.626   1.503 -0.2705  1.3002 -2.2572
   17MOL   H71018662   2.963   6.693   1.596 -0.0124  2.0055 -0.8931
   17MOL   H71118663   3.041   6.575   1.494  1.1070  0.4810 -1.5019
   17MOL   H71218664   2.847   6.811   1.425 -0.3376 -2.1852  1.2971
   17MOL   H71318665   2.934   6.730   1.299 -4.4960  2.2728 -0.7593
   17MOL   H71418666   3.060   6.922   1.505  0.0105  1.7369 -0.5359
   17MOL   H71518667   3.156   6.822   1.426  0.8330  2.9134  1.6629
   17MOL   H71618668   3.241   7.020   1.377  0.8537  3.0489  0.0607
   17MOL   H71718669   3.192   7.121   1.101  1.1271 -0.2805  0.0706
   17MOL   H71818670   3.145   7.223   1.230 -0.3313 -0.2433 -1.7424
   17MOL   H71918671   3.429   7.156   1.198  0.6428  0.4693  1.1822
   17MOL   H72018672   3.363   7.230   1.344 -1.2775 -0.0598  0.0944
   17MOL   H72118673   3.336   7.368   1.077 -0.7301  2.4012  0.9367
   17MOL   H72218674   3.266   7.425   1.222  1.2007  2.4318 -1.7414
   17MOL   H72318675   3.553   7.387   1.162 -0.6588  0.4282  0.1888
   17MOL   H72418676   3.501   7.418   1.326  1.3632  3.0121  0.6699
   17MOL   H72518677   3.389   7.635   1.247 -1.4846 -0.2991 -2.5236
   17MOL   H72618678   3.421   7.593   1.089  0.7260  1.3694  0.7451
   17MOL   H72718679   3.631   7.667   1.307  3.5234 -1.5437 -1.4717
   17MOL   H72818680   3.676   7.646   1.148 -1.7427 -0.8946 -1.4559
   17MOL   H72918681   3.460   0.163   1.201 -0.3708  3.6042 -2.0786
   17MOL   C73018682   3.642   0.222   1.145 -0.4425  0.1828  0.4322
   17MOL   O73118683   3.758   0.189   1.109  0.3211  0.6998 -0.3200
   17MOL   C73218684   3.592   0.367   1.128 -0.4657  0.5047 -0.2188
   17MOL   C73318685   3.556   0.403   0.984  0.6283 -0.3283 -0.1684
   17MOL   C73418686   3.453   0.518   0.986  0.7003 -0.0325 -0.7475
   17MOL   C73518687   3.398   0.547   0.846  0.3616  0.0677 -0.3998
   17MOL   C73618688   3.277   0.647   0.842 -0.5873  0.0419 -0.2797
   17MOL   C73718689   3.233   0.678   0.696  1.0737 -0.3663  0.6057
   17MOL   C73818690   3.164   0.569   0.620 -0.1422 -0.8271  0.0286
   17MOL   C73918691   3.038   0.502   0.683  0.0604  0.3455 -1.0122
   17MOL   C74018692   2.921   0.597   0.705 -0.0588  0.6963  0.6311
   17MOL   C74118693   2.796   0.525   0.745 -0.1821  0.1912  0.3019
   17MOL   C74218694   2.774   0.517   0.897 -0.0475 -0.2747 -0.3252
   17MOL   O74318695   2.870   0.520   0.972 -0.1575  0.0842 -0.3025
   17MOL   N74418696   2.648   0.500   0.935 -0.1367  0.0743 -0.3381
   17MOL   C74518697   2.588   0.509   1.065  1.1024 -0.1007 -0.1034
   17MOL   C74618698   2.520   0.382   1.111 -0.6878  0.5613  0.3058
   17MOL   C74718699   2.450   0.413   1.245 -0.2577  0.5093 -0.1818
   17MOL   C74818700   2.345   0.304   1.279 -0.1669 -0.2063  0.1119
   17MOL   C74918701   2.299   0.315   1.424 -0.2485 -0.1688  0.7374
   17MOL   C75018702   2.180   0.213   1.454 -1.4501 -0.4327  0.4452
   17MOL   N75118703   2.128   0.243   1.587 -0.9621  0.2686 -0.1671
   17MOL   H75218704   3.667   0.442   1.152  0.0507  0.0719 -0.4714
   17MOL   H75318705   3.501   0.388   1.184  0.9130  1.4356  1.7205
   17MOL   H75418706   3.517   0.312   0.940  0.0666  0.1646 -0.6930
   17MOL   H75518707   3.647   0.415   0.925  1.2831 -1.9777  0.4539
   17MOL   H75618708   3.494   0.613   1.021 -1.4222  1.1551 -1.3647
   17MOL   H75718709   3.369   0.503   1.054 -0.5415  1.6571 -1.8744
   17MOL   H75818710   3.356   0.452   0.813  0.9970  0.1510 -1.4741
   17MOL   H75918711   3.478   0.572   0.777 -1.3676  1.1497 -2.0453
   17MOL   H76018712   3.303   0.744   0.884 -0.0863 -0.0894 -0.2810
   17MOL   H76118713   3.202   0.606   0.910  1.5077  1.7552  3.1586
   17MOL   H76218714   3.176   0.769   0.715  1.1977 -0.2769  0.5534
   17MOL   H76318715   3.326   0.704   0.645  0.0494  1.6219 -0.3126
   17MOL   H76418716   3.130   0.607   0.523  2.5184 -2.5775 -1.6677
   17MOL   H76518717   3.236   0.493   0.591  0.8094 -0.3561  1.1586
   17MOL   H76618718   3.015   0.412   0.627 -0.5801 -0.5135  0.5904
   17MOL   H76718719   3.065   0.456   0.778 -2.9350 -1.9215 -1.1922
   17MOL   H76818720   2.884   0.654   0.620  1.5970 -0.1111 -0.6560
   17MOL   H76918721   2.943   0.668   0.784 -0.6916  2.7225 -0.9859
   17MOL   H77018722   2.715   0.591   0.714 -0.1577 -0.6643 -1.6983
   17MOL   H77118723   2.777   0.432   0.691  0.1670 -0.0014  0.5077
   17MOL   H77218724   2.594   0.483   0.851  1.3959  0.3783 -1.4002
   17MOL   H77318725   2.535   0.604   1.077  2.0237  0.8199 -2.8923
   17MOL   H77418726   2.666   0.520   1.140 -1.3391  1.0851  2.3254
   17MOL   H77518727   2.591   0.300   1.111 -0.6421  0.5309 -2.5302
   17MOL   H77618728   2.442   0.351   1.041 -0.0885 -0.2758 -0.0027
   17MOL   H77718729   2.407   0.513   1.242 -1.0623  0.1375 -1.2698
   17MOL   H77818730   2.524   0.407   1.325 -0.5337 -1.0042 -0.0295
   17MOL   H77918731   2.261   0.327   1.213 -0.6115 -1.2776  0.2780
   17MOL   H78018732   2.381   0.202   1.264 -2.1005 -0.7926 -0.7414
   17MOL   H78118733   2.275   0.420   1.442  0.7786 -0.1298  1.9223
   17MOL   H78218734   2.381   0.295   1.492  0.4633 -0.8099 -0.2873
   17MOL   H78318735   2.108   0.225   1.374 -0.4269  1.3657 -0.2444
   17MOL   H78418736   2.221   0.112   1.460  1.2216  0.4975 -1.1253
   17MOL   H78518737   2.164   0.192   1.666  0.7225 -1.0770 -1.7769
   17MOL   C78618738   2.027   0.331   1.606 -0.4064  0.5235  0.1823
   17MOL   O78718739   1.971   0.381   1.506 -0.4558 -0.0673 -0.3355
   17MOL   C78818740   1.967   0.361   1.742  0.0418  0.2029  0.0692
   17MOL   C78918741   1.820   0.326   1.747 -0.3980  0.5598  0.1748
   17MOL   C79018742   1.767   0.363   1.888 -0.3389  0.0043 -0.5216
   17MOL   C79118743   1.614   0.335   1.892 -1.0278 -0.0018  0.1124
   17MOL   C79218744   1.594   0.187   1.921 -0.3951  0.8018 -0.1410
   17MOL   C79318745   1.459   0.160   1.994 -0.3045 -0.3371 -0.5314
   17MOL   C79418746   1.410   0.015   1.977 -1.0677 -0.3682  0.9777
   17MOL   C79518747   1.291   7.681   2.075  0.2576 -0.4069 -0.6041
   17MOL   C79618748   1.222   7.545   2.035 -0.2545 -0.2048  0.2622
   17MOL   C79718749   1.077   7.535   2.082 -0.2378 -0.5327 -0.7384
   17MOL   C79818750   1.043   7.394   2.089  0.4474  0.4473  0.3282
   17MOL   O79918751   1.002   7.336   1.986  0.1553  0.0172  0.4390
   17MOL   N80018752   1.047   7.325   2.208 -0.0160  0.0582  0.3164
   17MOL   C80118753   1.024   7.179   2.224 -0.6718  0.0252  0.2049
   17MOL   C80218754   1.148   7.108   2.283  0.4224 -0.4436 -0.4783
   17MOL   C80318755   1.144   6.954   2.260  0.0291 -0.6736 -0.0608
   17MOL   C80418756   1.267   6.891   2.327  0.3623 -0.4657  0.2471
   17MOL   C80518757   1.264   6.735   2.314 -0.2832  0.0932  0.2902
   17MOL   C80618758   1.379   6.663   2.396 -0.5239 -0.1703  0.2492
   17MOL   N80718759   1.401   6.525   2.351  0.4731 -0.0706 -0.8942
   17MOL   H80818760   1.982   0.466   1.765  1.5147  0.3070 -1.3566
   17MOL   H80918761   2.013   0.307   1.825 -0.1118 -0.8609 -0.5299
   17MOL   H81018762   1.767   0.387   1.674 -1.1894 -0.1303  0.1650
   17MOL   H81118763   1.803   0.220   1.726  0.8936  0.1241  1.2550
   17MOL   H81218764   1.784   0.469   1.904  1.3040 -0.2800 -0.2275
   17MOL   H81318765   1.809   0.304   1.970 -1.0699 -1.2571 -1.0326
   17MOL   H81418766   1.564   0.387   1.974 -0.9781 -0.3508  0.3676
   17MOL   H81518767   1.554   0.352   1.803 -1.9465  1.5464  0.9996
   17MOL   H81618768   1.601   0.136   1.825 -1.1835 -0.7468  0.6079
   17MOL   H81718769   1.667   0.143   1.989 -0.7595  0.6332  0.1437
   17MOL   H81818770   1.464   0.192   2.098  0.2392 -0.6814 -0.4530
   17MOL   H81918771   1.375   0.212   1.946  0.3848  1.4290  0.1191
   17MOL   H82018772   1.388   0.010   1.870 -2.0266  1.4414  1.0649
   17MOL   H82118773   1.497   7.645   2.000 -2.5681 -2.2317  1.7162
   17MOL   H82218774   1.324   0.006   2.177 -1.4608 -0.2694 -0.0598
   17MOL   H82318775   1.215   0.066   2.058 -1.6241 -1.4718  2.4734
   17MOL   H82418776   1.289   7.464   2.066 -0.0152 -0.3296 -0.5703
   17MOL   H82518777   1.217   7.535   1.927 -2.0367 -0.1440  0.3237
   17MOL   H82618778   1.065   7.586   2.178 -1.0681  0.9963 -1.6247
   17MOL   H82718779   1.004   7.588   2.021 -2.4033 -1.5045  0.9386
   17MOL   H82818780   1.094   7.364   2.288  0.6228 -1.5102  0.7122
   17MOL   H82918781   0.992   7.146   2.125  0.3627 -0.9763  0.2043
   17MOL   H83018782   0.936   7.157   2.284 -2.1090  0.5744 -1.6512
   17MOL   H83118783   1.127   7.103   2.389  2.6429  0.1032  0.0187
   17MOL   H83218784   1.247   7.149   2.262  1.0490 -0.8062  1.7123
   17MOL   H83318785   1.056   6.905   2.301 -0.0428 -1.5427 -1.2409
   17MOL   H83418786   1.142   6.941   2.152 -1.9333  1.4031 -0.3163
   17MOL   H83518787   1.265   6.908   2.435 -1.4353 -0.2966  0.1999
   17MOL   H83618788   1.361   6.917   2.278  1.2126 -1.3542  1.3734
   17MOL   H83718789   1.271   6.719   2.207  2.2986 -1.9010  0.7070
   17MOL   H83818790   1.170   6.696   2.354 -0.8139  2.3391  1.3456
   17MOL   H83918791   1.342   6.658   2.499 -0.6160 -0.6999  0.1946
   17MOL   H84018792   1.475   6.713   2.395 -0.4640 -0.2988 -0.2796
   17MOL   H84118793   1.382   6.452   2.418 -2.1015  2.3552  1.1320
   17MOL   C84218794   1.424   6.474   2.229  0.7250 -0.2657 -0.0070
   17MOL   O84318795   1.448   6.548   2.134  0.2577  0.4521  0.0419
   17MOL   C84418796   1.397   6.324   2.205 -0.9086  0.7079  0.1542
   17MOL   C84518797   1.398   6.279   2.060 -0.0780  0.3271 -0.3964
   17MOL   C84618798   1.247   6.310   2.011 -0.3689  0.2050  0.4385
   17MOL   C84718799   1.243   6.313   1.861 -0.2370  0.2330 -0.2140
   17MOL   C84818800   1.103   6.326   1.802 -0.3217 -0.0884 -0.4650
   17MOL   C84918801   1.093   6.311   1.649  0.1321  0.2316  0.9850
   17MOL   C85018802   0.957   6.372   1.606  0.7757 -0.1846 -0.0725
   17MOL   C85118803   0.891   6.304   1.481 -0.4241 -0.1068 -0.3730
   17MOL   C85218804   0.739   6.332   1.461  0.5780 -0.4460  0.0003
   17MOL   C85318805   0.661   6.247   1.564 -0.2051 -0.3611 -0.0562
   17MOL   C85418806   0.621   6.110   1.521  0.3625 -0.1125  1.0481
   17MOL   O85518807   0.688   6.043   1.440  0.3969  0.3812 -0.5943
   17MOL   N85618808   0.521   6.051   1.583  0.1410  0.3411 -0.3223
   17MOL   C85718809   0.476   5.909   1.572  0.0351  0.0954 -0.1514
   17MOL   C85818810   0.339   5.882   1.509 -0.7436 -0.6455 -0.1938
   17MOL   C85918811   0.304   5.735   1.530  0.3191 -0.6983  0.9295
   17MOL   C86018812   0.162   5.693   1.483 -0.1459 -0.5698  0.3654
   17MOL   C86118813   0.097   5.569   1.549  0.2654 -0.3486  0.0133
   17MOL   C86218814   7.648   5.513   1.492 -0.0079 -0.1630 -0.8585
   17MOL   N86318815   7.668   5.473   1.353  0.6448  0.5182 -0.6256
   17MOL   H86418816   1.306   6.284   2.249 -2.5031 -0.3635 -3.8730
   17MOL   H86518817   1.476   6.280   2.267 -1.1691  0.0397  0.0173
   17MOL   H86618818   1.416   6.171   2.056 -5.1716 -0.6954  0.5516
   17MOL   H86718819   1.476   6.317   1.995  0.9250 -3.0980 -1.3331
   17MOL   H86818820   1.174   6.248   2.063  0.1100 -1.5483 -0.9178
   17MOL   H86918821   1.216   6.409   2.044 -0.0566 -0.0445  1.4826
   17MOL   H87018822   1.279   6.215   1.829  1.1217  0.3869  0.7758
   17MOL   H87118823   1.310   6.388   1.818 -2.8656  2.3061 -0.7755
   17MOL   H87218824   1.040   6.253   1.853 -0.1046 -0.4736 -0.7457
   17MOL   H87318825   1.052   6.418   1.830 -0.6272 -0.1475 -0.8243
   17MOL   H87418826   1.170   6.355   1.586 -1.6511 -0.8107 -2.0393
   17MOL   H87518827   1.115   6.208   1.621 -0.3062  0.9740 -2.2078
   17MOL   H87618828   0.892   6.348   1.689  3.2981  0.8021  2.2708
   17MOL   H87718829   0.952   6.481   1.594 -3.5519 -0.2979 -0.0039
   17MOL   H87818830   0.906   6.196   1.490  1.2181  0.2801  2.1044
   17MOL   H87918831   0.930   6.336   1.385 -0.3715 -1.7130 -0.9012
   17MOL   H88018832   0.703   6.306   1.361 -0.1708  1.7138 -0.3107
   17MOL   H88118833   0.714   6.438   1.471  0.6612 -0.5549  1.4144
   17MOL   H88218834   0.728   6.234   1.649  2.4477  0.6438 -1.9291
   17MOL   H88318835   0.573   6.307   1.585 -1.4548 -2.1324 -0.1163
   17MOL   H88418836   0.474   6.112   1.648  0.6014  0.3463  0.0128
   17MOL   H88518837   0.480   5.877   1.676  0.6287 -0.9750 -0.5002
   17MOL   H88618838   0.547   5.846   1.520 -0.9887  0.2223 -1.7512
   17MOL   H88718839   0.339   5.904   1.402 -2.2374 -1.5712 -0.4008
   17MOL   H88818840   0.271   5.951   1.560  0.5062 -0.4617  1.2297
   17MOL   H88918841   0.336   5.712   1.632 -0.1892 -1.0182  1.0205
   17MOL   H89018842   0.381   5.682   1.473  0.2085 -0.5898  0.6827
   17MOL   H89118843   0.152   5.681   1.375  0.4018  2.7818 -0.1174
   17MOL   H89218844   0.094   5.774   1.511  1.2761  0.6652  0.3330
   17MOL   H89318845   0.177   5.495   1.542 -0.2755 -0.8264 -1.3750
   17MOL   H89418846   0.080   5.588   1.655  1.9750 -0.4005  0.3167
   17MOL   H89518847   7.604   5.436   1.555 -1.9493 -0.4776 -2.5464
   17MOL   H89618848   7.573   5.592   1.503 -1.3549 -1.3726 -1.2691
   17MOL   H89718849   0.066   5.429   1.334  0.3684  0.1277 -1.0486
   17MOL   C89818850   7.585   5.497   1.252  0.0462 -0.0688  0.6094
   17MOL   O89918851   7.472   5.530   1.278 -0.6656  0.1562 -0.0755
   17MOL   C90018852   7.635   5.472   1.113  0.6545 -0.4897 -0.5598
   17MOL   C90118853   7.534   5.483   0.999  0.7035 -0.4004 -0.4114
   17MOL   C90218854   7.432   5.366   0.980 -0.3685 -0.6164 -0.0517
   17MOL   C90318855   7.486   5.253   0.900 -0.2770 -0.1429 -0.1085
   17MOL   C90418856   7.381   5.145   0.867  0.3102 -0.3346  0.5984
   17MOL   C90518857   7.441   5.047   0.761 -0.4359 -0.4238 -0.0149
   17MOL   C90618858   7.374   4.908   0.750 -0.2526 -0.2780  0.3075
   17MOL   C90718859   7.400   4.836   0.615 -0.3189 -0.0036  0.6673
   17MOL   C90818860   7.324   4.710   0.604  0.4175  0.5500  0.2273
   17MOL   C90918861   7.349   4.625   0.482 -0.1478  0.1182 -0.2039
   17MOL   C91018862   7.280   4.673   0.354 -0.3322 -0.2067 -0.5297
   17MOL   O91118863   7.176   4.741   0.357  0.1679  0.1024  0.1464
   17MOL   N91218864   7.332   4.636   0.241 -0.5013  0.2212 -0.7527
   17MOL   C91318865   7.312   4.705   0.116  0.3361 -0.3370 -0.1891
   17MOL   C91418866   7.386   4.841   0.119 -0.0415  0.2118  0.7156
   17MOL   C91518867   7.537   4.838   0.155  0.3948  0.2892 -0.0321
   17MOL   C91618868   7.615   4.761   0.045  0.3519 -0.3227  0.0904
   17MOL   C91718869   0.079   4.763   0.046  0.0879 -0.1547 -0.4755
   17MOL   C91818870   0.139   4.669   7.632 -0.5127 -0.5539 -1.0001
   17MOL   N91918871   0.267   4.728   7.598  0.3185  0.3044 -0.3646
   17MOL   H92018872   0.018   5.551   1.100  0.6950 -0.6704 -1.4899
   17MOL   H92118873   7.681   5.373   1.107  0.9125 -0.4215  0.2563
   17MOL   H92218874   7.596   5.492   0.910  2.2866  0.1303  0.7259
   17MOL   H92318875   7.482   5.578   1.011  1.3302 -0.0249 -0.6448
   17MOL   H92418876   7.339   5.407   0.941 -1.6473 -2.2519  1.2071
   17MOL   H92518877   7.403   5.322   1.075 -2.1214 -1.8357 -1.1144
   17MOL   H92618878   7.523   5.284   0.802  1.7391  0.5596  0.8692
   17MOL   H92718879   7.575   5.207   0.942  0.0895 -1.3956 -2.1412
   17MOL   H92818880   7.295   5.176   0.808 -0.0452 -0.4426  1.0544
   17MOL   H92918881   7.329   5.115   0.957 -1.0235  0.3126  0.0492
   17MOL   H93018882   7.463   5.098   0.667 -1.3560  0.4773  0.2532
   17MOL   H93118883   7.545   5.037   0.793 -0.8143  0.2789  1.4687
   17MOL   H93218884   7.267   4.927   0.755 -0.2336 -0.3656  1.0646
   17MOL   H93318885   7.404   4.836   0.826  1.8373 -1.7879 -1.8650
   17MOL   H93418886   7.506   4.813   0.600 -0.3200  0.1622  0.4118
   17MOL   H93518887   7.369   4.905   0.536 -1.5440 -1.3473 -0.0345
   17MOL   H93618888   7.330   4.642   0.689 -0.3869 -0.4537 -0.4984
   17MOL   H93718889   7.221   4.745   0.599 -0.3254 -1.5440  0.2738
   17MOL   H93818890   7.455   4.611   0.462  0.1396  0.2983  1.1177
   17MOL   H93918891   7.305   4.526   0.495  2.0991 -0.6344  1.9633
   17MOL   H94018892   7.403   4.565   0.242  1.5163  2.2048  1.7195
   17MOL   H94118893   7.204   4.716   0.102  0.8727  3.5852 -1.9956
   17MOL   H94218894   7.332   4.637   0.034  2.1934 -0.9322  0.7469
   17MOL   H94318895   7.370   4.891   0.024  1.9078 -0.2775  0.1179
   17MOL   H94418896   7.344   4.913   0.190  1.1198 -0.0989  1.7366
   17MOL   H94518897   7.579   4.938   0.164 -2.5128  1.3849  2.1829
   17MOL   H94618898   7.554   4.783   0.248 -0.1372  0.5226  0.2034
   17MOL   H94718899   7.583   4.781   7.634 -1.2217 -1.6296  0.3061
   17MOL   H94818900   7.584   4.660   0.073  2.0271 -1.0450 -0.5909
   17MOL   H94918901   0.108   4.867   0.034  1.0831 -0.5945 -1.9440
   17MOL   H95018902   0.117   4.735   0.144  0.5339 -1.7914 -1.1033
   17MOL   H95118903   0.074   4.676   7.545 -0.4100 -0.8157 -1.0990
   17MOL   H95218904   0.137   4.566   7.668 -2.3517 -0.3002 -0.3356
   17MOL   H95318905   0.281   4.754   7.502 -0.6729 -0.7044 -0.7967
   17MOL   C95418906   0.370   4.745   7.685  0.8295  0.3507  0.2229
   17MOL   O95518907   0.369   4.715   0.110  0.0963 -0.2159 -0.0138
   17MOL   C95618908   0.499   4.795   7.617  0.0161  0.3057 -0.1888
   17MOL   C95718909   0.600   4.850   0.026  0.1761 -0.0089  0.0914
   17MOL   C95818910   0.705   4.944   7.653  0.6815 -0.0665 -0.0322
   17MOL   C95918911   0.821   4.959   0.057  0.4989  0.0360 -0.6765
   17MOL   C96018912   0.922   5.068   0.006  0.7689  0.0985 -0.5061
   17MOL   C96118913   1.050   5.088   0.088 -1.1345 -0.5525 -0.1124
   17MOL   C96218914   1.135   4.961   0.102  0.3043 -0.0825 -0.1178
   17MOL   C96318915   1.248   4.980   0.203 -0.1091  0.5154  0.0775
   17MOL   C96418916   1.330   4.853   0.249 -0.9175  0.3416  0.5222
   17MOL   C96518917   1.404   4.849   0.382 -0.5642 -0.0473 -0.0408
   17MOL   C96618918   1.496   4.969   0.407  0.1288 -1.0067  0.3820
   17MOL   O96718919   1.608   4.966   0.355 -0.7567  0.3004 -0.2779
   17MOL   N96818920   1.440   5.068   0.475 -0.0551  0.6322 -0.5099
   17MOL   C96918921   1.508   5.199   0.503  0.2065  0.5245 -0.2521
   17MOL   C97018922   1.580   5.208   0.634  0.1804  0.5781 -0.0251
   17MOL   C97118923   1.643   5.351   0.643 -0.2831  0.6248 -0.4534
   17MOL   C97218924   1.746   5.366   0.761 -0.3016 -0.6718 -0.6094
   17MOL   C97318925   1.827   5.495   0.762 -0.0091 -0.0491 -0.5995
   17MOL   C97418926   1.911   5.516   0.894  1.1968  0.3555 -0.2631
   17MOL   N97518927   1.999   5.406   0.939 -0.0716  0.0763  0.0723
   17MOL   H97618928   0.555   4.722   7.559 -0.6126  1.1848 -1.9594
   17MOL   H97718929   0.473   4.875   7.547  2.4441  1.5977  0.3169
   17MOL   H97818930   0.660   4.764   0.054  3.1801  2.1345  0.4181
   17MOL   H97918931   0.558   4.890   0.119 -0.0311 -1.1757  0.5095
   17MOL   H98018932   0.733   4.907   7.555 -0.1671 -2.1250  0.4758
   17MOL   H98118933   0.658   5.040   7.632 -2.0054 -1.0051  1.4149
   17MOL   H98218934   0.770   5.006   0.141  0.4828  2.1032 -1.8151
   17MOL   H98318935   0.866   4.863   0.081 -1.1182 -0.3852  0.7286
   17MOL   H98418936   0.955   5.040   7.598 -1.4450 -1.6487 -0.8110
   17MOL   H98518937   0.881   5.168   7.689  0.6972  0.4222  2.9508
   17MOL   H98618938   1.122   5.164   0.059  1.8000 -2.1689  2.5786
   17MOL   H98718939   1.024   5.112   0.192 -0.6294 -2.6067  0.5077
   17MOL   H98818940   1.076   4.882   0.147 -0.4424  0.0614 -0.8286
   17MOL   H98918941   1.177   4.924   0.008  0.3798  0.5567 -0.3382
   17MOL   H99018942   1.322   5.046   0.158 -0.0641  0.9378  0.7599
   17MOL   H99118943   1.211   5.043   0.284  0.5681 -1.5484  2.0402
   17MOL   H99218944   1.396   4.836   0.164 -2.2574 -0.8506 -0.3010
   17MOL   H99318945   1.268   4.763   0.247  1.6345 -1.4461 -0.2701
   17MOL   H99418946   1.335   4.856   0.466 -1.6248 -0.8397 -0.8402
   17MOL   H99518947   1.457   4.754   0.388 -0.5496 -0.2840 -3.0112
   17MOL   H99618948   1.351   5.057   0.522 -0.8563  0.7853 -1.9657
   17MOL   H99718949   1.426   5.270   0.494 -0.7204 -0.6221 -1.0665
   17MOL   H99818950   1.584   5.222   0.428  0.9281  1.6416  0.7999
   17MOL   H99918951   1.658   5.132   0.638 -1.0780 -0.6527  2.6601
   17MOL     H118952   1.513   5.183   0.717 -2.0258  2.1016 -1.3010
   17MOL     H218953   1.563   5.422   0.664 -1.4259 -1.0508  1.0580
   17MOL     H318954   1.691   5.368   0.546  0.5448  1.0741  0.0344
   17MOL     H418955   1.701   5.354   0.860  1.7328  3.9797  1.0096
   17MOL     H518956   1.815   5.282   0.750 -0.0596 -0.6663  0.7830
   17MOL     H618957   1.759   5.580   0.764  0.5114  0.3763 -0.8243
   17MOL     H718958   1.897   5.500   0.678  0.9812  2.0576  0.3130
   17MOL     H818959   1.963   5.611   0.887 -0.0855  0.9293 -2.8576
   17MOL     H918960   1.841   5.537   0.975 -1.9702  0.0062 -2.7981
   17MOL    H1018961   1.964   5.343   1.010  2.1282 -3.3792 -1.7801
   17MOL    C1118962   2.123   5.400   0.891  0.1436  0.6249 -0.1653
   17MOL    O1218963   2.161   5.476   0.800 -0.1925  0.1442 -0.3435
   17MOL    C1318964   2.217   5.289   0.943 -0.8957  0.7894  0.4043
   17MOL    C1418965   2.230   5.166   0.840  0.1976 -0.1167 -0.2261
   17MOL    C1518966   2.102   5.104   0.775 -0.4820  0.1099 -0.4107
   17MOL    C1618967   2.133   5.002   0.662 -0.2948  0.2909  0.0609
   17MOL    C1718968   2.014   4.958   0.572 -0.0043 -0.3468 -0.4289
   17MOL    C1818969   2.040   4.842   0.480  0.1249  0.1988 -0.1133
   17MOL    C1918970   2.152   4.862   0.376 -0.2127 -0.1216  0.8466
   17MOL    C2018971   2.199   4.736   0.303 -0.2291 -0.1654 -0.2966
   17MOL    C2118972   2.139   4.723   0.164  0.2473 -0.2930 -0.1177
   17MOL    C2218973   2.166   4.587   0.096  0.1737 -0.2709 -0.1364
   17MOL    C2318974   2.129   4.586   7.638 -0.3805  0.5624  0.2036
   17MOL    O2418975   2.203   4.642   7.554  0.3154 -0.0376  0.5286
   17MOL    N2518976   2.011   4.524   7.611  0.7493 -0.8784 -0.0773
   17MOL    C2618977   1.967   4.504   7.475 -0.0316  0.1655  0.0181
   17MOL    C2718978   1.818   4.506   7.458  0.2374  0.3419  0.0808
   17MOL    C2818979   1.778   4.468   7.314 -0.2445 -0.0982 -0.0317
   17MOL    C2918980   1.626   4.476   7.287  0.1009  0.0192  0.3927
   17MOL    C3018981   1.590   4.617   7.233 -0.3762  0.6633 -0.5155
   17MOL    C3118982   1.455   4.629   7.161 -0.0611 -0.4201 -0.7310
   17MOL    N3218983   1.446   4.763   7.110 -0.2138  0.0867  0.0691
   17MOL    H3318984   2.168   5.251   1.033  0.5132 -1.0003  0.4563
   17MOL    H3418985   2.310   5.338   0.973  0.7273 -1.9099 -0.0312
   17MOL    H3518986   2.285   5.081   0.879  1.3277  0.2540 -1.0026
   17MOL    H3618987   2.292   5.202   0.758 -0.6861  0.5947 -0.5907
   17MOL    H3718988   2.044   5.190   0.742 -0.4962 -0.5983 -2.2542
   17MOL    H3818989   2.039   5.068   0.857  0.5784  1.0152  0.8344
   17MOL    H3918990   2.208   5.050   0.599 -1.8259 -0.5836 -2.5477
   17MOL    H4018991   2.184   4.914   0.699  2.5099  1.1626 -1.5333
   17MOL    H4118992   1.926   4.928   0.628  1.8017 -1.3586  1.9714
   17MOL    H4218993   1.980   5.046   0.518 -1.7924 -1.3273 -0.9227
   17MOL    H4318994   2.064   4.753   0.539 -1.5472 -0.3496 -0.2398
   17MOL    H4418995   1.949   4.829   0.421 -0.0449  1.6575 -0.1801
   17MOL    H4518996   2.123   4.940   0.305 -0.3475 -1.0510 -0.1340
   17MOL    H4618997   2.234   4.907   0.432 -0.3456  1.4826 -0.2138
   17MOL    H4718998   2.305   4.752   0.284 -0.4305  0.7421 -0.6839
   17MOL    H4818999   2.184   4.649   0.367 -3.2325 -0.5716 -1.4703
   17MOL    H4919000   2.176   4.807   0.106  1.4532  0.4501  1.6862
   17MOL    H5019001   2.030   4.723   0.159  0.1106 -0.1908  2.2568
   17MOL    H5119002   2.274   4.576   0.095  0.0334 -2.1360  1.1829
   17MOL    H5219003   2.137   4.500   0.155 -0.3682 -0.0417 -0.0593
   17MOL    H5319004   1.960   4.470   7.679 -0.2837  0.4344  0.1937
   17MOL    H5419005   1.995   4.403   7.447  0.1771  0.4334 -0.7528
   17MOL    H5519006   2.019   4.572   7.407 -1.3915  0.1669 -1.0241
   17MOL    H5619007   1.787   4.610   7.469 -1.0459  0.1461 -1.5144
   17MOL    H5719008   1.766   4.441   7.529 -0.4797  0.3914 -0.3999
   17MOL    H5819009   1.811   4.367   7.290  1.6348  1.2341 -3.2540
   17MOL    H5919010   1.830   4.531   7.242 -0.2842  0.1043  0.1145
   17MOL    H6019011   1.566   4.463   7.377  1.7566 -3.6865  1.0749
   17MOL    H6119012   1.605   4.408   7.205 -1.8219 -2.0771  2.5275
   17MOL    H6219013   1.670   4.644   7.164 -1.6823  0.2740 -2.2133
   17MOL    H6319014   1.608   4.697   7.304 -2.8517  0.1520  0.7514
   17MOL    H6419015   1.369   4.596   7.220  0.2839 -0.5186 -0.2804
   17MOL    H6519016   1.457   4.563   7.074  1.0516  0.3001 -1.2624
   17MOL    H6619017   1.527   4.814   7.141 -1.0110  1.3230  0.1372
   17MOL    C6719018   1.333   4.824   7.065 -0.0785  0.0615 -0.5125
   17MOL    O6819019   1.230   4.754   7.046 -0.6205 -0.7350  0.0121
   17MOL    C6919020   1.328   4.975   7.048  0.2723  0.6514 -0.4497
   17MOL    C7019021   1.199   5.021   6.973 -0.7036  0.6274 -0.6814
   17MOL    C7119022   1.207   5.174   6.955 -0.0168  0.4871 -0.1034
   17MOL    C7219023   1.087   5.239   6.892  0.1626 -0.1950 -0.4775
   17MOL    C7319024   1.042   5.196   6.758 -0.2366  0.8928  0.1088
   17MOL    C7419025   0.927   5.279   6.711 -0.0849  0.4778  0.3192
   17MOL    C7519026   0.917   5.278   6.557  0.1853  1.0248 -0.3397
   17MOL    C7619027   0.858   5.404   6.498  0.0953 -0.6332  0.3927
   17MOL    C7719028   0.847   5.397   6.348  0.3875  1.3281  0.3304
   17MOL    C7819029   0.767   5.523   6.293 -0.2093 -0.3713  0.1657
   17MOL    C7919030   0.782   5.550   6.140  0.8135 -0.2711  0.3173
   17MOL    O8019031   0.894   5.547   6.087 -0.5380  0.6492  1.0584
   17MOL    N8119032   0.674   5.570   6.065 -0.1919 -0.6513  0.1557
   17MOL    C8219033   0.669   5.568   5.922  0.0847 -0.3301 -0.1287
   17MOL    C8319034   0.637   5.438   5.866 -0.2198 -0.4563  0.4600
   17MOL    C8419035   0.617   5.441   5.709  0.4022 -0.2953  0.1397
   17MOL    C8519036   0.482   5.498   5.662  0.0394  0.0896  0.9987
   17MOL    C8619037   0.496   5.545   5.508  0.2460  0.7048  0.1991
   17MOL    C8719038   0.350   5.594   5.455  0.2535  0.3903  0.1486
   17MOL    N8819039   0.360   5.658   5.326 -0.0597 -0.1259 -0.4276
   17MOL    H8919040   1.415   4.998   6.987  0.4808  4.1790  1.0452
   17MOL    H9019041   1.348   5.015   7.147  1.5035  0.6687 -0.7047
   17MOL    H9119042   1.191   4.976   6.874  0.4499  1.7733 -1.3161
   17MOL    H9219043   1.111   5.004   7.035  0.2679  0.6889  0.7119
   17MOL    H9319044   1.222   5.222   7.051 -0.1010  0.9672 -0.3283
   17MOL    H9419045   1.297   5.201   6.900 -0.0449  2.5205  0.8113
   17MOL    H9519046   1.001   5.222   6.955  0.6209 -0.8996 -0.0312
   17MOL    H9619047   1.101   5.346   6.903  0.7182 -0.0759 -2.1531
   17MOL    H9719048   1.123   5.201   6.686 -0.2125 -2.0833 -0.1274
   17MOL    H9819049   1.010   5.093   6.771  3.5674 -0.4187 -0.3762
   17MOL    H9919050   0.840   5.249   6.770 -1.9193  2.1585 -1.4256
   17MOL   H10019051   0.943   5.380   6.748  1.1719  1.6163 -3.1305
   17MOL   H10119052   0.865   5.191   6.517 -0.2195  0.4379  1.4277
   17MOL   H10219053   1.020   5.285   6.522  0.6637  2.2917  1.2852
   17MOL   H10319054   0.754   5.401   6.532  0.3903 -0.2199  1.3426
   17MOL   H10419055   0.917   5.490   6.531 -1.3155  0.6912 -0.4490
   17MOL   H10519056   0.797   5.306   6.314  0.8843  1.1014  0.2004
   17MOL   H10619057   0.950   5.397   6.312  0.5334  1.1440  0.7441
   17MOL   H10719058   0.661   5.511   6.313 -0.4148 -1.2485 -1.3786
   17MOL   H10819059   0.795   5.610   6.351  2.2963 -1.0800  0.0861
   17MOL   H10919060   0.585   5.591   6.106 -1.3274 -2.5093 -1.2870
   17MOL   H11019061   0.766   5.603   5.886  0.6247  0.1122  1.6673
   17MOL   H11119062   0.600   5.643   5.885  1.3858  1.2874  0.6199
   17MOL   H11219063   0.558   5.389   5.923  0.0035 -1.0743  0.2433
   17MOL   H11319064   0.722   5.372   5.885  0.1662 -0.5417 -1.5170
   17MOL   H11419065   0.625   5.335   5.683 -0.9212 -0.4154  0.1979
   17MOL   H11519066   0.702   5.492   5.665  0.9387 -0.2128  1.2680
   17MOL   H11619067   0.415   5.412   5.663 -0.8012  0.7497  1.8059
   17MOL   H11719068   0.446   5.579   5.725  2.5357  0.2227  2.3269
   17MOL   H11819069   0.564   5.630   5.512  0.6998  0.3560 -0.0584
   17MOL   H11919070   0.536   5.476   5.434  0.4608  0.5383  0.4735
   17MOL   H12019071   0.298   5.499   5.446  0.9480 -0.0288  0.4918
   17MOL   H12119072   0.295   5.645   5.534  2.1171  1.7394  0.6034
   17MOL   H12219073   0.454   5.645   5.294 -0.3134  0.3500 -1.3719
   17MOL   H12319074   0.341   5.757   5.332  1.4777  0.1857 -0.4619
   18MOL     C119075   5.691   6.870   6.082  0.4281  0.0187 -0.1620
   18MOL     O219076   5.804   6.829   6.110  0.2873 -0.1206 -0.1318
   18MOL     C319077   5.607   6.799   5.971 -0.6385 -0.2003 -0.5518
   18MOL     C419078   5.587   6.647   6.007 -0.4279 -0.0468  0.3912
   18MOL     C519079   5.488   6.633   6.128 -0.3704  0.1767 -0.2081
   18MOL     C619080   5.470   6.488   6.171  0.3573  0.1953  0.3110
   18MOL     C719081   5.599   6.416   6.225 -0.9520 -0.1056  0.5499
   18MOL     C819082   5.557   6.278   6.287  0.0622  0.2713 -0.5103
   18MOL     C919083   5.680   6.179   6.314 -0.4092  0.7579 -0.6977
   18MOL    C1019084   5.793   6.237   6.403  0.6710  0.3746  0.1473
   18MOL    C1119085   5.771   6.252   6.553  0.3077  0.7758  0.0445
   18MOL    C1219086   5.894   6.332   6.610  0.8116  0.3082  0.0713
   18MOL    C1319087   6.023   6.246   6.623  0.7478  0.4525 -0.2187
   18MOL    O1419088   6.026   6.134   6.667  0.3062  0.1818  0.2569
   18MOL    N1519089   6.136   6.303   6.579  0.1424  0.1564 -0.2409
   18MOL    C1619090   6.259   6.229   6.558  0.0229 -0.1279 -0.6437
   18MOL    C1719091   6.373   6.322   6.504 -0.2836 -0.1794 -0.4443
   18MOL    C1819092   6.412   6.427   6.615 -0.3497  0.4600 -0.5556
   18MOL    C1919093   6.529   6.499   6.564 -0.5595  0.1572  0.4651
   18MOL    C2019094   6.572   6.617   6.655 -0.2750 -0.4172  0.0956
   18MOL    C2119095   6.493   6.752   6.630 -1.1274  0.0148  0.5552
   18MOL    N2219096   6.351   6.751   6.663 -0.4793 -0.2312  0.2721
   18MOL    H2319097   5.652   6.799   5.872 -0.4132 -0.5892 -0.4518
   18MOL    H2419098   5.512   6.851   5.960  0.0283  1.4882  1.3296
   18MOL    H2519099   5.682   6.595   6.014 -1.1061 -1.4165 -0.2261
   18MOL    H2619100   5.540   6.602   5.919  2.3041 -1.0232 -0.6066
   18MOL    H2719101   5.390   6.664   6.092 -1.9931 -2.4193  1.8212
   18MOL    H2819102   5.518   6.692   6.215 -1.3363  1.3130 -0.6383
   18MOL    H2919103   5.392   6.488   6.247  0.1076  1.2060  0.0693
   18MOL    H3019104   5.428   6.436   6.086  0.8693 -1.2862  0.9363
   18MOL    H3119105   5.643   6.480   6.302 -0.5660  0.9533 -0.5495
   18MOL    H3219106   5.677   6.405   6.151  0.0621 -1.4501  1.7901
   18MOL    H3319107   5.494   6.276   6.375 -2.2667 -2.3072 -2.1493
   18MOL    H3419108   5.494   6.229   6.212  0.1108 -1.0782  0.3045
   18MOL    H3519109   5.662   6.085   6.366 -0.8460  0.8872 -0.6154
   18MOL    H3619110   5.730   6.165   6.218  0.9043 -1.2008  0.2379
   18MOL    H3719111   5.881   6.176   6.381  3.3244  3.0029  3.1040
   18MOL    H3819112   5.811   6.334   6.357  1.5794  0.9885  1.7673
   18MOL    H3919113   5.783   6.153   6.596  0.5351  0.5398 -0.5578
   18MOL    H4019114   5.673   6.292   6.579  0.5222 -0.5001  3.0081
   18MOL    H4119115   5.922   6.422   6.555 -0.5419  1.2501  0.8574
   18MOL    H4219116   5.869   6.353   6.714  0.8238 -0.9659  0.3376
   18MOL    H4319117   6.122   6.397   6.543  1.4795  0.6709  0.5637
   18MOL    H4419118   6.255   6.159   6.476 -0.3391 -1.7377  0.7184
   18MOL    H4519119   6.298   6.181   6.648 -0.3145 -0.8213 -0.8720
   18MOL    H4619120   6.345   6.375   6.413  1.6043 -2.0044 -2.1465
   18MOL    H4719121   6.464   6.264   6.488 -0.2511 -0.4214  0.5368
   18MOL    H4819122   6.333   6.500   6.631 -1.2113 -0.7118  0.7211
   18MOL    H4919123   6.438   6.375   6.707  1.0904  2.6620  0.3126
   18MOL    H5019124   6.510   6.527   6.460  2.9746 -1.5645 -0.7006
   18MOL    H5119125   6.612   6.430   6.558 -0.0248  0.8085  0.2812
   18MOL    H5219126   6.555   6.594   6.760 -1.5271  0.0395  0.0039
   18MOL    H5319127   6.680   6.632   6.657 -0.5410  1.5051  1.1588
   18MOL    H5419128   6.557   6.825   6.679 -0.8109 -0.3604  0.6986
   18MOL    H5519129   6.509   6.778   6.525 -1.0222 -0.5665  0.4272
   18MOL    H5619130   6.284   6.747   6.587 -0.6540 -1.7405  0.4898
   18MOL    H5719131   5.638   6.952   6.130 -0.5682 -1.1061  0.7159
   18MOL    C5819132   6.301   6.758   6.786  0.1563  0.1405  0.0505
   18MOL    O5919133   6.374   6.752   6.884 -0.1710 -0.4600  0.2378
   18MOL    C6019134   6.150   6.775   6.806  0.5556  0.8901  0.0647
   18MOL    C6119135   6.127   6.866   6.928 -0.2173 -0.9771 -0.3415
   18MOL    C6219136   5.992   6.939   6.898  0.2343 -0.4773  0.0344
   18MOL    C6319137   5.959   7.047   7.000  0.6315 -1.0408 -0.0232
   18MOL    C6419138   5.827   7.116   6.979  0.0817 -0.4954  0.2703
   18MOL    C6519139   5.818   7.245   7.065  0.5774  0.2149  0.0725
   18MOL    C6619140   5.669   7.290   7.079  0.0874  0.2849 -0.0389
   18MOL    C6719141   5.652   7.430   7.148 -0.2881  0.0070 -0.3115
   18MOL    C6819142   5.505   7.464   7.180 -0.6321  0.1155  0.5107
   18MOL    C6919143   5.481   7.589   7.268 -0.4351 -0.7948 -0.1499
   18MOL    C7019144   5.333   7.621   7.292 -0.5246  0.0313  0.1410
   18MOL    O7119145   5.254   7.565   7.213  0.2148 -0.1918 -0.5509
   18MOL    N7219146   5.298   0.013   7.392  0.5867 -0.0146  0.0713
   18MOL    C7319147   5.161   0.072   7.390  0.3342 -0.6512  0.0292
   18MOL    C7419148   5.119   0.108   7.536  0.5287 -0.3579 -0.3493
   18MOL    C7519149   4.977   0.161   7.532 -0.2251  0.4505  0.4223
   18MOL    C7619150   4.917   0.191   7.673  0.3473 -0.3087 -0.5446
   18MOL    C7719151   4.913   0.340   0.022  0.0607  0.6253  0.1758
   18MOL    C7819152   4.867   0.358   0.165  0.0839  0.1499  0.7449
   18MOL    N7919153   4.871   0.497   0.212 -0.3035  0.4421  0.1889
   18MOL    H8019154   6.104   6.684   6.844  0.5308  0.8909  0.0351
   18MOL    H8119155   6.099   6.818   6.720  2.2794  2.9131 -0.0069
   18MOL    H8219156   6.114   6.818   7.025 -1.0826 -0.9148 -0.4231
   18MOL    H8319157   6.208   6.937   6.943 -0.0264 -0.5206 -3.2102
   18MOL    H8419158   5.919   6.858   6.899  1.1570 -1.3159  0.8184
   18MOL    H8519159   5.993   6.980   6.797  1.9101  1.4338  0.7951
   18MOL    H8619160   6.035   7.124   6.988 -1.2472  1.3508  2.8397
   18MOL    H8719161   5.967   7.012   7.103  0.5587 -2.6953 -0.5631
   18MOL    H8819162   5.814   7.131   6.872 -2.2937  0.0754  0.6134
   18MOL    H8919163   5.753   7.042   7.008 -0.3383 -0.5008 -0.7714
   18MOL    H9019164   5.877   7.322   7.015  2.1856 -1.1452 -0.2047
   18MOL    H9119165   5.863   7.227   7.163 -1.6650 -1.1778  0.8932
   18MOL    H9219166   5.614   7.226   7.149 -0.4946 -2.7241 -3.1171
   18MOL    H9319167   5.621   7.272   6.982  0.7707  0.2315 -0.3688
   18MOL    H9419168   5.718   7.429   7.235 -1.2267 -0.7721  0.4120
   18MOL    H9519169   5.691   7.511   7.087  0.0944 -1.5408 -2.1727
   18MOL    H9619170   5.452   7.376   7.216 -0.6945  0.1497  0.5003
   18MOL    H9719171   5.466   7.478   7.079 -0.1512 -0.7259  0.1980
   18MOL    H9819172   5.526   7.576   7.366  0.3319 -0.3308 -0.4354
   18MOL    H9919173   5.528   7.679   7.228  0.6820 -1.7209 -0.9808
   18MOL   H10019174   5.361   0.053   7.460 -0.8252 -1.4440  2.3073
   18MOL   H10119175   5.082   0.016   7.340 -0.2879  0.5257 -0.3262
   18MOL   H10219176   5.159   0.165   7.332  0.0064 -1.2794 -0.9715
   18MOL   H10319177   5.116   0.019   7.598 -0.1300  0.2561  0.5187
   18MOL   H10419178   5.188   0.179   7.580 -0.6542  0.8941 -0.4706
   18MOL   H10519179   4.907   0.094   7.482  0.4318 -0.2357  0.4006
   18MOL   H10619180   4.978   0.253   7.474  0.9155  0.6626  0.7621
   18MOL   H10719181   4.818   0.147   7.662 -0.9664  2.0737  1.1761
   18MOL   H10819182   4.968   0.135   0.060  0.3218 -0.9332 -0.9773
   18MOL   H10919183   4.849   0.398   7.647 -0.2865  0.6779  0.5511
   18MOL   H11019184   5.016   0.375   0.016 -0.3654  2.0241  0.9179
   18MOL   H11119185   4.925   0.299   0.236 -1.5373  0.4170  2.3433
   18MOL   H11219186   4.764   0.324   0.176 -0.5585  1.0933 -2.0139
   18MOL   H11319187   4.941   0.554   0.168  0.7214 -0.6199  0.4144
   18MOL   C11419188   4.848   0.532   0.336 -0.2512 -0.0291 -0.0577
   18MOL   O11519189   4.783   0.462   0.413 -0.2056 -0.0503 -0.2834
   18MOL   C11619190   4.915   0.665   0.390 -0.1245 -0.1495 -0.2882
   18MOL   C11719191   4.987   0.646   0.524 -0.0906 -1.1614 -0.4471
   18MOL   C11819192   5.063   0.768   0.576 -0.0162 -0.0484  0.1702
   18MOL   C11919193   5.190   0.803   0.494  0.5168 -0.0699 -1.0696
   18MOL   C12019194   5.264   0.924   0.555  0.1237 -0.4225 -1.0566
   18MOL   C12119195   5.396   0.950   0.483  0.6466  0.0633  0.0221
   18MOL   C12219196   5.481   1.041   0.568  0.1640 -0.1657  0.2903
   18MOL   C12319197   5.626   1.035   0.539 -0.1793  0.2103 -0.3562
   18MOL   C12419198   5.709   1.139   0.630 -0.6902  0.1988  0.1903
   18MOL   C12519199   5.744   1.084   0.769 -0.5022 -0.7853  0.4035
   18MOL   C12619200   5.786   1.187   0.870 -0.0907 -0.3546 -0.4202
   18MOL   O12719201   5.782   1.309   0.843 -0.2184  0.0930 -0.3486
   18MOL   N12819202   5.820   1.143   0.992  0.2997  0.5059  0.1606
   18MOL   C12919203   5.857   1.216   1.110 -0.0510 -0.3039 -0.0099
   18MOL   C13019204   5.734   1.284   1.185  0.7692 -0.1317 -0.7901
   18MOL   C13119205   5.772   1.352   1.317 -0.1059  0.1621  0.2939
   18MOL   C13219206   5.654   1.426   1.380  0.1598  0.3636  0.1532
   18MOL   C13319207   5.699   1.511   1.506 -0.0285 -0.1806  0.6072
   18MOL   C13419208   5.587   1.576   1.600 -0.6241  0.6585 -0.0281
   18MOL   N13519209   5.641   1.647   1.712  0.2504  0.4092 -0.3986
   18MOL   H13619210   4.983   0.712   0.318  1.1544 -1.1463  0.2525
   18MOL   H13719211   4.837   0.737   0.415  0.7237  0.6815  0.0247
   18MOL   H13819212   5.062   0.568   0.507 -1.9421 -2.8308 -1.2095
   18MOL   H13919213   4.925   0.618   0.609  1.5434  0.4667  1.3110
   18MOL   H14019214   5.000   0.857   0.582 -3.7492 -2.5862  0.1930
   18MOL   H14119215   5.096   0.745   0.678 -1.2232 -0.4634  0.4664
   18MOL   H14219216   5.266   0.725   0.490  0.6400  0.1750 -3.8433
   18MOL   H14319217   5.161   0.838   0.396 -0.7656  0.1990 -0.6007
   18MOL   H14419218   5.212   1.019   0.553  0.7373 -0.0342  0.4803
   18MOL   H14519219   5.276   0.894   0.659 -1.7697  0.5849 -0.5212
   18MOL   H14619220   5.374   0.998   0.388 -1.8709  0.6863  0.8693
   18MOL   H14719221   5.451   0.857   0.472 -0.5218 -0.7491  0.8255
   18MOL   H14819222   5.445   1.143   0.559  1.1511  0.0620 -1.2682
   18MOL   H14919223   5.469   1.012   0.673 -0.2396 -0.3299  0.1979
   18MOL   H15019224   5.645   1.047   0.432  0.0178  0.6876 -0.2712
   18MOL   H15119225   5.653   0.932   0.562 -1.9112 -0.6041 -1.8440
   18MOL   H15219226   5.654   1.233   0.641 -2.6889 -0.8349 -0.7896
   18MOL   H15319227   5.800   1.186   0.593 -1.3803  0.9564 -0.5702
   18MOL   H15419228   5.840   1.040   0.743  0.0131 -0.3055  1.4574
   18MOL   H15519229   5.679   1.006   0.808 -2.6135  0.6015 -0.2092
   18MOL   H15619230   5.833   1.043   1.004  1.6335  0.5744 -0.6006
   18MOL   H15719231   5.936   1.287   1.088  3.1984 -3.5472  0.7180
   18MOL   H15819232   5.918   1.147   1.167 -0.8618 -0.0242  1.2137
   18MOL   H15919233   5.665   1.202   1.200 -0.6252  1.2962  0.8647
   18MOL   H16019234   5.677   1.349   1.118 -0.0347  1.6123  1.5356
   18MOL   H16119235   5.808   1.280   1.390  1.9922 -0.8289 -1.6288
   18MOL   H16219236   5.859   1.414   1.296  0.4261 -0.5136  0.4875
   18MOL   H16319237   5.601   1.496   1.314  0.6911 -0.7348 -1.4599
   18MOL   H16419238   5.576   1.355   1.409  0.9985 -0.4480  0.4448
   18MOL   H16519239   5.769   1.578   1.456 -0.5968 -0.0258  0.0075
   18MOL   H16619240   5.762   1.444   1.565  0.3052 -0.4660 -0.0684
   18MOL   H16719241   5.531   1.644   1.536 -1.8492 -2.1726 -2.0954
   18MOL   H16819242   5.520   1.497   1.633  1.2634 -0.2612  1.7187
   18MOL   H16919243   5.633   1.746   1.696 -1.7003  0.6358  1.8410
   18MOL   C17019244   5.720   1.611   1.812 -0.0278  0.9051  0.8060
   18MOL   O17119245   5.733   1.494   1.834  0.0257  0.1324  0.2757
   18MOL   C17219246   5.770   1.720   1.909  0.6950  0.5080 -0.6645
   18MOL   C17319247   5.841   1.666   2.034 -0.0374  0.2692  0.1590
   18MOL   C17419248   5.988   1.632   2.015  0.2667  0.0604  0.6983
   18MOL   C17519249   6.051   1.582   2.149 -0.3953 -0.0757 -0.2163
   18MOL   C17619250   6.182   1.501   2.114  0.0608  0.3175  0.1331
   18MOL   C17719251   6.275   1.568   2.016  0.1600 -0.1474 -0.0152
   18MOL   C17819252   6.415   1.502   2.013  0.0703 -0.7245 -0.0623
   18MOL   C17919253   6.439   1.420   1.877  0.0840 -0.6178 -0.1727
   18MOL   C18019254   6.588   1.391   1.862  0.2486  0.1594  0.5091
   18MOL   C18119255   6.638   1.303   1.741  0.3046  0.2173 -0.1541
   18MOL   C18219256   6.793   1.280   1.750  0.1678  0.6314  0.6516
   18MOL   O18319257   6.858   1.326   1.847 -0.2492 -0.3255 -0.1202
   18MOL   N18419258   6.847   1.199   1.653  0.1728  0.9968 -0.5045
   18MOL   C18519259   6.989   1.193   1.630 -0.1927 -0.4274  0.1523
   18MOL   C18619260   7.023   1.105   1.510 -0.1277  0.0660 -0.2023
   18MOL   C18719261   7.170   1.084   1.478  0.2800 -0.5807 -0.2151
   18MOL   C18819262   7.255   1.215   1.492  0.2236  0.1217 -0.1040
   18MOL   C18919263   7.407   1.186   1.468  0.0432 -0.3908 -0.3348
   18MOL   C19019264   7.507   1.297   1.502 -0.0760  0.9070 -0.7746
   18MOL   N19119265   7.493   1.409   1.413 -0.2310  0.0176  0.0107
   18MOL   H19219266   5.818   1.806   1.863 -0.0554  1.2819 -0.0120
   18MOL   H19319267   5.675   1.750   1.952  0.3529 -0.6772 -0.5610
   18MOL   H19419268   5.783   1.582   2.073 -0.7411 -0.3122 -2.0686
   18MOL   H19519269   5.817   1.739   2.111 -0.2954  0.6879 -0.3203
   18MOL   H19619270   6.038   1.725   1.989 -1.2467 -0.2756 -3.8780
   18MOL   H19719271   6.006   1.566   1.930 -3.0341 -0.7670  0.5707
   18MOL   H19819272   6.092   1.667   2.202 -1.1857 -0.5727  1.2398
   18MOL   H19919273   5.985   1.532   2.221  1.1649 -1.5424  0.2313
   18MOL   H20019274   6.234   1.474   2.206 -0.2638  1.1749  0.5681
   18MOL   H20119275   6.148   1.411   2.062 -2.9524  1.4366  0.0538
   18MOL   H20219276   6.288   1.673   2.042 -1.0806 -0.5772  2.4675
   18MOL   H20319277   6.237   1.570   1.914 -0.9256 -0.2549  0.3705
   18MOL   H20419278   6.491   1.580   2.016  0.6301 -1.3052  0.8424
   18MOL   H20519279   6.425   1.442   2.103  0.7247 -1.8074 -0.8494
   18MOL   H20619280   6.378   1.330   1.870 -0.7385 -0.0456 -0.4117
   18MOL   H20719281   6.416   1.485   1.792  1.7574 -1.2728 -1.1581
   18MOL   H20819282   6.622   1.343   1.953  3.2799 -0.1470 -0.7193
   18MOL   H20919283   6.647   1.483   1.855 -0.4102  0.6119  0.7986
   18MOL   H21019284   6.584   1.209   1.731  0.8194 -0.1654  0.5751
   18MOL   H21119285   6.620   1.345   1.643 -1.8021  0.0380  0.1348
   18MOL   H21219286   6.788   1.154   1.583  1.3841 -1.8987  0.2441
   18MOL   H21319287   7.045   1.152   1.714 -2.1642 -2.3979  0.5559
   18MOL   H21419288   7.030   1.293   1.617 -0.5130 -0.0777  1.7997
   18MOL   H21519289   6.974   1.008   1.502 -0.1125 -0.2644  3.1215
   18MOL   H21619290   6.975   1.162   1.430  2.0529  2.6059  0.2394
   18MOL   H21719291   7.208   1.005   1.543  1.1108 -1.1928 -1.4073
   18MOL   H21819292   7.171   1.041   1.378 -1.4619 -1.0101 -0.0572
   18MOL   H21919293   7.259   1.260   1.591  1.7211 -0.3983  0.0864
   18MOL   H22019294   7.216   1.286   1.419 -0.4274 -0.3246 -0.1888
   18MOL   H22119295   7.426   1.139   1.372 -0.4166  1.3077 -1.2788
   18MOL   H22219296   7.426   1.105   1.539 -1.7687 -0.4515  0.1195
   18MOL   H22319297   7.613   1.275   1.507 -0.1394  0.8785  0.6630
   18MOL   H22419298   7.478   1.326   1.603 -0.0003  1.1970 -0.8340
   18MOL   H22519299   7.448   1.493   1.447  0.1384  0.5908 -0.8967
   18MOL   C22619300   7.544   1.418   1.289 -0.0452 -0.1476  0.3450
   18MOL   O22719301   7.600   1.321   1.239  0.1120  0.2824  0.1414
   18MOL   C22819302   7.527   1.549   1.208 -0.1636 -0.2005  0.2485
   18MOL   C22919303   7.483   1.527   1.061 -0.1681 -0.0071  0.2080
   18MOL   C23019304   7.344   1.450   1.057  0.2045  0.7613  1.1068
   18MOL   C23119305   7.223   1.518   1.100 -0.5639 -0.4260 -0.5570
   18MOL   C23219306   7.099   1.432   1.072 -0.8524  0.5184  0.4885
   18MOL   C23319307   6.970   1.488   1.136 -0.0738  0.5254 -0.0328
   18MOL   C23419308   6.847   1.418   1.083 -0.0373  0.0331 -0.3417
   18MOL   C23519309   6.810   1.450   0.938 -0.4709  0.7012 -0.4040
   18MOL   C23619310   6.687   1.374   0.892  0.6054 -0.0023  0.7928
   18MOL   C23719311   6.628   1.421   0.761  0.4088 -0.2998  1.0170
   18MOL   C23819312   6.590   1.569   0.752  0.1038 -0.1907 -1.0580
   18MOL   O23919313   6.678   1.647   0.719  0.1034  0.7256 -0.0498
   18MOL   N24019314   6.467   1.607   0.791 -0.5419 -0.1764 -0.1262
   18MOL   C24119315   6.402   1.735   0.762 -0.2196 -0.2711 -0.6355
   18MOL   C24219316   6.252   1.708   0.742  0.5685  0.5077  0.4154
   18MOL   C24319317   6.172   1.833   0.713  0.3399 -0.2702 -0.7763
   18MOL   C24419318   6.026   1.821   0.671  0.2700 -0.2595 -0.5746
   18MOL   C24519319   5.975   1.955   0.617  0.3916 -0.8269 -0.3596
   18MOL   C24619320   5.824   1.964   0.594  0.1964 -0.3706  0.4865
   18MOL   N24719321   5.780   2.090   0.530  0.2070  0.1961  0.2881
   18MOL   H24819322   7.619   1.605   1.216  0.0370 -0.7032  1.4978
   18MOL   H24919323   7.458   1.619   1.255  1.2648  1.8111 -0.5814
   18MOL   H25019324   7.474   1.625   1.016  1.0289  0.8294  1.7552
   18MOL   H25119325   7.569   1.483   1.011  0.8386  1.7815  0.3368
   18MOL   H25219326   7.332   1.428   0.951 -0.7588  1.6203  1.0333
   18MOL   H25319327   7.341   1.352   1.104 -0.7352 -0.9377 -2.3346
   18MOL   H25419328   7.207   1.613   1.047  2.3837 -0.8550 -2.3331
   18MOL   H25519329   7.232   1.555   1.202 -1.2332 -2.5614  0.2895
   18MOL   H25619330   7.121   1.342   1.129  2.5898 -0.6049 -2.4413
   18MOL   H25719331   7.086   1.409   0.966  0.7580  0.4726  0.2944
   18MOL   H25819332   6.983   1.478   1.243  1.0284  1.7048 -0.0544
   18MOL   H25919333   6.952   1.595   1.122  1.0648  1.2483  3.6245
   18MOL   H26019334   6.764   1.444   1.149  1.5222  2.4805  0.7317
   18MOL   H26119335   6.861   1.311   1.100 -0.3365  0.1508  0.7005
   18MOL   H26219336   6.804   1.559   0.933 -1.9004  0.6853  0.6360
   18MOL   H26319337   6.891   1.424   0.870  1.9617  1.8154  1.9846
   18MOL   H26419338   6.709   1.269   0.872 -1.5218 -0.3224 -0.0997
   18MOL   H26519339   6.607   1.383   0.966 -0.5299  1.7064 -0.5935
   18MOL   H26619340   6.691   1.392   0.677  0.6195  0.3404  0.9503
   18MOL   H26719341   6.542   1.354   0.748  1.6470 -2.0372  1.6728
   18MOL   H26819342   6.410   1.540   0.841 -2.7235  1.6983 -0.0006
   18MOL   H26919343   6.450   1.793   0.684 -0.0900  0.4229 -0.0486
   18MOL   H27019344   6.410   1.805   0.845 -1.9802  0.2158 -0.8542
   18MOL   H27119345   6.208   1.657   0.828 -0.2616  0.0556 -0.2757
   18MOL   H27219346   6.236   1.647   0.654 -0.8348  3.0638 -1.1369
   18MOL   H27319347   6.172   1.894   0.803 -1.2342 -0.8505 -0.3660
   18MOL   H27419348   6.228   1.896   0.643 -1.4805 -0.7862 -2.7623
   18MOL   H27519349   5.964   1.791   0.756  0.5512  2.5934  0.6717
   18MOL   H27619350   6.013   1.741   0.598 -1.6961 -1.3556  0.9177
   18MOL   H27719351   6.020   1.971   0.519  1.2928  0.5576  0.2631
   18MOL   H27819352   6.000   2.029   0.693 -1.0578 -1.9415  1.2362
   18MOL   H27919353   5.771   1.949   0.688 -0.8789 -0.8984 -0.1992
   18MOL   H28019354   5.803   1.884   0.522  2.5571  0.4584 -1.1809
   18MOL   H28119355   5.772   2.089   0.429  1.1007  1.6123  0.1955
   18MOL   C28219356   5.735   2.200   0.596 -0.2927  0.2135  0.4793
   18MOL   O28319357   5.731   2.224   0.718 -0.4502 -0.6710 -0.1756
   18MOL   C28419358   5.701   2.308   0.506 -0.8033 -1.0433 -0.6229
   18MOL   C28519359   5.795   2.433   0.518  0.9504  0.4171  0.1608
   18MOL   C28619360   5.950   2.408   0.516 -0.3707 -0.6901  0.3239
   18MOL   C28719361   5.994   2.325   0.393  0.1678  0.5568 -0.3787
   18MOL   C28819362   6.142   2.302   0.386  0.2828 -0.3603  0.4764
   18MOL   C28919363   6.186   2.237   0.249  0.0321 -0.2845  0.1933
   18MOL   C29019364   6.331   2.189   0.252 -0.5666 -0.3374  0.2739
   18MOL   C29119365   6.440   2.288   0.274 -0.2675  0.2486 -0.5748
   18MOL   C29219366   6.579   2.218   0.266  0.0650  0.1349 -0.1120
   18MOL   C29319367   6.639   2.206   0.126  0.3183 -0.2228 -0.2449
   18MOL   C29419368   6.695   2.327   0.055 -0.2923 -0.4782  0.5437
   18MOL   O29519369   6.689   2.436   0.115  0.7021  0.2920  0.3893
   18MOL   N29619370   6.728   2.314   7.617 -0.2275 -0.2834 -0.9392
   18MOL   C29719371   6.803   2.424   7.550  0.7841  0.3208 -0.5091
   18MOL   C29819372   6.952   2.392   7.555 -0.2534 -0.3134  0.3104
   18MOL   C29919373   6.997   2.253   7.504  0.0735 -0.7581 -0.3639
   18MOL   C30019374   7.148   2.233   7.510  0.1772  0.7645 -0.0564
   18MOL   C30119375   7.193   2.112   7.424  0.7788  0.0990 -0.8859
   18MOL   C30219376   7.344   2.094   7.430  0.2011 -0.2508  0.2114
   18MOL   N30319377   7.377   1.968   7.373 -0.0084  0.1361 -0.2411
   18MOL   H30419378   5.709   2.278   0.402  0.4138 -1.2450 -0.4851
   18MOL   H30519379   5.598   2.338   0.525  0.0101  3.1384 -2.2302
   18MOL   H30619380   5.767   2.491   0.606 -3.9924  0.2208 -1.1500
   18MOL   H30719381   5.766   2.499   0.436 -1.4884 -0.8601 -0.0457
   18MOL   H30819382   6.010   2.499   0.512 -0.9959 -0.2234  1.3277
   18MOL   H30919383   5.988   2.359   0.605  0.7241  0.3184  0.4236
   18MOL   H31019384   5.962   2.363   0.296 -1.5011 -1.2377 -0.5415
   18MOL   H31119385   5.950   2.227   0.410 -0.8608  1.3699  1.8495
   18MOL   H31219386   6.196   2.397   0.387  1.1445 -0.8295 -0.6365
   18MOL   H31319387   6.191   2.251   0.469  1.7296  0.7017  0.3088
   18MOL   H31419388   6.114   2.158   0.228 -0.0610  0.0319 -0.6866
   18MOL   H31519389   6.166   2.311   0.172  2.2363  0.1816  0.0135
   18MOL   H31619390   6.349   2.122   0.167  1.2668  1.2058 -0.5948
   18MOL   H31719391   6.332   2.117   0.334  0.4831 -0.0111  0.5505
   18MOL   H31819392   6.429   2.337   0.371  0.6923  0.2120 -0.4336
   18MOL   H31919393   6.443   2.369   0.202  4.1751  1.5048  0.8272
   18MOL   H32019394   6.650   2.268   0.332 -1.0519 -1.0420  2.0457
   18MOL   H32119395   6.568   2.116   0.302 -1.9931  0.0481 -0.8929
   18MOL   H32219396   6.721   2.139   0.152  1.1331  1.4282  1.6552
   18MOL   H32319397   6.556   2.167   0.068  1.8351 -2.1365 -1.1766
   18MOL   H32419398   6.714   2.227   7.567 -1.1369  0.1428 -1.4516
   18MOL   H32519399   6.791   2.527   7.582  0.4097  0.1460 -0.0867
   18MOL   H32619400   6.773   2.429   7.445 -2.2505 -1.0734  0.2381
   18MOL   H32719401   6.987   2.421   7.654 -0.0051  0.8282 -0.1029
   18MOL   H32819402   6.984   2.471   7.486  0.0159  0.6242  1.4798
   18MOL   H32919403   6.961   2.247   7.401  1.0945  1.4973 -0.8757
   18MOL   H33019404   6.955   2.178   7.571 -0.1000  0.4590  0.9043
   18MOL   H33119405   7.202   2.321   7.474  3.6005 -0.7662  1.0971
   18MOL   H33219406   7.191   2.224   7.610  1.2305  0.4771 -0.5211
   18MOL   H33319407   7.153   2.101   7.323 -4.3642 -1.1379  1.1265
   18MOL   H33419408   7.149   2.027   7.477 -0.6497  0.7011 -1.0679
   18MOL   H33519409   7.398   2.167   7.369 -3.4431  3.6623  1.3908
   18MOL   H33619410   7.378   2.097   7.534  2.0290 -0.2949 -0.3781
   18MOL   H33719411   7.398   1.959   7.274  1.3070 -3.3573  0.2582
   18MOL   C33819412   7.383   1.847   7.439 -0.2158 -0.3336  0.7769
   18MOL   O33919413   7.355   1.837   7.559  0.8366 -0.0016  0.1412
   18MOL   C34019414   7.401   1.728   7.341  0.2640  0.0565  0.1677
   18MOL   C34119415   7.421   1.584   7.402  0.2003 -0.1054  0.2704
   18MOL   C34219416   7.310   1.492   7.437  0.4427  0.5864 -0.6977
   18MOL   C34319417   7.258   1.506   7.580 -0.6443 -0.2253  0.5606
   18MOL   C34419418   7.133   1.420   7.598 -0.0264  0.2797  1.1175
   18MOL   C34519419   7.089   1.408   0.052 -0.6666 -0.0862 -0.0571
   18MOL   C34619420   7.066   1.540   0.130 -0.1908  0.3043 -0.4643
   18MOL   C34719421   6.966   1.527   0.248 -0.0192 -0.0143  0.1699
   18MOL   C34819422   6.936   1.661   0.314 -0.1758 -0.0696  0.4080
   18MOL   C34919423   6.809   1.658   0.406 -0.1042 -0.0835  0.1975
   18MOL   C35019424   6.681   1.711   0.346 -0.7904 -1.0919  0.5836
   18MOL   O35119425   6.664   1.718   0.226  0.5097 -0.1539  0.1173
   18MOL   N35219426   6.593   1.763   0.429  0.0607  0.1278  0.1665
   18MOL   C35319427   6.475   1.829   0.376 -0.1283 -0.7327 -0.1291
   18MOL   C35419428   6.351   1.746   0.358 -0.0038  0.0541  0.0626
   18MOL   C35519429   6.252   1.830   0.282  0.1360  0.4510 -0.0523
   18MOL   C35619430   6.111   1.772   0.265  0.0049  0.2593  0.5110
   18MOL   C35719431   6.013   1.867   0.197  0.1514 -0.9698  0.2223
   18MOL   C35819432   5.886   1.804   0.146 -0.1331 -0.2940  0.3838
   18MOL   N35919433   5.791   1.892   0.089  0.3053 -0.3483 -0.1960
   18MOL   H36019434   7.491   1.751   7.284  0.6671  0.9562  1.1390
   18MOL   H36119435   7.311   1.722   7.279  0.6248  1.9606 -0.5692
   18MOL   H36219436   7.482   1.538   7.323  0.9083  0.1935  0.6400
   18MOL   H36319437   7.486   1.594   7.489  1.4341 -0.6658 -0.5636
   18MOL   H36419438   7.342   1.387   7.437  0.0117  0.4529 -1.0183
   18MOL   H36519439   7.229   1.498   7.364 -0.3826  1.4393  0.2808
   18MOL   H36619440   7.333   1.464   7.646 -1.5816 -0.8745  1.2192
   18MOL   H36719441   7.233   1.610   7.604 -1.2984  0.0352 -1.1343
   18MOL   H36819442   7.053   1.450   7.531 -0.8585 -0.5449  1.7302
   18MOL   H36919443   7.148   1.315   7.572  0.7763  0.7385 -0.3065
   18MOL   H37019444   7.003   1.341   0.057 -0.1430 -0.8376 -0.8491
   18MOL   H37119445   7.157   1.345   0.109 -0.9502  0.4598  0.8804
   18MOL   H37219446   7.159   1.572   0.176 -1.7962  2.1151  1.6680
   18MOL   H37319447   7.044   1.628   0.069  3.7951  3.4096  2.3575
   18MOL   H37419448   6.881   1.471   0.209 -0.5530  0.1873  1.0298
   18MOL   H37519449   6.999   1.449   0.317 -0.7064 -0.5719 -0.1213
   18MOL   H37619450   6.914   1.720   0.224  1.8341 -0.6135 -0.4693
   18MOL   H37719451   7.021   1.708   0.364  0.1686 -2.2398  1.9363
   18MOL   H37819452   6.785   1.554   0.431  1.7673 -0.8634 -1.1616
   18MOL   H37919453   6.841   1.702   0.501  0.0158  2.3297 -0.9349
   18MOL   H38019454   6.603   1.759   0.529  1.7009  0.4406  0.0187
   18MOL   H38119455   6.498   1.863   0.275  0.7272 -2.4483 -0.5238
   18MOL   H38219456   6.451   1.912   0.443 -0.6510 -0.0470 -1.1591
   18MOL   H38319457   6.309   1.705   0.450 -1.5224 -0.0390 -0.6606
   18MOL   H38419458   6.384   1.657   0.304 -0.3792 -0.2766  0.3755
   18MOL   H38519459   6.249   1.925   0.337  3.9172  0.8012 -0.3479
   18MOL   H38619460   6.299   1.856   0.187  2.2281  0.6071  1.0084
   18MOL   H38719461   6.124   1.674   0.218  0.1301  1.5895 -2.2762
   18MOL   H38819462   6.071   1.743   0.362 -1.1086  1.5592  0.4377
   18MOL   H38919463   6.074   1.923   0.128  1.6690 -1.5450  1.0715
   18MOL   H39019464   5.992   1.951   0.264 -0.5378 -2.1549  1.5431
   18MOL   H39119465   5.921   1.723   0.083 -1.6880 -1.6647  1.2136
   18MOL   H39219466   5.838   1.756   0.232  0.4912  0.7727  1.3451
   18MOL   H39319467   5.754   1.871   7.689  0.5183 -1.2895 -0.0704
   18MOL   C39419468   5.740   2.001   0.151  0.5424 -0.1304  0.1307
   18MOL   O39519469   5.772   2.051   0.260  0.2405  0.1636  0.5611
   18MOL   C39619470   5.627   2.067   0.075 -0.4727 -0.6554 -0.5864
   18MOL   C39719471   5.621   2.218   0.071  0.0014 -0.3456  0.2721
   18MOL   C39819472   5.750   2.281   0.011 -0.0510 -0.2969  0.4720
   18MOL   C39919473   5.753   2.432   0.008 -0.1455 -0.3370  0.0861
   18MOL   C40019474   5.870   2.487   7.612  0.1680  0.0057 -0.0744
   18MOL   C40119475   5.997   2.506   0.001  0.0628 -0.4629  0.1201
   18MOL   C40219476   6.096   2.603   7.622  0.0282 -0.3718  0.0316
   18MOL   C40319477   6.228   2.616   0.007 -0.7754  0.1597  0.4598
   18MOL   C40419478   6.298   2.741   7.651 -0.2399 -0.2806 -0.4661
   18MOL   C40519479   6.449   2.755   0.015 -0.3959 -0.0778 -0.0615
   18MOL   C40619480   6.547   2.822   7.610  0.4905 -0.0334 -0.4825
   18MOL   O40719481   6.508   2.847   7.497  0.3708 -0.4577  0.6494
   18MOL   N40819482   6.668   2.855   7.645  0.0226 -0.2753 -0.3275
   18MOL   C40919483   6.772   2.913   7.556 -0.4497  0.0114  0.5963
   18MOL   C41019484   6.908   2.905   7.623  0.3208 -0.3984  0.4983
   18MOL   C41119485   6.973   2.772   7.625 -0.0555 -0.4056  0.8453
   18MOL   C41219486   7.109   2.771   0.011  0.0845  0.2759  0.5218
   18MOL   C41319487   7.150   2.632   0.070  0.2337 -0.0679 -0.2834
   18MOL   C41419488   7.276   2.636   0.165  0.5311 -0.0825  0.1429
   18MOL   N41519489   7.390   2.672   0.088 -0.2031  0.4817  0.5161
   18MOL   H41619490   5.531   2.033   0.115 -0.6080  1.5853  1.1179
   18MOL   H41719491   5.623   2.043   7.661  1.1475 -0.2542 -0.7506
   18MOL   H41819492   5.607   2.251   0.174 -0.5945 -1.4142  0.5413
   18MOL   H41919493   5.537   2.244   0.007  0.4212  0.3909  0.0165
   18MOL   H42019494   5.785   2.229   7.613 -0.1379 -3.9779  2.4722
   18MOL   H42119495   5.835   2.253   0.073 -0.8374 -3.1489  0.3290
   18MOL   H42219496   5.745   2.463   0.112 -1.7837 -2.0339  0.4959
   18MOL   H42319497   5.660   2.467   7.655 -0.3926 -1.7523 -0.5480
   18MOL   H42419498   5.876   2.428   7.520 -2.8315 -1.4332  0.5965
   18MOL   H42519499   5.841   2.589   7.589  0.0572 -0.0460 -0.1668
   18MOL   H42619500   5.980   2.552   0.099 -0.3724 -2.5674  1.0580
   18MOL   H42719501   6.040   2.409   0.023 -0.0046 -0.5595 -0.1770
   18MOL   H42819502   6.114   2.566   7.521 -2.4508 -3.9057  0.7916
   18MOL   H42919503   6.054   2.702   7.609  0.6957 -0.1807 -0.7169
   18MOL   H43019504   6.220   2.628   0.115 -0.6069  1.7882  0.3046
   18MOL   H43119505   6.294   2.531   7.678 -0.4275  0.5522 -0.0642
   18MOL   H43219506   6.248   2.827   0.004  0.5173 -0.0447 -0.0578
   18MOL   H43319507   6.289   2.753   7.543  1.9904 -0.9786 -0.7587
   18MOL   H43419508   6.454   2.815   0.106 -1.5209  0.2604 -0.2115
   18MOL   H43519509   6.487   2.660   0.052 -0.5261 -0.2773 -0.4348
   18MOL   H43619510   6.698   2.837   0.048 -1.0575 -1.5589 -0.2218
   18MOL   H43719511   6.742   3.017   7.543 -0.1210  0.0419  0.0382
   18MOL   H43819512   6.773   2.859   7.461  2.0258  0.0906  0.5367
   18MOL   H43919513   6.895   2.930   0.037 -2.5207 -0.5005  0.2269
   18MOL   H44019514   6.986   2.969   7.583  1.6586 -0.7517  2.4930
   18MOL   H44119515   6.907   2.702   7.677  1.2056 -0.2890  2.6261
   18MOL   H44219516   6.986   2.746   7.520 -1.5258 -0.8805  0.7681
   18MOL   H44319517   7.185   2.793   7.627  0.2812  1.0656  0.9444
   18MOL   H44419518   7.134   2.852   0.079 -2.5307  0.8227  0.8664
   18MOL   H44519519   7.065   2.592   0.126  0.6099 -0.0972  0.2659
   18MOL   H44619520   7.161   2.560   7.681  2.0633  0.8397 -0.8719
   18MOL   H44719521   7.256   2.710   0.242 -0.6943  1.6551 -1.7780
   18MOL   H44819522   7.289   2.537   0.209 -2.0163 -0.7480 -0.4947
   18MOL   H44919523   7.391   2.636   7.686  0.1293 -1.2378  1.1604
   18MOL   C45019524   7.488   2.746   0.136  0.0996  0.3262  0.4584
   18MOL   O45119525   7.503   2.780   0.252  0.0687 -0.5846 -0.0977
   18MOL   C45219526   7.597   2.793   0.044  0.1429  0.6406  0.0537
   18MOL   C45319527   0.048   2.720   0.060 -0.8118 -0.2505 -1.0372
   18MOL   C45419528   0.134   2.763   7.627 -0.2208 -0.7176 -0.1367
   18MOL   C45519529   0.183   2.914   7.632  0.3398 -0.5328  0.2036
   18MOL   C45619530   0.245   2.936   7.496  0.1659  0.5921  0.1624
   18MOL   C45719531   0.264   3.085   7.472  0.4955 -0.4780 -0.4144
   18MOL   C45819532   0.334   3.118   7.341 -0.1647  0.2455 -0.1818
   18MOL   C45919533   0.370   3.267   7.326  0.3533  0.0188 -0.5832
   18MOL   C46019534   0.250   3.353   7.337  0.5672 -0.1650 -0.8115
   18MOL   C46119535   0.266   3.497   7.298 -0.1531  0.8187 -0.0382
   18MOL   C46219536   0.371   3.562   7.390 -0.0192 -0.3759 -0.1074
   18MOL   O46319537   0.333   3.614   7.494 -0.8365 -0.3061 -0.0442
   18MOL   N46419538   0.500   3.562   7.355  0.7158  0.7781 -0.6475
   18MOL   C46519539   0.603   3.610   7.446 -0.2580  0.1762  0.6209
   18MOL   C46619540   0.693   3.483   7.478 -0.4638  0.7251 -0.2255
   18MOL   C46719541   0.797   3.435   7.375  0.0301  0.1021  0.0712
   18MOL   C46819542   0.872   3.313   7.429  0.3949  0.5068  0.3947
   18MOL   C46919543   0.991   3.272   7.356 -0.8359  0.0376  0.1470
   18MOL   C47019544   1.047   3.135   7.389  0.0467  0.6103 -0.3098
   18MOL   N47119545   1.155   3.100   7.298  0.3697 -0.3805  0.6039
   18MOL   H47219546   7.577   2.788   7.629 -1.5247  2.1411  0.2729
   18MOL   H47319547   7.621   2.896   0.070 -0.1427  0.4042  1.2819
   18MOL   H47419548   0.037   2.612   0.063  1.0295 -0.4731 -1.6894
   18MOL   H47519549   0.098   2.752   0.152 -0.9135 -0.7921 -0.7935
   18MOL   H47619550   0.080   2.734   7.537 -0.4621 -1.8084  0.3524
   18MOL   H47719551   0.223   2.701   7.616  0.3803 -0.2235  1.7280
   18MOL   H47819552   0.242   2.938   0.029  0.3636  0.7769 -0.1589
   18MOL   H47919553   0.093   2.974   7.637 -0.4678 -1.5967 -1.0824
   18MOL   H48019554   0.181   2.910   7.412  1.5063 -1.6588 -0.1994
   18MOL   H48119555   0.323   2.863   7.476  0.3975  0.1741  2.5506
   18MOL   H48219556   0.322   3.125   7.554 -0.5062  0.1119  0.0152
   18MOL   H48319557   0.168   3.137   7.475  1.9320  2.2319 -0.3836
   18MOL   H48419558   0.423   3.056   7.329 -0.6577 -0.6655  0.8314
   18MOL   H48519559   0.275   3.086   7.255  0.2372  1.0976 -0.7778
   18MOL   H48619560   0.451   3.297   7.392  1.5763 -3.0369 -0.6229
   18MOL   H48719561   0.414   3.283   7.228 -0.3045 -2.2601 -1.2995
   18MOL   H48819562   0.206   3.332   7.434 -0.1177  0.4990 -0.9738
   18MOL   H48919563   0.174   3.303   7.276 -1.1660  1.6626 -0.2322
   18MOL   H49019564   0.308   3.499   7.197  0.9871 -0.2129  0.4104
   18MOL   H49119565   0.172   3.551   7.287 -0.2576  0.8975  1.2391
   18MOL   H49219566   0.516   3.533   7.260 -0.9140 -0.4194 -0.5935
   18MOL   H49319567   0.560   3.656   7.535 -0.2732  2.7387 -0.6681
   18MOL   H49419568   0.662   3.692   7.404  0.1942 -0.7639 -0.6058
   18MOL   H49519569   0.755   3.509   7.564 -0.6996  2.5864 -0.6016
   18MOL   H49619570   0.636   3.396   7.512 -0.2236  0.4458 -0.5262
   18MOL   H49719571   0.871   3.513   7.358  0.1519  0.2089  1.0541
   18MOL   H49819572   0.755   3.409   7.278  1.3128  2.5165 -1.1631
   18MOL   H49919573   0.813   3.224   7.448  0.2263  0.7618  1.0643
   18MOL   H50019574   0.914   3.341   7.526 -0.6896 -0.5780  1.2081
   18MOL   H50119575   0.975   3.275   7.248  0.9596 -1.3481 -0.1949
   18MOL   H50219576   1.073   3.341   7.378 -0.3753 -1.1372  2.3009
   18MOL   H50319577   1.074   3.131   7.495 -1.7927  1.2585  0.1911
   18MOL   H50419578   0.979   3.052   7.372  1.4213 -0.5860 -0.0640
   18MOL   H50519579   1.124   3.058   7.211 -1.1501  3.8021 -1.0305
   18MOL   C50619580   1.280   3.138   7.322 -0.0585  0.0528 -0.3910
   18MOL   O50719581   1.308   3.201   7.422  0.0718  0.1015 -0.0914
   18MOL   C50819582   1.381   3.087   7.226  0.5104  0.4699 -0.3562
   18MOL   C50919583   1.527   3.146   7.245  0.5121  0.1148  0.1564
   18MOL   C51019584   1.620   3.091   7.131 -0.5830  0.3907  0.3630
   18MOL   C51119585   1.757   3.166   7.109 -0.3196  0.3608 -0.0457
   18MOL   C51219586   1.743   3.319   7.106  0.2681 -0.5122 -0.8793
   18MOL   C51319587   1.886   3.388   7.110  0.2816  0.0306 -0.3163
   18MOL   C51419588   1.898   3.496   7.221  0.2720 -0.0733 -0.8898
   18MOL   C51519589   1.896   3.447   7.369 -0.9868 -0.6097  0.2120
   18MOL   C51619590   1.903   3.577   7.446 -0.8345 -0.0650  0.4904
   18MOL   C51719591   1.900   3.561   7.601 -0.2086 -0.4961 -0.5339
   18MOL   C51819592   1.865   3.689   7.668 -0.8038  0.2982 -0.4765
   18MOL   O51919593   1.942   3.786   7.650 -0.4750 -0.1134  0.1047
   18MOL   N52019594   1.758   3.699   0.055  0.5082 -0.0304 -0.5635
   18MOL   C52119595   1.721   3.803   0.150 -0.1647  0.4107 -0.1854
   18MOL   C52219596   1.642   3.752   0.270  0.0743 -0.3560  0.4130
   18MOL   C52319597   1.600   3.846   0.380 -0.3480 -0.7712  0.8039
   18MOL   C52419598   1.724   3.906   0.448  0.6871  0.1117  0.3095
   18MOL   C52519599   1.689   3.968   0.590 -0.2822 -0.1643  0.5316
   18MOL   C52619600   1.812   4.023   0.663 -0.1272  0.1873 -0.0814
   18MOL   N52719601   1.851   4.153   0.608 -0.3670 -0.0886 -0.0091
   18MOL   H52819602   1.341   3.108   7.127 -0.2130 -0.8734 -0.3602
   18MOL   H52919603   1.382   2.978   7.234 -1.3938  0.4024 -0.9342
   18MOL   H53019604   1.567   3.119   7.342  0.6346  2.5096  0.8026
   18MOL   H53119605   1.518   3.255   7.243 -1.2458 -0.0414 -2.4514
   18MOL   H53219606   1.561   3.104   7.040  0.5246 -0.7147 -0.5416
   18MOL   H53319607   1.639   2.985   7.147 -0.0533  0.7074  1.8989
   18MOL   H53419608   1.828   3.142   7.188 -0.5913 -0.4741 -0.0503
   18MOL   H53519609   1.804   3.130   7.017 -0.8866  1.1907 -0.6610
   18MOL   H53619610   1.690   3.354   7.017 -1.1115  1.1115  0.5426
   18MOL   H53719611   1.686   3.368   7.185 -0.7326 -1.6705 -0.8705
   18MOL   H53819612   1.957   3.308   7.131  0.7536  0.2697 -1.0000
   18MOL   H53919613   1.908   3.431   7.012  0.1776  0.1901 -0.2685
   18MOL   H54019614   1.988   3.557   7.213 -2.2415  4.1671  1.5662
   18MOL   H54119615   1.820   3.568   7.199 -0.2988 -1.0087 -1.9902
   18MOL   H54219616   1.813   3.380   7.393 -1.1524 -0.1953  0.8031
   18MOL   H54319617   1.981   3.381   7.386  0.3566  0.6809 -1.3181
   18MOL   H54419618   1.822   3.647   7.427  1.1988  2.1958 -0.1714
   18MOL   H54519619   1.990   3.640   7.426  0.9807 -2.4853  0.5509
   18MOL   H54619620   1.816   3.496   7.626  0.4896 -1.4551 -0.6713
   18MOL   H54719621   1.993   3.506   7.615 -0.7899 -1.4689 -0.4294
   18MOL   H54819622   1.688   3.629   0.037  0.2290  0.2958 -0.7705
   18MOL   H54919623   1.664   3.870   0.085 -0.9504  0.3448  0.4233
   18MOL   H55019624   1.811   3.851   0.186  0.4307 -1.0362  0.3191
   18MOL   H55119625   1.698   3.666   0.309  2.8039  0.8314 -0.7608
   18MOL   H55219626   1.556   3.712   0.215  0.6176 -1.9093  0.6551
   18MOL   H55319627   1.539   3.792   0.452 -0.7878  0.5184  1.4090
   18MOL   H55419628   1.544   3.927   0.333  0.8111 -0.4486 -0.0744
   18MOL   H55519629   1.776   3.980   0.387  0.0004  0.5719  0.2758
   18MOL   H55619630   1.793   3.823   0.465 -1.8904 -2.4614 -1.2283
   18MOL   H55719631   1.607   4.039   0.582  1.3595  1.5366 -1.9484
   18MOL   H55819632   1.649   3.886   0.650 -0.2899 -0.6878 -0.1843
   18MOL   H55919633   1.795   4.035   0.770  2.9370  1.1686  0.3344
   18MOL   H56019634   1.885   3.943   0.647  0.1933  0.5050 -0.2201
   18MOL   H56119635   1.802   4.236   0.636  0.1232  0.5267 -0.9404
   18MOL   C56219636   1.959   4.169   0.535 -0.4937 -1.6221  0.3489
   18MOL   O56319637   2.022   4.076   0.488  0.3045 -0.1336 -0.6295
   18MOL   C56419638   1.998   4.316   0.489  0.3255 -0.3643 -0.1170
   18MOL   C56519639   2.147   4.351   0.515  0.0376 -0.1824 -0.3342
   18MOL   C56619640   2.178   4.444   0.639 -0.2770 -0.0510  0.0195
   18MOL   C56719641   2.130   4.394   0.770 -0.5672 -0.7973  0.3688
   18MOL   C56819642   2.166   4.488   0.885  0.2551 -0.9065  0.0946
   18MOL   C56919643   2.077   4.610   0.892  0.5280  0.3018  0.1195
   18MOL   C57019644   2.138   4.705   1.004 -0.4482  0.2013  0.3052
   18MOL   C57119645   2.057   4.829   1.041  0.6329  0.4941 -0.6711
   18MOL   C57219646   2.123   4.928   1.134  0.0759  0.8674 -0.4339
   18MOL   C57319647   2.022   5.023   1.215 -0.6366  0.5539  0.5734
   18MOL   C57419648   1.917   5.102   1.129 -0.2743 -0.1776  0.1799
   18MOL   O57519649   1.931   5.222   1.112 -0.5273 -0.1292 -0.1707
   18MOL   N57619650   1.800   5.039   1.094  0.4212 -0.2786 -0.2052
   18MOL   C57719651   1.688   5.104   1.029  0.1778  0.4824  0.0155
   18MOL   C57819652   1.595   5.008   0.949  0.1789 -0.0773 -1.0471
   18MOL   C57919653   1.671   4.908   0.857  0.3362 -0.5060 -0.3922
   18MOL   C58019654   1.575   4.828   0.772  0.0536  0.0950 -0.6542
   18MOL   C58119655   1.656   4.748   0.659 -0.6136  0.5574  0.2605
   18MOL   C58219656   1.776   4.664   0.705 -0.5052 -0.0509 -0.4028
   18MOL   N58319657   1.745   4.580   0.815  0.1316 -0.1630  0.0302
   18MOL   H58419658   1.971   4.312   0.384  1.0761 -1.4943 -0.2771
   18MOL   H58519659   1.927   4.390   0.526 -0.7252 -0.4904 -1.8061
   18MOL   H58619660   2.204   4.259   0.527 -1.0929 -1.0845 -1.7982
   18MOL   H58719661   2.195   4.394   0.427  0.2317  1.1387  0.4058
   18MOL   H58819662   2.130   4.539   0.612  0.9004  0.1669 -1.3749
   18MOL   H58919663   2.286   4.457   0.636 -0.3322  0.1082 -2.0982
   18MOL   H59019664   2.024   4.370   0.761 -0.5497 -1.1929  1.1807
   18MOL   H59119665   2.180   4.300   0.795  0.2134  0.4018  3.5799
   18MOL   H59219666   2.172   4.440   0.983 -1.8975  0.2666  0.8623
   18MOL   H59319667   2.265   4.530   0.871 -0.1921 -0.5062 -1.9439
   18MOL   H59419668   2.067   4.668   0.801  1.3915  0.5580  0.1877
   18MOL   H59519669   1.979   4.569   0.916  1.3858 -1.6201  0.3939
   18MOL   H59619670   2.154   4.646   1.095  1.3064 -0.9118 -0.6955
   18MOL   H59719671   2.232   4.746   0.967 -1.4486  1.7460 -0.5373
   18MOL   H59819672   1.965   4.790   1.084  1.4503  0.3752  1.0317
   18MOL   H59919673   2.024   4.874   0.948 -0.4000 -1.7823 -1.4095
   18MOL   H60019674   2.175   4.983   1.056  2.2798 -0.9809 -0.3392
   18MOL   H60119675   2.202   4.884   1.195  0.2448  1.1150 -0.4766
   18MOL   H60219676   1.976   4.973   1.300  3.3005  0.7168  2.9118
   18MOL   H60319677   2.084   5.093   1.270  1.0305  1.1795 -1.9758
   18MOL   H60419678   1.785   4.941   1.116 -1.6545  0.1316  0.3138
   18MOL   H60519679   1.736   5.167   0.954 -0.0794  0.1005 -0.4715
   18MOL   H60619680   1.638   5.167   1.103 -0.6429  1.1505 -1.0974
   18MOL   H60719681   1.514   5.059   0.898  0.4568  2.7707  1.2348
   18MOL   H60819682   1.540   4.952   1.024  0.2580 -0.9025 -1.5964
   18MOL   H60919683   1.718   4.844   0.933  4.0039  0.8987 -1.3464
   18MOL   H61019684   1.751   4.958   0.801  0.0054 -0.3833 -0.7509
   18MOL   H61119685   1.526   4.754   0.836  1.1001  1.0528  1.2868
   18MOL   H61219686   1.496   4.891   0.732 -0.3725  0.4411  0.6997
   18MOL   H61319687   1.703   4.819   0.591 -1.7013  2.8068  1.7873
   18MOL   H61419688   1.577   4.695   0.606 -0.3727  0.3429  0.1177
   18MOL   H61519689   1.822   4.613   0.620  1.3597  0.3143  0.3616
   18MOL   H61619690   1.845   4.736   0.749  0.3853 -1.2124  0.0976
   18MOL   H61719691   1.711   4.624   0.899  0.0233  1.6486 -0.9312
   18MOL   C61819692   1.722   4.449   0.811 -0.8084  0.2218  0.3170
   18MOL   O61919693   1.740   4.383   0.712  0.0561 -0.2188  0.0670
   18MOL   C62019694   1.685   4.388   0.947  0.8954 -0.4567  0.0643
   18MOL   C62119695   1.631   4.241   0.941 -0.3182 -0.3153 -0.1278
   18MOL   C62219696   1.522   4.208   0.840  0.5692  0.5037  0.2712
   18MOL   C62319697   1.473   4.061   0.851 -0.3902  0.2629 -0.2254
   18MOL   C62419698   1.364   4.042   0.746  0.2233  0.3035 -0.1773
   18MOL   C62519699   1.315   3.897   0.731 -0.5200  0.0258 -0.1555
   18MOL   C62619700   1.197   3.886   0.630  0.4176 -0.2572 -0.2891
   18MOL   C62719701   1.145   3.738   0.603 -0.0709 -0.1987  0.6645
   18MOL   C62819702   1.044   3.700   0.717  0.8707  0.0553  0.2175
   18MOL   C62919703   1.020   3.547   0.728 -0.2406 -0.7569  0.3900
   18MOL   C63019704   1.101   3.475   0.840  0.1078 -0.2052 -0.3799
   18MOL   O63119705   1.216   3.506   0.876 -0.1656  0.5798 -0.2666
   18MOL   N63219706   1.031   3.377   0.893 -0.1204  0.1995  0.0289
   18MOL   C63319707   1.076   3.274   0.996 -0.1656  0.8910  0.1586
   18MOL   C63419708   1.040   3.134   0.947  0.9033 -0.2386  0.1506
   18MOL   C63519709   1.147   3.065   0.847  0.4182 -0.6010  0.2884
   18MOL   C63619710   1.162   3.141   0.714 -0.3664  0.6089 -0.4029
   18MOL   C63719711   1.256   3.071   0.621 -0.3045  0.3756 -0.0386
   18MOL   C63819712   1.277   3.149   0.488  0.1902  0.4635 -0.0142
   18MOL   N63919713   1.176   3.113   0.388 -0.4117 -0.0138  0.4464
   18MOL   H64019714   1.615   4.454   0.998  0.4959 -0.9076  0.0990
   18MOL   H64119715   1.779   4.378   1.000  2.1798 -1.2796 -2.2698
   18MOL   H64219716   1.602   4.210   1.041  0.9334  0.5695  0.5290
   18MOL   H64319717   1.725   4.190   0.917  0.5577  1.1202  0.1684
   18MOL   H64419718   1.553   4.229   0.738 -0.5385  0.1285 -0.1470
   18MOL   H64519719   1.437   4.271   0.864 -1.0236 -1.5134  0.0909
   18MOL   H64619720   1.552   3.989   0.831  0.2233  1.1645 -1.0998
   18MOL   H64719721   1.438   4.031   0.950 -0.4877 -1.1053 -0.6629
   18MOL   H64819722   1.280   4.106   0.771 -1.1885 -1.2581 -0.7912
   18MOL   H64919723   1.403   4.065   0.646  2.6034  0.6673  0.8053
   18MOL   H65019724   1.293   3.862   0.832  0.6742 -2.5340 -0.7516
   18MOL   H65119725   1.399   3.845   0.687  0.3102  0.9399  0.3389
   18MOL   H65219726   1.121   3.954   0.669 -0.8106 -1.6181 -0.2642
   18MOL   H65319727   1.245   3.926   0.541  0.1988 -1.5962 -1.0166
   18MOL   H65419728   1.096   3.713   0.509 -0.2055  0.3322  0.5909
   18MOL   H65519729   1.234   3.676   0.613 -0.2633 -0.8224 -1.3929
   18MOL   H65619730   0.946   3.746   0.700  1.7858  2.3102  0.8794
   18MOL   H65719731   1.079   3.741   0.812  2.0507 -1.4560  0.4579
   18MOL   H65819732   0.915   3.527   0.748 -0.7771  0.7922 -0.8040
   18MOL   H65919733   1.042   3.501   0.632  0.4015 -1.4765  0.8829
   18MOL   H66019734   0.942   3.352   0.851 -1.2749  0.0223  2.4910
   18MOL   H66119735   1.180   3.287   1.027  0.0213  2.0385 -0.9128
   18MOL   H66219736   1.014   3.298   1.082 -0.0750 -0.9125  0.7495
   18MOL   H66319737   0.941   3.126   0.902  2.0767 -0.9532 -2.3659
   18MOL   H66419738   1.033   3.075   1.038 -1.7883  0.8267  0.6913
   18MOL   H66519739   1.243   3.058   0.898 -0.7761  0.1891  2.7275
   18MOL   H66619740   1.117   2.963   0.822  0.5985 -0.3203 -1.1451
   18MOL   H66719741   1.215   3.229   0.750 -0.5447  0.8809 -0.7993
   18MOL   H66819742   1.068   3.157   0.661 -0.1148 -1.7360 -1.6423
   18MOL   H66919743   1.357   3.058   0.661  0.4193  0.5571 -1.8025
   18MOL   H67019744   1.228   2.969   0.593 -1.5334  1.0536 -1.2672
   18MOL   H67119745   1.258   3.254   0.510 -2.6146 -0.0017 -0.1021
   18MOL   H67219746   1.375   3.152   0.438  0.4737 -0.8080  0.4517
   18MOL   H67319747   1.117   3.193   0.369  0.8148  0.4545 -1.6454
   18MOL   C67419748   1.185   3.017   0.295  0.1403 -0.7642 -0.3872
   18MOL   O67519749   1.272   2.931   0.300 -0.6134 -0.0754  0.3659
   18MOL   C67619750   1.107   3.041   0.157  0.0749  0.6908  0.2239
   18MOL   C67719751   1.077   2.912   0.087 -0.4806 -0.1064 -0.2658
   18MOL   C67819752   0.959   2.846   0.151 -0.6703 -0.4302  0.4187
   18MOL   C67919753   0.914   2.722   0.085  0.0944 -0.1432 -0.0174
   18MOL   C68019754   0.982   2.602   0.142 -0.0188  0.6238 -0.8187
   18MOL   C68119755   0.950   2.477   0.053  0.3353 -0.2953  0.7215
   18MOL   C68219756   0.992   2.339   0.101  0.3592  0.0788 -0.5087
   18MOL   C68319757   0.947   2.307   0.246 -0.3250  0.0903  0.0143
   18MOL   C68419758   0.795   2.309   0.287 -0.3000  0.2973 -0.6931
   18MOL   C68519759   0.763   2.284   0.439  0.3447 -0.1831 -0.3371
   18MOL   C68619760   0.730   2.144   0.484 -0.2475  0.1189  0.0035
   18MOL   O68719761   0.642   2.085   0.427  0.6595  0.3565  0.0017
   18MOL   N68819762   0.799   2.091   0.588 -0.3938 -0.5128  0.4575
   18MOL   C68919763   0.781   1.954   0.637 -0.3572 -0.1218 -0.2396
   18MOL   C69019764   0.832   1.846   0.543 -0.2997 -0.0261 -0.0219
   18MOL   C69119765   0.839   1.703   0.607  0.0466  0.6457 -0.2631
   18MOL   C69219766   0.898   1.599   0.511  0.2726 -0.1473 -0.2812
   18MOL   C69319767   0.945   1.471   0.567 -0.3708 -0.2537 -0.2901
   18MOL   C69419768   0.839   1.358   0.579 -0.2382  0.4937  0.9228
   18MOL   N69519769   0.776   1.323   0.445 -0.6618 -0.4750  0.2284
   18MOL   H69619770   1.165   3.108   0.093 -1.7018  0.5261 -1.5876
   18MOL   H69719771   1.011   3.089   0.176 -0.8545 -1.0887  0.1065
   18MOL   H69819772   1.161   2.843   0.086  0.8978  1.4015  2.7670
   18MOL   H69919773   1.053   2.934   7.675 -1.4940 -2.7360 -0.6390
   18MOL   H70019774   0.986   2.840   0.256 -0.5385 -0.9273  0.3573
   18MOL   H70119775   0.883   2.923   0.147  0.3518  0.5144 -2.0870
   18MOL   H70219776   0.938   2.731   7.670  0.7206 -2.3089 -0.0944
   18MOL   H70319777   0.806   2.726   0.088 -0.0188  1.8226 -3.5620
   18MOL   H70419778   0.951   2.590   0.246  2.6609 -0.0436 -0.0634
   18MOL   H70519779   1.089   2.620   0.137 -0.3990  2.9404 -1.4487
   18MOL   H70619780   0.846   2.473   0.019  0.0658 -1.3628  1.6339
   18MOL   H70719781   1.003   2.497   7.652 -0.5282 -1.4316 -0.0328
   18MOL   H70819782   0.942   2.262   0.042 -1.0664 -1.0088  2.0369
   18MOL   H70919783   1.099   2.326   0.087  0.1203 -1.2647 -1.1489
   18MOL   H71019784   0.984   2.205   0.259 -1.6843 -0.6519 -1.6017
   18MOL   H71119785   1.010   2.361   0.316  0.9449 -0.9099 -0.3232
   18MOL   H71219786   0.726   2.245   0.232  0.5167  0.3548 -1.7914
   18MOL   H71319787   0.763   2.409   0.259 -3.4292  0.5413  3.3898
   18MOL   H71419788   0.835   2.333   0.504  0.0392 -2.0622  1.4837
   18MOL   H71519789   0.672   2.339   0.462  1.0455  0.7646  0.2000
   18MOL   H71619790   0.876   2.149   0.621 -0.9313 -0.1953  1.1785
   18MOL   H71719791   0.841   1.947   0.728  0.5277  2.5381 -0.5775
   18MOL   H71819792   0.676   1.944   0.667 -0.1015 -1.4211  0.2376
   18MOL   H71919793   0.925   1.876   0.494 -0.3169 -0.0315 -0.0582
   18MOL   H72019794   0.780   1.849   0.447 -0.2816 -0.8983 -0.0557
   18MOL   H72119795   0.903   1.702   0.696 -0.6788  1.2522  0.2771
   18MOL   H72219796   0.739   1.676   0.641  1.3198 -2.8416  0.8872
   18MOL   H72319797   0.983   1.640   0.457 -0.7644 -1.1565 -2.7824
   18MOL   H72419798   0.823   1.576   0.435 -0.4849  1.3484  0.0034
   18MOL   H72519799   0.988   1.489   0.666 -2.0523  0.3225  0.3615
   18MOL   H72619800   1.018   1.425   0.500  0.5670  1.7512 -0.6772
   18MOL   H72719801   0.878   1.265   0.620  1.6137  0.8961  0.1338
   18MOL   H72819802   0.761   1.388   0.649 -0.0297  0.3123  1.2321
   18MOL   H72919803   0.802   1.383   0.368 -0.7744  0.6608  1.0507
   18MOL   C73019804   0.667   1.251   0.433 -0.8781 -0.0573 -0.0287
   18MOL   O73119805   0.607   1.188   0.527  0.3586  0.2083  0.2456
   18MOL   C73219806   0.612   1.236   0.289 -0.1886  0.5846  0.1888
   18MOL   C73319807   0.492   1.158   0.255  0.1291  0.5960  0.4369
   18MOL   C73419808   0.366   1.228   0.319 -0.2540 -0.2238  0.4071
   18MOL   C73519809   0.227   1.184   0.264  0.2820  0.4991  0.1662
   18MOL   C73619810   0.106   1.232   0.346  0.3783  0.3577 -0.1599
   18MOL   C73719811   0.079   1.378   0.325  0.2793  1.0246 -0.1582
   18MOL   C73819812   7.642   1.437   0.385 -0.3510  0.0004  0.0706
   18MOL   C73919813   7.633   1.588   0.362 -0.6661  0.8987 -0.3174
   18MOL   C74019814   7.590   1.629   0.221  0.2435 -0.3628  1.0298
   18MOL   C74119815   7.569   1.775   0.200  0.1393  0.1576  0.3143
   18MOL   C74219816   7.436   1.830   0.248  0.5236 -0.1247  0.3107
   18MOL   O74319817   7.415   1.841   0.370  0.1876 -0.0290  0.7629
   18MOL   N74419818   7.358   1.872   0.154 -0.3906  0.1195  0.4304
   18MOL   C74519819   7.223   1.919   0.178  0.9195 -0.5538 -0.0302
   18MOL   C74619820   7.216   2.074   0.213  0.1143 -0.4264  0.5076
   18MOL   C74719821   7.069   2.131   0.217  0.6184  0.2178  0.0269
   18MOL   C74819822   7.068   2.272   0.275  0.0201 -0.4088  0.2926
   18MOL   C74919823   7.117   2.289   0.417  0.1807  0.6782  0.0466
   18MOL   C75019824   7.106   2.437   0.459 -0.1401 -0.6467 -0.0141
   18MOL   N75119825   7.134   2.463   0.603 -0.0398 -0.3569  0.3324
   18MOL   H75219826   0.694   1.195   0.230  0.0108  0.1653  0.7609
   18MOL   H75319827   0.597   1.337   0.251  3.3049  1.7539  1.7024
   18MOL   H75419828   0.498   1.059   0.300 -0.4736  0.0768 -0.5985
   18MOL   H75519829   0.479   1.136   0.148  0.5071 -0.7391  0.6508
   18MOL   H75619830   0.367   1.336   0.300 -0.1605 -0.7243 -2.6177
   18MOL   H75719831   0.365   1.204   0.425 -1.2245  1.3421  0.7634
   18MOL   H75819832   0.235   1.076   0.269 -1.5766  0.3689  0.8755
   18MOL   H75919833   0.213   1.216   0.161  0.2164 -1.4317 -0.4414
   18MOL   H76019834   0.116   1.217   0.454 -0.3082  0.9042 -0.0188
   18MOL   H76119835   0.021   1.173   0.313 -0.0622  0.3172  1.0141
   18MOL   H76219836   0.161   1.443   0.358 -1.5597  2.0942  2.5482
   18MOL   H76319837   0.072   1.383   0.217 -0.3256 -1.3278 -0.2470
   18MOL   H76419838   7.562   1.384   0.332 -1.8256  0.1227  2.1270
   18MOL   H76519839   7.630   1.422   0.492 -0.4544 -0.7963 -0.0458
   18MOL   H76619840   7.557   1.623   0.432  0.4317  1.6436  0.5078
   18MOL   H76719841   0.030   1.633   0.405 -1.9809  1.3292  2.0470
   18MOL   H76819842   7.491   1.585   0.208  1.0143 -2.6604  2.5230
   18MOL   H76919843   7.655   1.588   0.144 -1.4227  1.2661 -1.3207
   18MOL   H77019844   7.641   1.831   0.260  0.0305  0.1765  0.4280
   18MOL   H77119845   7.589   1.799   0.095  0.2435  0.5135  0.4144
   18MOL   H77219846   7.385   1.874   0.057 -4.2697 -1.6551 -0.7715
   18MOL   H77319847   7.187   1.861   0.264  2.8277 -0.1278  1.0773
   18MOL   H77419848   7.161   1.902   0.090  3.0968  0.1145 -1.7395
   18MOL   H77519849   7.262   2.124   0.128  0.9160 -0.5653  0.8582
   18MOL   H77619850   7.268   2.103   0.304  1.3692 -1.4452  0.1246
   18MOL   H77719851   7.015   2.061   0.281 -0.4689  0.2690 -0.8263
   18MOL   H77819852   7.025   2.127   0.117 -1.4116  0.9117  0.8848
   18MOL   H77919853   7.123   2.339   0.209  0.7086 -0.1638  1.1031
   18MOL   H78019854   6.963   2.300   0.283  0.1497 -0.2970  1.8544
   18MOL   H78119855   7.220   2.261   0.440 -0.4294 -0.4731  1.4917
   18MOL   H78219856   7.056   2.224   0.480 -1.8600  0.6271 -1.9213
   18MOL   H78319857   7.168   2.508   0.404 -1.8991 -0.3023 -1.5847
   18MOL   H78419858   7.001   2.462   0.447  0.2730  1.9180  1.3375
   18MOL   H78519859   7.215   2.422   0.645 -0.0237  1.0663  1.7396
   18MOL   C78619860   7.048   2.526   0.691  0.3387 -0.1311 -0.0439
   18MOL   O78719861   6.950   2.587   0.650  0.1397  0.1158  0.2676
   18MOL   C78819862   7.075   2.507   0.841  0.1913  0.5164  0.3060
   18MOL   C78919863   7.114   2.632   0.918 -0.1316 -0.6150  0.5872
   18MOL   C79019864   7.252   2.687   0.873  0.6972  0.0877  0.5068
   18MOL   C79119865   7.375   2.623   0.935  0.3408 -0.3517 -0.0424
   18MOL   C79219866   7.484   2.726   0.985  0.8423 -0.5820 -0.4362
   18MOL   C79319867   7.612   2.664   1.027  0.4449  0.2659 -0.2968
   18MOL   C79419868   0.028   2.755   1.093 -0.4578  0.0722  0.2777
   18MOL   C79519869   0.075   2.859   0.994 -0.1476 -0.4144 -0.4157
   18MOL   C79619870   0.189   2.945   1.056  0.0742  0.1193 -0.0493
   18MOL   C79719871   0.237   3.059   0.970 -0.2990 -0.1243  0.3971
   18MOL   C79819872   0.308   3.163   1.057 -0.1596 -0.5515  0.1138
   18MOL   O79919873   0.418   3.143   1.105  0.2251  0.3981 -0.2270
   18MOL   N80019874   0.249   3.279   1.057 -0.1154 -0.7590 -0.3675
   18MOL   C80119875   0.279   3.401   1.136 -0.1821 -0.0992  0.4044
   18MOL   C80219876   0.273   3.377   1.285  0.0714 -0.0163  0.4510
   18MOL   C80319877   0.294   3.510   1.363 -0.1637 -0.2278 -0.4105
   18MOL   C80419878   0.295   3.486   1.517  0.5147  0.6964  0.4329
   18MOL   C80519879   0.303   3.623   1.597  0.1465  0.2961  0.2258
   18MOL   C80619880   0.270   3.612   1.740  0.0853  0.5135  0.9060
   18MOL   N80719881   0.263   3.744   1.810 -0.5750 -0.1771 -0.3783
   18MOL   H80819882   7.148   2.427   0.847 -0.9012 -0.3660  2.3873
   18MOL   H80919883   6.978   2.477   0.881  0.3972  2.2026  2.1333
   18MOL   H81019884   7.031   2.702   0.908  1.8705  1.3588 -3.0374
   18MOL   H81119885   7.118   2.614   1.025  1.1891 -2.8035  0.2094
   18MOL   H81219886   7.256   2.786   0.918  2.6744  1.4189 -2.4095
   18MOL   H81319887   7.273   2.706   0.767  0.4324 -0.0628  0.4244
   18MOL   H81419888   7.337   2.567   1.020  3.0262 -2.2960 -0.0587
   18MOL   H81519889   7.426   2.563   0.860  1.2248 -0.1803  0.4140
   18MOL   H81619890   7.502   2.806   0.912  0.6287  0.8299  1.0366
   18MOL   H81719891   7.443   2.777   1.072 -0.4128 -0.5670 -1.0296
   18MOL   H81819892   7.600   2.589   1.106  2.5204 -1.1787 -1.2917
   18MOL   H81919893   7.652   2.614   0.939  1.9436  1.3583 -0.2548
   18MOL   H82019894   7.674   2.815   1.172 -0.9511  0.6847 -0.4593
   18MOL   H82119895   0.106   2.686   1.123  1.6129  2.4067  0.4414
   18MOL   H82219896   0.111   2.813   0.902  1.1364  0.5941 -0.4436
   18MOL   H82319897   0.005   2.937   0.963  0.4948  0.7145  0.9016
   18MOL   H82419898   0.267   2.878   1.093  0.1269  0.9731  1.3948
   18MOL   H82519899   0.153   3.003   1.141  0.8603  0.6492 -0.0818
   18MOL   H82619900   0.307   3.027   0.893 -0.9199  0.7821 -0.5689
   18MOL   H82719901   0.154   3.100   0.912  1.3290  0.1199 -1.8216
   18MOL   H82819902   0.158   3.278   1.014 -0.3522 -0.0819  0.0968
   18MOL   H82919903   0.201   3.471   1.104  0.0314  0.5298  1.2467
   18MOL   H83019904   0.371   3.452   1.105 -1.0803  0.8022 -0.8515
   18MOL   H83119905   0.338   3.297   1.321  0.8830 -0.3258 -1.6513
   18MOL   H83219906   0.177   3.341   1.323  0.1838 -0.5717  0.2091
   18MOL   H83319907   0.386   3.557   1.326 -0.5098  0.7778 -0.0002
   18MOL   H83419908   0.217   3.581   1.334  1.6859  2.9548  2.1329
   18MOL   H83519909   0.375   3.426   1.560 -0.9058 -1.4393  0.1696
   18MOL   H83619910   0.208   3.426   1.543  1.0601 -1.7696 -3.1395
   18MOL   H83719911   0.240   3.692   1.540 -0.6924  0.3778  1.2358
   18MOL   H83819912   0.403   3.665   1.588  0.6421 -0.5492  1.6567
   18MOL   H83919913   0.338   3.544   1.792  0.2058 -2.0425 -2.4961
   18MOL   H84019914   0.170   3.569   1.737  0.7313 -0.9564  0.3582
   18MOL   H84119915   0.344   3.778   1.859 -0.5039  1.1413 -1.3895
   18MOL   C84219916   0.158   3.825   1.816  0.2523  0.3201 -0.0751
   18MOL   O84319917   0.056   3.798   1.753 -0.2483 -0.1236 -0.1081
   18MOL   C84419918   0.163   3.951   1.902 -0.1162 -0.5051  0.3133
   18MOL   C84519919   0.077   3.965   2.033 -0.0892 -0.1209  0.2726
   18MOL   C84619920   0.136   3.867   2.137 -0.5990  0.2198  0.1062
   18MOL   C84719921   0.267   3.928   2.192  1.2511 -0.0669  0.2699
   18MOL   C84819922   0.387   3.839   2.152 -0.4132 -0.1964  0.0686
   18MOL   C84919923   0.502   3.841   2.260 -0.5758 -0.8038  0.0641
   18MOL   C85019924   0.578   3.703   2.256  0.4450  0.2536  0.2550
   18MOL   C85119925   0.649   3.668   2.126 -0.4288 -0.0634 -0.0447
   18MOL   C85219926   0.720   3.528   2.128  0.0363  0.0309 -0.2152
   18MOL   C85319927   0.805   3.490   2.010  0.0373  0.2262  0.1214
   18MOL   C85419928   0.734   3.430   1.890  0.1599  0.1274  0.1321
   18MOL   O85519929   0.652   3.338   1.913 -0.3381 -0.2913  0.1197
   18MOL   N85619930   0.760   3.477   1.770 -0.1324 -0.0082 -0.0709
   18MOL   C85719931   0.683   3.437   1.649 -0.4348 -0.7438  0.4003
   18MOL   C85819932   0.715   3.509   1.518  0.5393  0.7416 -0.2160
   18MOL   C85919933   0.675   3.403   1.402 -0.0574 -0.2245 -0.4901
   18MOL   C86019934   0.711   3.457   1.259  0.6324  0.1407 -0.1715
   18MOL   C86119935   0.686   3.353   1.145  0.0928 -0.1949  0.2466
   18MOL   C86219936   0.680   3.416   1.004 -0.4558 -0.4310 -0.1831
   18MOL   N86319937   0.616   3.326   0.910  0.4185 -0.4465  0.2406
   18MOL   H86419938   0.126   4.034   1.842  2.4165  0.1854 -0.3527
   18MOL   H86519939   0.266   3.979   1.927  0.0262  2.2722 -2.9642
   18MOL   H86619940   7.663   3.939   2.021 -0.0280 -0.7599  0.9854
   18MOL   H86719941   0.086   4.062   2.081  0.9940 -0.2616  0.3669
   18MOL   H86819942   0.068   3.868   2.222  1.5904  3.0444  1.9439
   18MOL   H86919943   0.150   3.768   2.095 -2.1554 -0.6043  1.4608
   18MOL   H87019944   0.263   3.907   2.299  0.9747 -1.8031 -0.0628
   18MOL   H87119945   0.273   4.036   2.183 -0.6986 -0.1209 -2.4889
   18MOL   H87219946   0.361   3.735   2.133 -0.8143 -0.0370 -0.2856
   18MOL   H87319947   0.432   3.871   2.058 -0.7986 -2.1678 -0.8129
   18MOL   H87419948   0.562   3.930   2.242  1.1810 -2.2411 -1.4019
   18MOL   H87519949   0.464   3.855   2.361 -0.0399 -0.7439  0.2611
   18MOL   H87619950   0.653   3.703   2.335  1.1491  1.4614 -0.4053
   18MOL   H87719951   0.510   3.624   2.287 -1.4616  2.5761  2.2470
   18MOL   H87819952   0.733   3.737   2.113  0.5016 -0.8344  1.6539
   18MOL   H87919953   0.592   3.695   2.037  0.2867  0.7924 -0.2634
   18MOL   H88019954   0.644   3.451   2.138  0.0091  0.1214  0.2972
   18MOL   H88119955   0.780   3.518   2.218 -1.2699  1.6736  0.8708
   18MOL   H88219956   0.865   3.575   1.977 -2.2918  2.3927  1.3393
   18MOL   H88319957   0.879   3.418   2.045 -0.1905 -0.3150 -0.4937
   18MOL   H88419958   0.849   3.522   1.758  0.0452 -0.3966 -0.2257
   18MOL   H88519959   0.580   3.452   1.682 -0.3793 -1.3748  0.8691
   18MOL   H88619960   0.693   3.329   1.643  2.7136 -0.4740 -0.1088
   18MOL   H88719961   0.823   3.527   1.525  0.7655  0.6464 -2.8237
   18MOL   H88819962   0.671   3.608   1.514  0.9510  0.8899 -1.4487
   18MOL   H88919963   0.571   3.372   1.414 -0.0016  0.0099  0.6535
   18MOL   H89019964   0.729   3.310   1.417 -0.6952 -0.4053  0.8308
   18MOL   H89119965   0.817   3.481   1.265  0.4511  0.6347  1.4589
   18MOL   H89219966   0.657   3.552   1.254  1.4339  0.8207  3.0071
   18MOL   H89319967   0.750   3.265   1.141  1.1285  0.5989 -0.7999
   18MOL   H89419968   0.590   3.308   1.172 -0.4367  1.2107  0.7639
   18MOL   H89519969   0.618   3.505   1.002  1.2192  0.8307  1.8226
   18MOL   H89619970   0.783   3.447   0.982 -0.4936 -1.0091 -1.1935
   18MOL   H89719971   0.526   3.304   0.949 -0.1047  0.1125 -0.6421
   18MOL   C89819972   0.680   3.249   0.821 -0.0178  0.0105  0.5379
   18MOL   O89919973   0.789   3.280   0.773  0.1333  0.5157  0.3662
   18MOL   C90019974   0.598   3.132   0.766 -1.1287  0.4267 -0.7298
   18MOL   C90119975   0.666   3.012   0.687  0.3750 -0.2674  0.4988
   18MOL   C90219976   0.726   3.061   0.554  0.1721  0.2666  0.0026
   18MOL   C90319977   0.827   2.962   0.481  0.0503  0.4821 -0.2170
   18MOL   C90419978   0.765   2.822   0.466  0.6606 -0.2630  0.4253
   18MOL   C90519979   0.621   2.811   0.409 -0.3264  0.6252  0.6722
   18MOL   C90619980   0.593   2.681   0.339 -0.1203 -0.9115  0.5126
   18MOL   C90719981   0.459   2.680   0.257  0.0714 -0.1828 -0.5696
   18MOL   C90819982   0.441   2.546   0.189  1.1518 -0.0180 -0.0023
   18MOL   C90919983   0.501   2.530   0.047  0.1003  1.1929 -0.1359
   18MOL   C91019984   0.483   2.386   7.678  0.6258  0.0252 -0.6406
   18MOL   O91119985   0.391   2.312   0.025  0.0953  0.4962 -0.0175
   18MOL   N91219986   0.568   2.355   7.575  0.0994 -0.0872 -0.0685
   18MOL   C91319987   0.558   2.240   7.487 -0.2879 -0.2450  0.1044
   18MOL   C91419988   0.670   2.132   7.509  0.7903  0.4556 -0.5692
   18MOL   C91519989   0.649   2.066   7.644 -0.2008  0.0324 -0.3171
   18MOL   C91619990   0.750   1.953   7.670  0.8908 -0.1195 -0.0231
   18MOL   C91719991   0.734   1.885   0.118 -0.6999 -0.2172 -0.0747
   18MOL   C91819992   0.852   1.784   0.138  0.2165  0.3848 -0.8561
   18MOL   N91919993   0.839   1.661   0.064  0.4646  0.4907  0.4790
   18MOL   H92019994   0.546   3.102   0.858  1.0442 -3.0337 -0.5584
   18MOL   H92119995   0.519   3.179   0.707 -1.2020  0.8790 -0.2800
   18MOL   H92219996   0.584   2.942   0.671  1.1898 -1.0191 -0.5141
   18MOL   H92319997   0.743   2.964   0.746  0.3097 -0.3564  0.5114
   18MOL   H92419998   0.775   3.156   0.574 -0.7155  0.4890  1.1394
   18MOL   H92519999   0.641   3.079   0.489 -1.4391 -0.9789  1.7006
   18MOL   H92620000   0.866   2.994   0.384  1.6630 -0.0423  0.2398
   18MOL   H92720001   0.913   2.959   0.548 -0.7786  2.0657  0.9361
   18MOL   H92820002   0.778   2.773   0.562  0.4758  0.0710  0.6189
   18MOL   H92920003   0.825   2.776   0.387  1.0591  0.7485  0.1323
   18MOL   H93020004   0.543   2.824   0.484  1.4752  1.8802  2.3877
   18MOL   H93120005   0.610   2.888   0.333  0.3949  0.0159 -0.0552
   18MOL   H93220006   0.612   2.603   0.411  2.1204 -0.0006  0.9478
   18MOL   H93320007   0.676   2.672   0.268  0.3394  0.5700  0.8251
   18MOL   H93420008   0.445   2.764   0.189 -1.8608 -1.5821 -1.9536
   18MOL   H93520009   0.384   2.686   0.336  3.5304 -0.8553  2.9346
   18MOL   H93620010   0.457   2.458   0.251 -1.3205 -0.5966 -0.1515
   18MOL   H93720011   0.335   2.531   0.170  0.5692  0.7748  2.4403
   18MOL   H93820012   0.466   2.605   7.668  1.1077  2.9920  1.2306
   18MOL   H93920013   0.608   2.547   0.055  0.2092  0.5683 -0.2408
   18MOL   H94020014   0.618   2.432   7.534 -2.3164  0.9595 -1.1673
   18MOL   H94120015   0.562   2.272   7.383 -2.4636  1.8298  0.6140
   18MOL   H94220016   0.464   2.184   7.492  1.1576 -2.8623 -0.8999
   18MOL   H94320017   0.672   2.050   7.438  2.5028 -2.2992  2.4763
   18MOL   H94420018   0.766   2.182   7.495  0.2247  0.8408 -3.3269
   18MOL   H94520019   0.661   2.143   0.028 -3.2241  0.0683  0.1837
   18MOL   H94620020   0.552   2.018   7.657  1.0035 -1.6670  2.8934
   18MOL   H94720021   0.853   1.988   7.661  0.5515  1.4034  1.5474
   18MOL   H94820022   0.744   1.879   7.590  0.3864 -1.0743  0.8870
   18MOL   H94920023   0.727   1.956   0.201  0.2304 -0.9134  0.6173
   18MOL   H95020024   0.632   1.846   0.117  0.0766 -2.3671  1.2592
   18MOL   H95120025   0.854   1.771   0.247  2.5077 -0.7655 -0.9972
   18MOL   H95220026   0.946   1.834   0.115  0.5750  1.1659  2.0216
   18MOL   H95320027   0.864   1.666   7.658 -2.6814  0.3966 -0.3821
   18MOL   C95420028   0.790   1.539   0.096  0.0905  0.1712 -0.5296
   18MOL   O95520029   0.764   1.504   0.212  0.0516  0.0613 -0.4140
   18MOL   C95620030   0.756   1.441   7.674 -0.6890 -0.1008  0.1164
   18MOL   C95720031   0.601   1.416   7.652  0.0774 -0.5061 -0.1990
   18MOL   C95820032   0.522   1.551   7.625 -0.0903 -0.3156  0.6235
   18MOL   C95920033   0.551   1.627   7.497 -0.1447 -0.0599  0.8577
   18MOL   C96020034   0.490   1.765   7.507 -0.1590  0.2615  0.6614
   18MOL   C96120035   0.339   1.775   7.497 -0.2030 -0.0547  0.3429
   18MOL   C96220036   0.285   1.916   7.499  0.0005 -0.2224  0.1573
   18MOL   C96320037   0.136   1.930   7.507 -0.2084  0.5091  0.9792
   18MOL   C96420038   0.084   2.062   7.548  0.0184 -0.3328  0.3624
   18MOL   C96520039   0.076   2.075   0.013  0.1456 -0.1143 -0.1538
   18MOL   C96620040   7.687   2.194   0.064 -0.0261 -0.1463  0.3185
   18MOL   O96720041   7.673   2.300   7.691  0.1291 -0.2981  0.2435
   18MOL   N96820042   7.633   2.175   0.184  0.1582 -0.1744  0.7117
   18MOL   C96920043   7.550   2.263   0.265 -0.5806  0.3656 -0.0750
   18MOL   C97020044   7.643   2.370   0.332  0.7443 -0.4894  0.5255
   18MOL   C97120045   7.580   2.479   0.419  0.1931  0.1916  0.2675
   18MOL   C97220046   0.001   2.575   0.478  0.2178  0.1517 -0.4555
   18MOL   C97320047   7.626   2.700   0.549 -0.7921 -0.1094 -0.3693
   18MOL   C97420048   0.043   2.798   0.605  0.4903 -0.3143 -0.5308
   18MOL   N97520049   0.114   2.859   0.490  0.3797  0.0909  0.1719
   18MOL   H97620050   0.794   1.483   7.581 -1.3401 -0.8753 -0.5089
   18MOL   H97720051   0.820   1.354   7.686  0.8606  0.7321 -1.7281
   18MOL   H97820052   0.564   1.362   0.047  0.2259 -0.8417 -0.3448
   18MOL   H97920053   0.598   1.340   7.575  0.3856 -1.8707  1.1103
   18MOL   H98020054   0.416   1.528   7.635 -0.6462  2.7370  2.4744
   18MOL   H98120055   0.516   1.618   0.019  0.4690 -0.3048  0.6532
   18MOL   H98220056   0.653   1.634   7.459 -0.7195  1.5897 -0.4364
   18MOL   H98320057   0.492   1.575   7.422 -0.4406  1.7805 -0.2070
   18MOL   H98420058   0.528   1.812   7.598 -1.4817  0.6411  1.0272
   18MOL   H98520059   0.528   1.826   7.426 -2.4089 -1.4372 -1.7383
   18MOL   H98620060   0.299   1.720   7.412 -0.4661  0.8917 -0.1601
   18MOL   H98720061   0.310   1.719   7.586  0.4031 -2.0050 -0.6576
   18MOL   H98820062   0.320   1.974   7.584 -3.4121 -0.8281  2.0509
   18MOL   H98920063   0.328   1.963   7.410  1.3776 -0.0703  0.8885
   18MOL   H99020064   0.090   1.907   7.411  1.2459 -1.3704  0.7003
   18MOL   H99120065   0.091   1.852   7.570 -0.6275  0.4301  0.5877
   18MOL   H99220066   7.673   2.058   7.513 -0.1184 -0.6230  0.7985
   18MOL   H99320067   0.137   2.146   7.504 -0.9005  0.0306 -0.0658
   18MOL   H99420068   0.046   1.983   0.062  0.0065 -1.6981 -3.1249
   18MOL   H99520069   0.175   2.091   0.054  0.9810  0.3107 -2.2851
   18MOL   H99620070   7.664   2.095   0.238 -2.0716 -1.3298  0.3724
   18MOL   H99720071   7.478   2.223   0.337  1.4655 -1.2686  1.1447
   18MOL   H99820072   7.479   2.318   0.204 -0.3283  2.5425  1.5524
   18MOL   H99920073   0.011   2.407   0.249 -0.6919 -1.1146 -0.8147
   18MOL     H120074   0.020   2.321   0.401  1.7121 -1.4091 -1.0628
   18MOL     H220075   7.530   2.447   0.511 -1.4657  1.3332 -0.2198
   18MOL     H320076   7.511   2.534   0.355  1.7711  1.2123 -0.5810
   18MOL     H420077   0.063   2.528   0.554 -2.1005  1.3100  2.2558
   18MOL     H520078   0.071   2.601   0.398  0.3040  1.5213  0.0390
   18MOL     H620079   7.568   2.657   0.631  0.2403 -1.4754 -0.3351
   18MOL     H720080   7.558   2.750   0.481  0.4618  2.5915  0.2860
   18MOL     H820081   7.669   2.872   0.651 -0.4195 -0.7292 -1.1424
   18MOL     H920082   0.108   2.751   0.678 -0.8872  0.2230  1.0512
   18MOL    H1020083   0.083   2.825   0.399 -1.8713  1.3045  0.4572
   18MOL    C1120084   0.217   2.946   0.499  1.0724 -0.1107  0.5700
   18MOL    O1220085   0.258   2.989   0.607  0.5126 -0.0602 -0.7574
   18MOL    C1320086   0.287   2.998   0.380 -0.6355 -0.2419 -0.6074
   18MOL    C1420087   0.320   3.147   0.409 -0.4457 -0.6300  0.2368
   18MOL    C1520088   0.384   3.220   0.293  0.2811 -0.2141  0.4199
   18MOL    C1620089   0.503   3.146   0.221 -0.3933  0.0226  0.2210
   18MOL    C1720090   0.548   3.220   0.094  0.1356 -0.1044  0.1491
   18MOL    C1820091   0.666   3.156   0.020 -0.0058 -0.3044 -0.3807
   18MOL    C1920092   0.621   3.033   7.626 -0.1527 -0.2002 -0.2880
   18MOL    C2020093   0.731   2.951   7.551  0.1243 -0.3188 -0.2597
   18MOL    C2120094   0.692   2.823   7.482 -0.6691  0.0199 -0.4364
   18MOL    C2220095   0.802   2.759   7.393 -0.0955 -0.2503  0.5323
   18MOL    C2320096   0.776   2.609   7.370  0.0026  0.5749 -0.2569
   18MOL    O2420097   0.710   2.538   7.444  0.1829 -0.1303  0.0317
   18MOL    N2520098   0.835   2.563   7.257  0.2681  0.2171 -0.0237
   18MOL    C2620099   0.805   2.441   7.192 -0.5445  0.6153 -0.3020
   18MOL    C2720100   0.684   2.466   7.096  0.1584  0.0184 -0.3778
   18MOL    C2820101   0.665   2.347   6.996 -0.3213  0.3573  0.4168
   18MOL    C2920102   0.614   2.224   7.073 -0.3235 -0.0262 -0.1794
   18MOL    C3020103   0.582   2.109   6.974  0.7518 -0.7472 -0.1768
   18MOL    C3120104   0.569   1.974   7.046  0.6641 -0.4718  0.3941
   18MOL    N3220105   0.518   1.886   6.943 -0.3755  0.9322  0.0414
   18MOL    H3320106   0.225   2.975   0.294  0.3495 -1.4759 -0.9949
   18MOL    H3420107   0.381   2.945   0.367 -0.2953  0.3498 -0.5922
   18MOL    H3520108   0.390   3.161   0.492 -1.5586  0.9297  0.9598
   18MOL    H3620109   0.232   3.198   0.450 -0.7399 -0.8466 -0.1306
   18MOL    H3720110   0.408   3.325   0.311 -0.6235  0.2998 -1.2142
   18MOL    H3820111   0.305   3.230   0.218  1.8213 -4.2699 -1.8694
   18MOL    H3920112   0.588   3.146   0.289 -0.8920  1.2016  0.8460
   18MOL    H4020113   0.486   3.041   0.196  0.6754  0.2120 -1.3589
   18MOL    H4120114   0.460   3.231   0.031  1.5463  0.6645 -1.7630
   18MOL    H4220115   0.565   3.324   0.121 -2.1059  0.4971 -0.6860
   18MOL    H4320116   0.724   3.232   7.659  1.7468 -0.9662  0.5428
   18MOL    H4420117   0.745   3.115   0.083  1.2818  1.2065 -0.9652
   18MOL    H4520118   0.577   2.962   0.005  0.7640 -0.2254  0.2613
   18MOL    H4620119   0.541   3.065   7.559  0.9696  1.2543 -0.9622
   18MOL    H4720120   0.774   3.028   7.487 -0.4986 -0.2093 -0.5486
   18MOL    H4820121   0.819   2.930   7.613 -0.7537  1.8512  1.8143
   18MOL    H4920122   0.599   2.835   7.426 -1.7687 -0.5009  1.2402
   18MOL    H5020123   0.664   2.763   7.568  1.9425  0.3942  0.7055
   18MOL    H5120124   0.806   2.799   7.292  1.4995 -2.0454 -0.1432
   18MOL    H5220125   0.904   2.768   7.428  0.1438 -0.1505 -0.1943
   18MOL    H5320126   0.916   2.612   7.223 -0.7416  1.1857 -1.0878
   18MOL    H5420127   0.798   2.357   7.262  1.3785  1.5857  1.1033
   18MOL    H5520128   0.894   2.423   7.132  0.6851 -1.1526  1.9286
   18MOL    H5620129   0.696   2.554   7.032 -1.9561  0.0798 -0.7089
   18MOL    H5720130   0.592   2.485   7.151  0.5597 -1.0977  0.7061
   18MOL    H5820131   0.761   2.327   6.949 -0.2753  0.6021  0.4060
   18MOL    H5920132   0.598   2.360   6.910  1.2939  0.5483 -0.8381
   18MOL    H6020133   0.526   2.252   7.131  0.8577  0.5247  1.4084
   18MOL    H6120134   0.683   2.194   7.152 -1.2113 -1.8518 -0.0848
   18MOL    H6220135   0.658   2.098   6.897 -0.4811 -0.3167 -1.4600
   18MOL    H6320136   0.491   2.131   6.918 -0.5366 -3.8260  0.5580
   18MOL    H6420137   0.506   1.967   7.135  0.0974 -3.2185 -0.1737
   18MOL    H6520138   0.662   1.931   7.082  0.0115 -3.1181 -0.9346
   18MOL    H6620139   0.418   1.878   6.952 -0.2685 -1.5030 -0.4133
   18MOL    C6720140   0.571   1.811   6.845 -0.3322 -0.1743 -0.0590
   18MOL    O6820141   0.691   1.796   6.839  0.0359 -0.0366  0.4473
   18MOL    C6920142   0.475   1.728   6.762 -0.0396  1.0838 -0.3097
   18MOL    C7020143   0.527   1.705   6.620 -0.4431 -0.0491  0.4299
   18MOL    C7120144   0.466   1.598   6.542 -0.0004  0.1321  0.7272
   18MOL    C7220145   0.316   1.627   6.506 -0.0803  0.6391 -0.1465
   18MOL    C7320146   0.291   1.759   6.421 -0.0335 -0.3934 -0.4465
   18MOL    C7420147   0.262   1.895   6.500 -0.2372  1.2920  0.4466
   18MOL    C7520148   0.116   1.917   6.541 -0.0197  0.7599  0.3035
   18MOL    C7620149   0.090   2.032   6.638 -0.3163  0.0748 -0.1318
   18MOL    C7720150   0.141   2.008   6.777 -0.3626 -0.3154 -0.5660
   18MOL    C7820151   0.115   2.122   6.871  0.0543  0.0902 -0.1352
   18MOL    C7920152   0.177   2.111   7.009  0.1064  0.6870 -0.0172
   18MOL    O8020153   0.236   2.001   7.048  0.5427  0.2714  0.1135
   18MOL    N8120154   0.180   2.217   7.095  0.2696  0.1296  0.1340
   18MOL    C8220155   0.220   2.215   7.235 -0.2035 -0.0905  0.1495
   18MOL    C8320156   0.241   2.343   7.309 -0.9242  0.8240  0.4893
   18MOL    C8420157   0.131   2.452   7.300  0.1156  0.0717 -0.4263
   18MOL    C8520158   0.017   2.415   7.398 -0.3820 -0.1573  0.8688
   18MOL    C8620159   7.580   2.502   7.386  0.3091 -0.0607 -0.3464
   18MOL    C8720160   7.493   2.491   7.520  0.2654  0.2463 -0.3132
   18MOL    N8820161   7.368   2.561   7.508 -0.0652 -0.0962  0.3981
   18MOL    H8920162   0.375   1.771   6.764 -1.5690 -2.3383  0.8745
   18MOL    H9020163   0.454   1.635   6.815 -0.2895  1.2665 -0.0876
   18MOL    H9120164   0.517   1.802   6.572 -3.1844 -0.5800 -0.1445
   18MOL    H9220165   0.635   1.686   6.621 -0.8625 -2.6923  1.8597
   18MOL    H9320166   0.527   1.568   6.456 -0.0174 -1.5903  1.2817
   18MOL    H9420167   0.470   1.502   6.595 -1.0471 -1.4739 -1.9742
   18MOL    H9520168   0.278   1.552   6.437 -1.4898 -0.0293  1.3243
   18MOL    H9620169   0.252   1.617   6.594  1.9400  4.4375  1.9262
   18MOL    H9720170   0.378   1.776   6.357  1.3280  0.1686  1.4775
   18MOL    H9820171   0.208   1.746   6.352 -0.7694  0.4739  0.2496
   18MOL    H9920172   0.318   1.902   6.593  1.1553 -0.5576 -0.2230
   18MOL   H10020173   0.292   1.978   6.436 -1.1108 -0.1651 -1.9113
   18MOL   H10120174   0.085   1.825   6.590  0.7824 -0.1805 -0.9480
   18MOL   H10220175   0.057   1.937   6.452 -0.6991  0.9006  0.7765
   18MOL   H10320176   0.149   2.115   6.599  1.2215 -1.2734 -0.7310
   18MOL   H10420177   7.676   2.062   6.634 -0.8388 -1.8179 -1.0792
   18MOL   H10520178   0.249   1.994   6.785 -0.3192  0.6948  0.6441
   18MOL   H10620179   0.096   1.919   6.821 -0.3285 -0.2318 -0.3644
   18MOL   H10720180   0.168   2.204   6.824  0.6453 -0.0918  0.2087
   18MOL   H10820181   0.012   2.157   6.864  0.3293  0.5620 -2.0151
   18MOL   H10920182   0.122   2.291   7.057 -0.6288 -0.3402  0.5631
   18MOL   H11020183   0.303   2.152   7.267  0.4675 -0.5226 -2.3074
   18MOL   H11120184   0.131   2.160   7.268  0.5599  0.1923  2.7763
   18MOL   H11220185   0.337   2.374   7.269 -1.1783 -0.0240 -0.8064
   18MOL   H11320186   0.276   2.328   7.411 -0.5927  0.1005  0.2719
   18MOL   H11420187   0.089   2.456   7.199 -0.7935 -2.9557 -0.2425
   18MOL   H11520188   0.178   2.546   7.328  0.5075 -0.7226  1.6957
   18MOL   H11620189   7.682   2.310   7.397  1.9151 -0.7867  1.3801
   18MOL   H11720190   0.067   2.432   7.493  1.6627 -2.2287  0.2128
   18MOL   H11820191   7.605   2.607   7.378  1.1349 -0.1224  1.2786
   18MOL   H11920192   7.527   2.471   7.296 -0.5743  2.7297 -0.8308
   18MOL   H12020193   7.467   2.385   7.524 -0.4727  0.3228 -2.2640
   18MOL   H12120194   7.564   2.521   7.597  0.0473 -0.4465  0.1646
   18MOL   H12220195   7.342   2.561   7.410 -3.1149  1.4866  1.1436
   18MOL   H12320196   7.291   2.511   7.550  0.5811 -0.7634  0.8019
   19MOL     C120197   1.647   2.724   4.159  0.2288 -0.8067 -0.8708
   19MOL     O220198   1.588   2.669   4.247  0.5668  0.2155  0.0038
   19MOL     C320199   1.560   2.811   4.065  0.4806 -0.0465 -0.0523
   19MOL     C420200   1.520   2.750   3.929  0.3319 -0.0088  0.3950
   19MOL     C520201   1.453   2.605   3.929  0.5550 -0.1674  0.1097
   19MOL     C620202   1.421   2.557   3.787  0.3808  0.0366 -0.8053
   19MOL     C720203   1.387   2.409   3.778  0.0411 -0.4515  0.5207
   19MOL     C820204   1.367   2.369   3.626 -0.3086  0.6249  0.6637
   19MOL     C920205   1.312   2.222   3.609  0.1422 -0.0069 -0.1955
   19MOL    C1020206   1.317   2.168   3.464 -0.0586 -0.3316  0.3284
   19MOL    C1120207   1.200   2.065   3.437 -0.7671  0.2454 -0.6353
   19MOL    C1220208   1.165   2.029   3.288  0.0908 -0.4470 -0.6009
   19MOL    C1320209   1.279   1.960   3.222  0.6030  0.4127  0.0668
   19MOL    O1420210   1.337   1.862   3.271 -0.2877  0.5917  0.5796
   19MOL    N1520211   1.316   1.995   3.099 -0.3161  0.0341  0.0813
   19MOL    C1620212   1.436   1.955   3.035 -0.1466 -0.2803 -0.0457
   19MOL    C1720213   1.492   2.065   2.941 -0.7889  0.1369 -0.0837
   19MOL    C1820214   1.623   2.018   2.865  0.1291  0.6201 -0.6827
   19MOL    C1920215   1.609   1.927   2.740 -0.7477  0.5392 -0.2319
   19MOL    C2020216   1.566   2.000   2.609 -0.7491  0.7914  0.3557
   19MOL    C2120217   1.686   2.078   2.545 -0.2322 -0.4212 -0.0584
   19MOL    N2220218   1.652   2.127   2.416  0.2265 -0.3362  0.3450
   19MOL    H2320219   1.615   2.903   4.044 -1.7820  1.5225  0.7508
   19MOL    H2420220   1.481   2.854   4.127  1.6797 -0.5476  1.8801
   19MOL    H2520221   1.615   2.752   3.876 -1.0531  1.5645 -2.0689
   19MOL    H2620222   1.448   2.818   3.884 -0.0127 -0.0673  0.8498
   19MOL    H2720223   1.369   2.620   3.996  0.4921  1.1606 -0.2497
   19MOL    H2820224   1.522   2.530   3.969  0.6475 -0.4697 -0.6123
   19MOL    H2920225   1.334   2.608   3.745 -0.2331 -0.0957  0.3011
   19MOL    H3020226   1.507   2.571   3.722  1.5534  1.4944  1.0067
   19MOL    H3120227   1.301   2.387   3.840 -0.0250 -0.9912  0.2418
   19MOL    H3220228   1.470   2.358   3.826  0.7354 -0.0878 -0.2707
   19MOL    H3320229   1.295   2.438   3.580 -0.1674 -0.1620 -0.7586
   19MOL    H3420230   1.460   2.386   3.573 -0.4231  0.4731  0.4129
   19MOL    H3520231   1.367   2.156   3.676 -2.0417 -0.7331  0.9132
   19MOL    H3620232   1.210   2.223   3.647  0.7621 -0.3308  1.5117
   19MOL    H3720233   1.309   2.260   3.407  0.1154 -0.8619 -0.5607
   19MOL    H3820234   1.412   2.122   3.436  0.8917  1.2188  0.9224
   19MOL    H3920235   1.111   2.109   3.482  0.2326 -2.4197  4.2615
   19MOL    H4020236   1.219   1.976   3.497  2.4817  1.0024 -0.5042
   19MOL    H4120237   1.084   1.958   3.279 -0.2142 -0.0327 -1.1650
   19MOL    H4220238   1.132   2.116   3.231  1.2202  1.8714  2.1455
   19MOL    H4320239   1.260   2.066   3.055  2.0230  0.9575 -1.4894
   19MOL    H4420240   1.420   1.859   2.987 -1.3490  0.6879 -1.6296
   19MOL    H4520241   1.508   1.941   3.116 -2.0537  1.2985  1.9678
   19MOL    H4620242   1.506   2.157   2.997  0.6697 -1.6838  2.6783
   19MOL    H4720243   1.416   2.092   2.868 -1.6905  0.6738  1.0489
   19MOL    H4820244   1.667   2.117   2.849  0.1518  0.6658 -0.3496
   19MOL    H4920245   1.692   1.967   2.932  0.6642  2.8856  0.5401
   19MOL    H5020246   1.566   1.827   2.752 -0.2217  0.0716 -2.1552
   19MOL    H5120247   1.715   1.905   2.727 -1.3737 -3.1725  0.2694
   19MOL    H5220248   1.530   1.931   2.533 -1.0318  0.0240  1.1866
   19MOL    H5320249   1.474   2.054   2.631 -1.0091  0.6692 -0.4069
   19MOL    H5420250   1.694   2.168   2.606 -3.1652  0.8415 -1.4347
   19MOL    H5520251   1.784   2.030   2.543  0.5903  1.2400 -1.6641
   19MOL    H5620252   1.707   2.102   2.335  0.4777  0.7614  0.1772
   19MOL    H5720253   1.756   2.728   4.151  0.0626  1.0004 -2.6402
   19MOL    C5820254   1.574   2.236   2.393  0.3713  0.0940 -0.2816
   19MOL    O5920255   1.500   2.292   2.485 -0.4871  0.2636  0.3944
   19MOL    C6020256   1.575   2.291   2.251 -0.3960  0.0606 -0.1103
   19MOL    C6120257   1.519   2.438   2.238  0.0861  0.2465 -0.8271
   19MOL    C6220258   1.619   2.547   2.288 -0.2616  0.3204  0.8283
   19MOL    C6320259   1.573   2.692   2.252  0.0350 -0.1413  0.0560
   19MOL    C6420260   1.465   2.742   2.344  0.3782  0.3740  0.2519
   19MOL    C6520261   1.439   2.898   2.339 -0.2292 -0.8534 -0.0689
   19MOL    C6620262   1.382   2.943   2.201 -0.1100  0.2452  0.1945
   19MOL    C6720263   1.233   2.890   2.174 -0.0744 -0.8851  0.4770
   19MOL    C6820264   1.122   2.971   2.253 -0.8697  0.0083  0.9892
   19MOL    C6920265   0.978   2.923   2.241 -0.1550  0.5191 -0.6383
   19MOL    C7020266   0.877   3.012   2.317 -0.4347 -0.3100  0.1215
   19MOL    O7120267   0.909   3.122   2.356 -0.5969  0.1475  0.2942
   19MOL    N7220268   0.757   2.958   2.337 -0.0063  0.5422 -0.1561
   19MOL    C7320269   0.649   3.026   2.408  0.1025 -0.0796 -1.0058
   19MOL    C7420270   0.584   3.142   2.334 -0.5770  0.3026  0.4090
   19MOL    C7520271   0.455   3.191   2.392 -0.7937  0.0645 -1.1905
   19MOL    C7620272   0.409   3.325   2.318 -0.0377  0.6612  0.2104
   19MOL    C7720273   0.265   3.355   2.360 -0.1699  0.0620  0.1864
   19MOL    C7820274   0.207   3.486   2.294 -0.1568  0.1976 -0.6419
   19MOL    N7920275   0.065   3.514   2.316  0.0640 -0.3613 -0.1692
   19MOL    H8020276   1.529   2.216   2.186 -0.0214  0.1868 -0.5187
   19MOL    H8120277   1.680   2.296   2.223 -0.0431 -0.3195  1.1005
   19MOL    H8220278   1.501   2.460   2.132  1.8214 -1.1336 -1.4436
   19MOL    H8320279   1.423   2.449   2.288  0.8031 -2.5657  1.2706
   19MOL    H8420280   1.709   2.520   2.233  0.5453 -0.7795  2.6317
   19MOL    H8520281   1.637   2.537   2.395 -2.6255  1.7414  1.3852
   19MOL    H8620282   1.532   2.707   2.152 -2.0444  1.3974  1.0914
   19MOL    H8720283   1.666   2.745   2.271  0.2770 -0.2920 -0.7095
   19MOL    H8820284   1.373   2.687   2.323  0.6492  0.6574 -1.8198
   19MOL    H8920285   1.492   2.718   2.446 -0.1092  1.3568  0.6174
   19MOL    H9020286   1.528   2.955   2.368 -0.2641 -1.4403  1.2347
   19MOL    H9120287   1.373   2.925   2.421 -1.3683  0.2364 -1.3277
   19MOL    H9220288   1.449   2.920   2.119 -1.8358  0.3630 -1.2735
   19MOL    H9320289   1.372   3.052   2.210  1.2227  0.5749 -1.9319
   19MOL    H9420290   1.208   2.907   2.069 -0.0645 -0.1477  0.5931
   19MOL    H9520291   1.226   2.781   2.181  0.6374 -1.0717 -1.3355
   19MOL    H9620292   1.124   3.075   2.220  0.4049 -0.7128 -1.3597
   19MOL    H9720293   1.154   2.980   2.356  0.7522 -1.4782  0.6532
   19MOL    H9820294   0.953   2.925   2.135 -1.2140 -0.4324 -0.4045
   19MOL    H9920295   0.960   2.820   2.272  2.2859  0.2973  0.1689
   19MOL   H10020296   0.735   2.862   2.314  2.3772 -0.2084  0.5874
   19MOL   H10120297   0.688   3.070   2.500 -0.5628 -1.9978  0.2122
   19MOL   H10220298   0.572   2.953   2.433  0.0140  0.4207  0.2027
   19MOL   H10320299   0.647   3.231   2.343 -0.5329  0.4971 -1.5762
   19MOL   H10420300   0.578   3.110   2.230  1.1676  1.1719  0.0254
   19MOL   H10520301   0.465   3.205   2.499 -0.1591  2.5478 -1.5225
   19MOL   H10620302   0.376   3.118   2.380  0.8904 -2.3659  1.8957
   19MOL   H10720303   0.478   3.403   2.351 -0.0445  1.7064 -2.1737
   19MOL   H10820304   0.412   3.323   2.209  1.6338  0.4465  0.2434
   19MOL   H10920305   0.251   3.361   2.468  0.6989  1.0440  0.2592
   19MOL   H11020306   0.208   3.265   2.337 -1.2892  0.3125  1.8607
   19MOL   H11120307   0.238   3.485   2.190  2.1764  0.3365  0.0195
   19MOL   H11220308   0.262   3.571   2.335 -1.2954  0.4620  0.3834
   19MOL   H11320309   7.691   3.476   2.249  1.6159 -0.2506 -1.7885
   19MOL   C11420310   0.012   3.588   2.420 -0.1661 -0.1310 -0.9381
   19MOL   O11520311   0.085   3.641   2.506  0.0992 -0.0985 -0.0788
   19MOL   C11620312   7.553   3.620   2.418 -0.3164  0.0289 -0.2736
   19MOL   C11720313   7.483   3.583   2.546 -0.3543  0.2294 -0.8687
   19MOL   C11820314   7.469   3.434   2.575  0.0661  0.2528 -0.2809
   19MOL   C11920315   7.397   3.398   2.707  0.2554  0.1479 -0.9528
   19MOL   C12020316   7.371   3.248   2.749 -0.1784 -0.8715  0.7977
   19MOL   C12120317   7.345   3.242   2.898  0.3877 -0.6120  0.0684
   19MOL   C12220318   7.444   3.156   2.967  0.2518  0.7241 -0.5236
   19MOL   C12320319   7.586   3.222   2.972  0.1618  0.2602  0.0477
   19MOL   C12420320   7.681   3.142   3.062 -0.4774  0.7039  0.3186
   19MOL   C12520321   7.637   3.127   3.213 -0.0173 -0.2472 -0.8218
   19MOL   C12620322   7.642   3.258   3.290 -0.7707 -0.0929 -0.0915
   19MOL   O12720323   0.039   3.336   3.270 -0.1218 -0.2032 -0.7564
   19MOL   N12820324   7.556   3.256   3.396 -0.0599  0.4686 -0.8867
   19MOL   C12920325   7.549   3.371   3.488 -0.3831  0.6351 -0.0942
   19MOL   C13020326   7.505   3.308   3.624 -0.1718 -0.2153 -0.5259
   19MOL   C13120327   7.534   3.387   3.748 -0.1925  0.2545  0.4762
   19MOL   C13220328   7.538   3.321   3.885 -0.4716 -0.3570 -0.2711
   19MOL   C13320329   7.541   3.419   4.007  0.3386 -0.1346 -0.5370
   19MOL   C13420330   7.491   3.360   4.132  0.1888  0.3059  0.8949
   19MOL   N13520331   7.561   3.236   4.172 -0.3136 -0.1879  0.6710
   19MOL   H13620332   7.537   3.724   2.391 -2.3123 -0.5125 -1.2966
   19MOL   H13720333   7.507   3.569   2.333 -0.4532 -0.7844  0.2769
   19MOL   H13820334   7.381   3.621   2.548  0.7165  3.1053  1.2219
   19MOL   H13920335   7.527   3.630   2.634  2.4566 -1.3045 -1.3918
   19MOL   H14020336   7.412   3.396   2.490  1.7002 -1.7867 -0.5221
   19MOL   H14120337   7.563   3.379   2.570 -0.2822 -0.3301 -0.5224
   19MOL   H14220338   7.438   3.460   2.786  1.2930  1.2297 -2.3032
   19MOL   H14320339   7.297   3.441   2.715 -0.4415 -1.7785  1.3055
   19MOL   H14420340   7.287   3.217   2.687  1.1897 -0.8695 -1.1090
   19MOL   H14520341   7.457   3.193   2.712  0.5655  0.7476  0.0355
   19MOL   H14620342   7.250   3.190   2.912  0.2247 -1.2901 -2.9667
   19MOL   H14720343   7.338   3.336   2.952  1.4577 -1.0130  0.9073
   19MOL   H14820344   7.407   3.137   3.068  0.0674 -1.4860 -0.9907
   19MOL   H14920345   7.457   3.058   2.922 -1.0564  1.0001 -1.5345
   19MOL   H15020346   7.569   3.323   3.010 -0.7497  1.1458 -2.5965
   19MOL   H15120347   7.628   3.248   2.875  2.5669  1.1391  1.2708
   19MOL   H15220348   0.090   3.184   3.056  0.0003 -0.6098 -1.4671
   19MOL   H15320349   0.010   3.040   3.027 -0.9436  0.7374 -0.0463
   19MOL   H15420350   0.006   3.046   3.254  0.7603  1.0198  0.5696
   19MOL   H15520351   7.539   3.079   3.217  1.4272 -3.1695  1.0357
   19MOL   H15620352   7.500   3.172   3.404  0.7445  0.0892  1.0247
   19MOL   H15720353   7.481   3.440   3.439 -0.1416  0.5090 -0.6083
   19MOL   H15820354   7.644   3.423   3.486 -0.5094  0.8568 -2.8003
   19MOL   H15920355   7.572   3.223   3.636  2.5963  1.9740  0.0095
   19MOL   H16020356   7.399   3.283   3.623 -0.0132 -0.8810 -0.8464
   19MOL   H16120357   7.634   3.430   3.738  0.5026 -0.6751  3.1086
   19MOL   H16220358   7.464   3.470   3.748  0.5220  0.8991  3.0913
   19MOL   H16320359   7.442   3.270   3.896 -0.7383 -0.2965 -2.2201
   19MOL   H16420360   7.629   3.261   3.889 -0.2063  0.0749  0.2197
   19MOL   H16520361   7.495   3.517   3.995 -0.5933 -0.5577 -0.4599
   19MOL   H16620362   7.645   3.448   4.021  0.8824 -1.4688 -1.6190
   19MOL   H16720363   7.492   3.432   4.214  1.3417  1.3496 -0.0025
   19MOL   H16820364   7.389   3.329   4.113  1.1478 -2.8328  0.5741
   19MOL   H16920365   7.654   3.245   4.210  0.2965  0.8994 -1.0387
   19MOL   C17020366   7.526   3.111   4.128 -0.0568  0.6816 -0.1590
   19MOL   O17120367   7.411   3.078   4.098  0.1582 -0.6218  0.4962
   19MOL   C17220368   7.640   3.004   4.125  0.1192 -0.3743  0.2375
   19MOL   C17320369   7.666   2.942   3.985  0.5864  0.2557  0.0062
   19MOL   C17420370   7.571   2.831   3.942  0.0333  0.7394 -0.1059
   19MOL   C17520371   7.600   2.741   3.826  0.2214  0.4563 -0.7397
   19MOL   C17620372   7.646   2.809   3.693 -0.3094 -0.7215  0.1601
   19MOL   C17720373   7.652   2.704   3.579  0.2689  0.1301  0.0942
   19MOL   C17820374   0.040   2.766   3.460 -0.3844 -0.6936  0.1940
   19MOL   C17920375   0.191   2.801   3.481  0.4872  0.1823  0.4404
   19MOL   C18020376   0.259   2.882   3.366  0.0997 -0.4965  0.5778
   19MOL   C18120377   0.269   2.817   3.222 -0.4213 -0.1073 -0.5232
   19MOL   C18220378   0.293   2.663   3.225 -0.1533  0.2146  0.1631
   19MOL   O18320379   0.378   2.621   3.301 -0.2528 -0.3448 -0.8104
   19MOL   N18420380   0.227   2.582   3.139 -0.0446 -0.0112 -0.5912
   19MOL   C18520381   0.238   2.434   3.129  0.0056 -0.3258  0.3919
   19MOL   C18620382   0.264   2.392   2.983 -0.1249  0.5694 -0.0258
   19MOL   C18720383   0.280   2.241   2.979  0.0169 -0.1504  0.0024
   19MOL   C18820384   0.216   2.191   2.853  0.6275  0.2648  0.4082
   19MOL   C18920385   0.062   2.185   2.863  0.6950  0.6727  0.3627
   19MOL   C19020386   0.009   2.164   2.724 -0.7737 -0.0312  1.2141
   19MOL   N19120387   7.559   2.138   2.718  0.4158 -0.4474  0.5732
   19MOL   H19220388   0.036   3.050   4.171  0.2151  1.6538 -1.8945
   19MOL   H19320389   7.610   2.930   4.199  1.3862  0.2168  1.3600
   19MOL   H19420390   0.076   2.905   3.998  0.4871  0.5648  1.7556
   19MOL   H19520391   7.661   3.022   3.911 -1.1083  1.2805  1.1890
   19MOL   H19620392   7.467   2.865   3.945  0.1800  1.1260  1.3747
   19MOL   H19720393   7.567   2.763   4.027 -0.4892 -3.5064 -3.3801
   19MOL   H19820394   7.679   2.677   3.866 -0.9474  0.2525  1.2896
   19MOL   H19920395   7.520   2.668   3.811  0.0513  0.6744 -0.9016
   19MOL   H20020396   7.575   2.889   3.671  1.6977  1.2135  0.5334
   19MOL   H20120397   0.053   2.854   3.704 -1.0422  1.8789 -3.0213
   19MOL   H20220398   7.554   2.664   3.552 -0.8797  0.8691  3.0146
   19MOL   H20320399   0.018   2.626   3.629 -0.4494  0.6253  1.7058
   19MOL   H20420400   0.037   2.702   3.372  1.1437  1.7477 -1.7057
   19MOL   H20520401   7.678   2.853   3.420  1.5478 -0.4670 -2.0052
   19MOL   H20620402   0.214   2.850   3.576 -0.7336 -0.2706  0.9788
   19MOL   H20720403   0.240   2.703   3.488 -2.9507 -1.9747 -3.4797
   19MOL   H20820404   0.363   2.901   3.393  0.1214 -0.4864  0.4861
   19MOL   H20920405   0.216   2.982   3.355 -1.3732 -1.2255 -0.4719
   19MOL   H21020406   0.170   2.827   3.177 -0.5598 -2.6940 -0.8792
   19MOL   H21120407   0.328   2.880   3.156 -0.4582 -1.4023 -1.8310
   19MOL   H21220408   0.153   2.623   3.084 -0.4147  2.3504  1.5931
   19MOL   H21320409   0.149   2.392   3.175  0.5525 -2.9069 -0.8024
   19MOL   H21420410   0.328   2.394   3.176  0.6439 -1.0173 -1.3510
   19MOL   H21520411   0.182   2.437   2.928 -1.0886  1.0560  1.7834
   19MOL   H21620412   0.355   2.443   2.951 -0.0888  0.7701  0.3868
   19MOL   H21720413   0.387   2.218   2.980 -0.1685 -1.0819 -0.4324
   19MOL   H21820414   0.235   2.179   3.057 -0.5139 -0.1901 -0.3346
   19MOL   H21920415   0.267   2.099   2.822 -0.6697 -0.3529  0.0425
   19MOL   H22020416   0.233   2.258   2.769 -0.0413  1.0750  0.9250
   19MOL   H22120417   0.033   2.280   2.908 -1.6732  0.9689 -1.6648
   19MOL   H22220418   0.035   2.097   2.922 -1.1089  1.1643  0.3107
   19MOL   H22320419   0.075   2.090   2.679 -0.9884  0.3229  0.3174
   19MOL   H22420420   0.043   2.250   2.666 -1.2878 -0.4573  0.2616
   19MOL   H22520421   7.525   2.051   2.682 -2.3407  0.5009  0.7793
   19MOL   C22620422   7.465   2.234   2.728  0.0432 -0.0709 -0.6706
   19MOL   O22720423   7.493   2.348   2.742  0.6448  0.0585  0.3424
   19MOL   C22820424   7.322   2.188   2.730  0.8570 -0.1108  0.0992
   19MOL   C22920425   7.229   2.255   2.828  0.2450 -0.3058  0.0450
   19MOL   C23020426   7.248   2.204   2.975  0.2263 -0.1398 -0.0660
   19MOL   C23120427   7.159   2.281   3.075  0.5237  0.2780  0.8458
   19MOL   C23220428   7.020   2.217   3.101 -0.1035 -0.2912 -0.4429
   19MOL   C23320429   6.942   2.291   3.211  0.9127 -0.0405  0.1024
   19MOL   C23420430   6.791   2.263   3.222 -0.4137 -0.6127 -0.2130
   19MOL   C23520431   6.717   2.360   3.317  1.1635 -0.2720  0.4347
   19MOL   C23620432   6.570   2.339   3.306  1.4168 -0.7028 -0.3218
   19MOL   C23720433   6.496   2.438   3.390 -0.1305 -0.1909 -0.6271
   19MOL   C23820434   6.532   2.422   3.540 -0.2286 -0.0227 -0.1510
   19MOL   O23920435   6.501   2.322   3.596  0.5067  0.2571  0.1655
   19MOL   N24020436   6.598   2.520   3.601 -0.0059  0.0877  0.4105
   19MOL   C24120437   6.664   2.512   3.734 -0.0624  0.6245 -0.4957
   19MOL   C24220438   6.811   2.470   3.723  0.4752  0.1762 -0.5236
   19MOL   C24320439   6.883   2.576   3.637  0.0501 -0.2527 -0.2205
   19MOL   C24420440   7.036   2.579   3.645  0.4599  0.9321 -0.0250
   19MOL   C24520441   7.088   2.439   3.620 -0.5095 -0.5165 -0.8147
   19MOL   C24620442   7.246   2.452   3.609 -0.1326  0.3157  0.5047
   19MOL   N24720443   7.321   2.432   3.739  0.5648  0.2042  0.1572
   19MOL   H24820444   7.306   2.080   2.738  1.1888 -0.0575  1.5816
   19MOL   H24920445   7.294   2.200   2.625 -1.1067  2.4607  0.8771
   19MOL   H25020446   7.243   2.362   2.811 -2.3702 -0.0731 -0.7965
   19MOL   H25120447   7.132   2.219   2.795 -0.1711  0.0753  0.8475
   19MOL   H25220448   7.220   2.100   2.985  0.7089 -0.2586  0.0552
   19MOL   H25320449   7.351   2.201   3.011  0.3703  0.5428 -0.3911
   19MOL   H25420450   7.161   2.385   3.045  1.1140  0.1271  0.3590
   19MOL   H25520451   7.216   2.290   3.167  3.5506  1.5167 -1.0938
   19MOL   H25620452   7.023   2.108   3.103  0.6857 -0.2677 -0.1765
   19MOL   H25720453   6.977   2.228   3.001  1.2457  3.7887 -0.6710
   19MOL   H25820454   6.981   2.255   3.307  1.0901  0.4322  0.2104
   19MOL   H25920455   6.958   2.398   3.204 -2.0140  0.3611 -1.0461
   19MOL   H26020456   6.775   2.156   3.236  0.8952 -1.0503 -1.8155
   19MOL   H26120457   6.752   2.278   3.121  1.2468  0.0439 -0.7729
   19MOL   H26220458   6.767   2.335   3.410 -0.8249  0.6131  1.7638
   19MOL   H26320459   6.735   2.464   3.289 -0.3062  0.5232  2.3868
   19MOL   H26420460   6.533   2.344   3.203 -0.7289 -1.6284  0.3637
   19MOL   H26520461   6.547   2.239   3.344 -1.1711 -0.4786 -1.1459
   19MOL   H26620462   6.523   2.536   3.350  2.2034 -0.1699  0.9096
   19MOL   H26720463   6.389   2.433   3.369 -0.6992  2.1982  1.4627
   19MOL   H26820464   6.620   2.606   3.553 -0.9247  1.4741  2.4173
   19MOL   H26920465   6.620   2.440   3.802 -1.2244  0.0479 -1.8111
   19MOL   H27020466   6.644   2.602   3.792 -3.0204  0.2834 -0.9130
   19MOL   H27120467   6.819   2.375   3.672 -0.5936 -0.5694  0.6694
   19MOL   H27220468   6.856   2.471   3.823 -0.9127  2.7118  0.1417
   19MOL   H27320469   6.854   2.558   3.533  1.2672 -0.4162 -0.5336
   19MOL   H27420470   6.844   2.675   3.664  1.5844 -0.1200  1.5927
   19MOL   H27520471   7.070   2.612   3.744 -1.8216 -0.9970  1.4512
   19MOL   H27620472   7.073   2.646   3.568 -0.9581  2.8490  0.9151
   19MOL   H27720473   7.048   2.399   3.527 -2.6675  1.2633 -0.6871
   19MOL   H27820474   7.054   2.366   3.694 -2.8794 -1.7373 -3.0441
   19MOL   H27920475   7.277   2.550   3.571 -1.9709  0.3529 -0.9354
   19MOL   H28020476   7.278   2.381   3.534 -0.9563  0.9634 -0.4649
   19MOL   H28120477   7.288   2.486   3.818  2.2407  0.9416  0.3781
   19MOL   C28220478   7.414   2.339   3.760  0.2844  0.4363  0.0743
   19MOL   O28320479   7.468   2.275   3.664  0.3542  0.8842 -0.0007
   19MOL   C28420480   7.470   2.333   3.902  0.3112  0.1567  0.8062
   19MOL   C28520481   7.614   2.335   3.905 -0.2360 -0.6175 -0.0194
   19MOL   C28620482   7.678   2.359   4.041  0.6525  0.5025 -0.1868
   19MOL   C28720483   7.653   2.492   4.112  0.0888 -0.4789 -0.2937
   19MOL   C28820484   0.023   2.505   4.244 -0.3587 -0.3921  1.0386
   19MOL   C28920485   7.686   2.628   4.323 -0.3563  0.2011  0.1196
   19MOL   C29020486   0.120   2.691   4.391  0.2763 -0.5983  0.7366
   19MOL   C29120487   0.084   2.807   4.488 -0.0767 -0.2392  0.6152
   19MOL   C29220488   0.204   2.907   4.506 -0.0327  0.1800  0.5469
   19MOL   C29320489   0.162   3.033   4.586 -0.8012  0.8752 -0.3841
   19MOL   C29420490   0.055   3.119   4.530 -0.5843  0.4585  0.6204
   19MOL   O29520491   0.058   3.167   4.415  0.1592 -0.0639  0.5698
   19MOL   N29620492   7.637   3.140   4.603  0.1153 -0.0868 -0.7184
   19MOL   C29720493   7.537   3.241   4.568  0.5314  0.6932  0.2236
   19MOL   C29820494   7.409   3.179   4.516  0.4568  0.2546 -0.2585
   19MOL   C29920495   7.298   3.278   4.470 -0.1663  0.3802 -0.1829
   19MOL   C30020496   7.164   3.209   4.446  0.2407 -0.0810 -0.8369
   19MOL   C30120497   7.155   3.154   4.304  0.0609 -0.2533  0.4366
   19MOL   C30220498   7.117   3.256   4.194  0.3177  0.9321 -0.0370
   19MOL   N30320499   7.137   3.204   4.054 -0.4486  0.1253  0.6206
   19MOL   H30420500   7.430   2.411   3.966 -2.1253 -1.5286  1.4138
   19MOL   H30520501   7.449   2.237   3.948  0.6571  0.6596  2.0306
   19MOL   H30620502   7.641   2.411   3.832 -0.6129  0.0711  0.5424
   19MOL   H30720503   7.656   2.244   3.862 -1.1154 -1.1411  0.2189
   19MOL   H30820504   7.641   2.277   4.104  3.2413 -0.3848  0.2356
   19MOL   H30920505   0.093   2.338   4.035  0.5866  0.3119 -0.7817
   19MOL   H31020506   7.548   2.517   4.125  0.3434 -0.9105  2.9069
   19MOL   H31120507   7.688   2.579   4.057  1.0349 -0.6922 -0.0483
   19MOL   H31220508   0.004   2.425   4.316 -1.6597 -0.9699  0.0751
   19MOL   H31320509   0.131   2.498   4.231 -0.5789  1.2528 -2.0293
   19MOL   H31420510   7.637   2.701   4.259  0.7476  0.9033  0.0789
   19MOL   H31520511   7.616   2.594   4.400 -0.5473 -2.4897 -1.1949
   19MOL   H31620512   0.197   2.717   4.318  0.2463  1.3168  1.3703
   19MOL   H31720513   0.169   2.609   4.443  0.9798 -0.1020  0.8596
   19MOL   H31820514   0.059   2.757   4.582  0.4866  0.9621  1.4141
   19MOL   H31920515   7.690   2.848   4.434  1.2051 -0.1510 -1.4088
   19MOL   H32020516   0.293   2.858   4.546 -0.6789 -1.8571 -0.4534
   19MOL   H32120517   0.233   2.944   4.408 -2.8201 -0.3661 -0.5245
   19MOL   H32220518   0.122   2.981   4.673  1.1877 -1.4639 -0.8077
   19MOL   H32320519   0.238   3.099   4.627  1.4333 -0.1780 -2.6788
   19MOL   H32420520   7.641   3.107   4.699 -2.6042  1.6072  0.0146
   19MOL   H32520521   7.564   3.312   4.490  1.2707  0.1044 -0.0620
   19MOL   H32620522   7.510   3.304   4.652 -3.0681  0.2596 -0.4953
   19MOL   H32720523   7.363   3.115   4.592 -0.7804  1.4294 -0.0155
   19MOL   H32820524   7.425   3.106   4.437  0.0886  0.3243 -0.3937
   19MOL   H32920525   7.324   3.340   4.384  0.7122  0.3662  0.0628
   19MOL   H33020526   7.273   3.353   4.546 -1.4746 -1.6181  1.4350
   19MOL   H33120527   7.141   3.139   4.526  1.3947  0.2116 -0.2314
   19MOL   H33220528   7.079   3.276   4.456  1.2084  0.8594  1.3724
   19MOL   H33320529   7.084   3.071   4.312  1.1701 -1.0394  2.5973
   19MOL   H33420530   7.245   3.099   4.276 -0.0109  0.7802 -1.9434
   19MOL   H33520531   7.011   3.282   4.199  0.4847  2.0654 -2.0100
   19MOL   H33620532   7.170   3.351   4.201  1.0985  0.5315 -0.5070
   19MOL   H33720533   7.213   3.142   4.027 -0.5267  0.6982 -0.9648
   19MOL   C33820534   7.082   3.271   3.948 -0.0055  0.2676 -0.0104
   19MOL   O33920535   7.009   3.362   3.967  0.8069 -0.3519 -0.4695
   19MOL   C34020536   7.118   3.221   3.809  0.0367 -0.1414  0.3500
   19MOL   C34120537   7.005   3.156   3.723 -0.0095 -0.4139  0.1153
   19MOL   C34220538   7.040   3.110   3.582 -0.3269  0.9289  0.4994
   19MOL   C34320539   7.156   3.000   3.569 -0.3363  0.0631  0.1281
   19MOL   C34420540   7.211   2.975   3.422 -0.0584  0.2545  0.1687
   19MOL   C34520541   7.318   2.864   3.409 -0.2386 -1.1004 -0.1326
   19MOL   C34620542   7.300   2.769   3.278  0.2965 -0.1962 -0.2924
   19MOL   C34720543   7.411   2.665   3.256 -0.0306  0.0138  0.5776
   19MOL   C34820544   7.394   2.579   3.135  0.0288 -0.5710  0.3408
   19MOL   C34920545   7.526   2.512   3.092  0.4318 -0.2960 -0.0163
   19MOL   C35020546   7.607   2.605   3.005 -0.0939 -0.2346 -0.1228
   19MOL   O35120547   7.674   2.700   3.045  1.0018 -0.1460 -0.6853
   19MOL   N35220548   7.608   2.581   2.870 -0.5866  0.0571 -0.1007
   19MOL   C35320549   7.648   2.678   2.775  0.5554 -0.3266 -0.6607
   19MOL   C35420550   7.530   2.764   2.732 -0.0434  0.7797  0.2631
   19MOL   C35520551   7.405   2.686   2.683  0.3372  0.4611  0.1813
   19MOL   C35620552   7.315   2.783   2.598  0.2126  1.0690 -0.3314
   19MOL   C35720553   7.216   2.853   2.691  0.4532 -0.4731  0.3486
   19MOL   C35820554   7.134   2.957   2.611 -0.2326  0.0693 -0.5957
   19MOL   N35920555   7.003   2.902   2.580 -0.3959  0.1207  0.1411
   19MOL   H36020556   7.197   3.146   3.818  1.0435  0.7919 -0.4366
   19MOL   H36120557   7.156   3.303   3.747  0.1737 -0.5796 -0.1538
   19MOL   H36220558   6.970   3.076   3.789  2.6612  1.0853  3.5081
   19MOL   H36320559   6.930   3.235   3.712 -0.1332 -0.7293 -1.4060
   19MOL   H36420560   7.068   3.201   3.528 -0.3067  0.2672 -0.6235
   19MOL   H36520561   6.953   3.075   3.526 -0.6983  2.2230  0.2503
   19MOL   H36620562   7.227   3.030   3.646 -0.1045 -0.8834  0.2800
   19MOL   H36720563   7.123   2.910   3.620  1.8831 -0.2753  1.0280
   19MOL   H36820564   7.132   2.956   3.349  0.0997 -1.1094  0.3252
   19MOL   H36920565   7.253   3.070   3.388 -0.7798  0.2277 -0.8028
   19MOL   H37020566   7.418   2.907   3.416 -1.6913  2.4210  0.1845
   19MOL   H37120567   7.320   2.790   3.489  1.2806  1.3599  2.1759
   19MOL   H37220568   7.207   2.712   3.278  0.0747  0.1637  0.2418
   19MOL   H37320569   7.290   2.846   3.202  0.1401  1.0212  0.9432
   19MOL   H37420570   7.507   2.715   3.243 -0.4447  0.6256 -0.1639
   19MOL   H37520571   7.417   2.598   3.342  0.0944 -0.4153  0.2341
   19MOL   H37620572   7.363   2.629   3.043  0.3870  2.3146  1.7203
   19MOL   H37720573   7.315   2.505   3.150 -0.8426 -0.0527 -1.5742
   19MOL   H37820574   7.591   2.471   3.169  1.1192  0.3108 -0.2607
   19MOL   H37920575   7.510   2.421   3.033 -2.2415  0.9014 -1.2537
   19MOL   H38020576   7.568   2.497   2.831 -1.0601  0.5098 -0.6024
   19MOL   H38120577   7.685   2.624   2.687 -2.1294 -0.5672 -1.6953
   19MOL   H38220578   0.033   2.753   2.797 -0.2511 -0.2189  1.8917
   19MOL   H38320579   7.564   2.823   2.648  0.3774  0.7472  0.4118
   19MOL   H38420580   7.492   2.835   2.806  2.3062 -0.5112  2.7906
   19MOL   H38520581   7.428   2.603   2.617 -0.2734 -0.4314  1.0892
   19MOL   H38620582   7.360   2.649   2.775 -1.3579  1.4390 -0.2482
   19MOL   H38720583   7.369   2.843   2.525  3.1274  1.4389  2.0420
   19MOL   H38820584   7.245   2.733   2.531  1.0313  0.5475 -0.7960
   19MOL   H38920585   7.282   2.912   2.754 -1.7446  0.4636  1.8164
   19MOL   H39020586   7.150   2.792   2.752  1.1426 -0.0539  1.5235
   19MOL   H39120587   7.131   3.056   2.657  0.3728 -0.5689  0.8443
   19MOL   H39220588   7.187   2.976   2.517 -1.4565  1.8265 -0.9608
   19MOL   H39320589   6.998   2.801   2.581 -1.5598  0.0968 -3.3318
   19MOL   C39420590   6.898   2.971   2.546  0.0172 -0.0935  0.2056
   19MOL   O39520591   6.904   3.094   2.545  0.1625  0.2784 -0.3862
   19MOL   C39620592   6.763   2.904   2.519 -0.4086  0.5571  0.1504
   19MOL   C39720593   6.646   3.006   2.527 -0.1513  0.2209 -0.4964
   19MOL   C39820594   6.512   2.942   2.513  0.1191 -0.5532 -0.2092
   19MOL   C39920595   6.399   3.045   2.522 -0.4475 -0.7698 -0.0666
   19MOL   C40020596   6.272   2.965   2.548  0.4885  0.2371 -0.0010
   19MOL   C40120597   6.145   3.048   2.551 -0.3631 -0.3538  0.7978
   19MOL   C40220598   6.132   3.148   2.667  0.7353  0.2854  0.3088
   19MOL   C40320599   6.084   3.087   2.795 -0.0276  0.8223 -0.2189
   19MOL   C40420600   5.934   3.066   2.794 -0.2957 -0.6296 -0.1772
   19MOL   C40520601   5.883   2.999   2.918  0.5596 -0.2348 -0.0186
   19MOL   C40620602   5.918   2.847   2.918 -0.5155 -0.5672 -0.4180
   19MOL   O40720603   6.034   2.814   2.914 -0.3213  0.1636  0.3656
   19MOL   N40820604   5.818   2.763   2.940 -0.2136 -0.3586 -0.4151
   19MOL   C40920605   5.840   2.623   2.967  0.6349  0.8538  0.2145
   19MOL   C41020606   5.883   2.537   2.848 -0.4766  0.4015  0.2134
   19MOL   C41120607   5.953   2.402   2.882  0.3250 -0.3379  0.2223
   19MOL   C41220608   5.841   2.296   2.907  0.3439  0.6950 -0.2488
   19MOL   C41320609   5.897   2.151   2.934  0.3931 -0.3909 -1.2080
   19MOL   C41420610   5.783   2.055   2.983 -0.0961 -0.0532 -0.1784
   19MOL   N41520611   5.689   2.010   2.882  0.1791  0.6066  0.5859
   19MOL   H41620612   6.756   2.829   2.598  0.2047  0.2590 -0.0730
   19MOL   H41720613   6.759   2.843   2.429  2.3213  1.8217 -0.8982
   19MOL   H41820614   6.653   3.070   2.439 -2.0153  0.5541 -0.4393
   19MOL   H41920615   6.638   3.057   2.623  2.2297  1.3595 -0.8710
   19MOL   H42020616   6.500   2.866   2.589  0.2073  0.7318  1.1139
   19MOL   H42120617   6.512   2.899   2.413 -0.6361  0.2101 -0.5420
   19MOL   H42220618   6.396   3.098   2.427  0.4057  1.0242  0.8880
   19MOL   H42320619   6.417   3.116   2.602 -3.1932 -1.2423  1.0107
   19MOL   H42420620   6.256   2.890   2.470  1.1354  0.0621  0.0311
   19MOL   H42520621   6.291   2.900   2.633  1.0337 -0.3868 -0.5884
   19MOL   H42620622   6.143   3.092   2.452  1.5777 -0.0016  0.8799
   19MOL   H42720623   6.058   2.984   2.551  0.5028 -1.5680 -1.4688
   19MOL   H42820624   6.227   3.200   2.681  0.4723  0.3986  1.6865
   19MOL   H42920625   6.055   3.221   2.645  0.6551 -0.2488 -1.2445
   19MOL   H43020626   6.152   3.005   2.819 -0.1528 -0.0353 -2.6845
   19MOL   H43120627   6.108   3.152   2.879  1.6424 -1.4364  1.1223
   19MOL   H43220628   5.914   3.005   2.706 -0.4576  0.3070 -0.7949
   19MOL   H43320629   5.898   3.169   2.788 -0.0941 -0.5507 -0.0421
   19MOL   H43420630   5.926   3.043   3.008  0.4578  1.5074 -0.8106
   19MOL   H43520631   5.774   3.008   2.928  0.6824 -0.4219  1.6527
   19MOL   H43620632   5.721   2.791   2.946 -0.5951 -1.7178 -0.1286
   19MOL   H43720633   5.746   2.579   3.002  1.1586  1.2222  2.1622
   19MOL   H43820634   5.911   2.607   3.049  0.2068 -0.9097  0.2653
   19MOL   H43920635   5.960   2.595   2.798 -1.1048  1.2237  0.1938
   19MOL   H44020636   5.801   2.531   2.777 -0.3836  1.2574  0.0271
   19MOL   H44120637   6.027   2.391   2.803 -0.0479 -0.2369 -0.1445
   19MOL   H44220638   6.011   2.397   2.975 -0.7975 -0.0138  0.9489
   19MOL   H44320639   5.780   2.325   2.992  0.7470 -1.4740  0.8263
   19MOL   H44420640   5.777   2.278   2.821  1.2873 -0.3049 -0.7536
   19MOL   H44520641   5.941   2.121   2.839 -1.7106  1.2500 -2.7651
   19MOL   H44620642   5.983   2.151   3.000 -0.8904 -1.3447  0.4901
   19MOL   H44720643   5.835   1.966   3.020 -1.6305 -0.4195  1.1736
   19MOL   H44820644   5.743   2.104   3.073 -1.3925  0.4323 -1.0038
   19MOL   H44920645   5.712   1.935   2.818 -4.7318  1.4052 -2.4052
   19MOL   C45020646   5.562   2.052   2.881  0.5611  0.1802 -0.9569
   19MOL   O45120647   5.517   2.124   2.969 -0.3892 -0.0325  0.4833
   19MOL   C45220648   5.481   2.001   2.764  0.0315  0.0357  0.0545
   19MOL   C45320649   5.333   2.043   2.753  0.4043  1.1538 -0.5137
   19MOL   C45420650   5.323   2.177   2.678 -0.6827  0.3534 -0.3251
   19MOL   C45520651   5.184   2.229   2.682  0.5084 -0.3273  0.3411
   19MOL   C45620652   5.156   2.355   2.603 -0.2327  0.3747 -0.0941
   19MOL   C45720653   5.014   2.407   2.616 -0.0392 -0.0003 -0.0082
   19MOL   C45820654   4.932   2.319   2.515 -0.3357  0.1465 -0.4873
   19MOL   C45920655   4.780   2.347   2.503  0.5242 -0.5971 -0.1891
   19MOL   C46020656   4.720   2.267   2.385 -0.5846 -0.3103  0.0848
   19MOL   C46120657   4.570   2.268   2.385  0.5625 -0.0329  0.5470
   19MOL   C46220658   4.498   2.197   2.500 -0.6683 -1.1198  0.2468
   19MOL   O46320659   4.565   2.134   2.584  0.4025  0.1302  0.1791
   19MOL   N46420660   4.369   2.221   2.518  0.0536  0.4672 -0.5200
   19MOL   C46520661   4.277   2.172   2.618  0.3473 -0.4088 -0.2913
   19MOL   C46620662   4.137   2.231   2.606 -0.4378  0.1189  0.2793
   19MOL   C46720663   4.041   2.193   2.724 -0.0222 -0.2574  0.3688
   19MOL   C46820664   3.909   2.270   2.723 -1.0831 -0.6374  0.6120
   19MOL   C46920665   3.906   2.421   2.761 -0.2042 -0.3023  0.2415
   19MOL   C47020666   3.768   2.482   2.719  0.1595  0.0567 -0.0456
   19MOL   N47120667   3.729   2.602   2.794  0.0718  0.5071 -0.0922
   19MOL   H47220668   5.541   2.020   2.675 -0.9834  0.8470 -0.4763
   19MOL   H47320669   5.494   1.896   2.789 -1.0234  0.0567  0.7159
   19MOL   H47420670   5.290   2.045   2.854  1.2874  1.1116 -0.1332
   19MOL   H47520671   5.273   1.963   2.710 -0.0324  0.1353  1.8573
   19MOL   H47620672   5.362   2.175   2.576  0.7291 -2.4984  0.2148
   19MOL   H47720673   5.392   2.243   2.730  0.6924 -1.1045 -0.2429
   19MOL   H47820674   5.158   2.235   2.787  4.1729  0.0912  1.2961
   19MOL   H47920675   5.116   2.148   2.654 -0.2311 -0.2825  1.9328
   19MOL   H48020676   5.184   2.349   2.498  0.1656 -0.5191  0.0538
   19MOL   H48120677   5.219   2.438   2.637  0.8195  0.0289 -1.1635
   19MOL   H48220678   5.012   2.510   2.581 -1.2100  0.0339  0.1563
   19MOL   H48320679   4.978   2.395   2.718  0.5992 -0.7710  0.1331
   19MOL   H48420680   4.976   2.328   2.415 -0.8419  4.1015 -0.4418
   19MOL   H48520681   4.931   2.212   2.532 -1.4500  0.3096  0.4960
   19MOL   H48620682   4.735   2.317   2.597 -0.2651  1.6081  0.1748
   19MOL   H48720683   4.771   2.456   2.506  1.7287 -0.5001  0.1057
   19MOL   H48820684   4.738   2.161   2.398 -1.7167 -0.3659  1.3796
   19MOL   H48920685   4.759   2.313   2.295  0.0310  0.7311  0.8706
   19MOL   H49020686   4.540   2.371   2.402  0.4961  0.1535 -0.6892
   19MOL   H49120687   4.525   2.231   2.293 -1.0744 -1.5915  1.9368
   19MOL   H49220688   4.329   2.284   2.450  0.9912  0.1270 -1.4075
   19MOL   H49320689   4.323   2.197   2.714 -0.8998  0.0312  0.2002
   19MOL   H49420690   4.276   2.063   2.618  1.8965 -0.4436 -2.0634
   19MOL   H49520691   4.153   2.338   2.591  1.3616 -0.3911 -1.6512
   19MOL   H49620692   4.087   2.201   2.514 -1.2479  1.5853  0.2214
   19MOL   H49720693   4.074   2.216   2.826 -4.2798  1.9950  1.3375
   19MOL   H49820694   4.012   2.088   2.721 -1.4785  0.1521 -0.3760
   19MOL   H49920695   3.851   2.221   2.801 -1.2275 -1.3466  0.0603
   19MOL   H50020696   3.849   2.236   2.639 -0.0968 -1.9647  0.4313
   19MOL   H50120697   3.924   2.418   2.868  0.4349 -0.6745  0.1251
   19MOL   H50220698   3.990   2.468   2.710 -0.5091  0.5046  0.4719
   19MOL   H50320699   3.765   2.502   2.612  2.6739  0.2759 -0.1054
   19MOL   H50420700   3.692   2.404   2.725 -1.8566  2.0219  0.6574
   19MOL   H50520701   3.753   2.611   2.892 -0.1136 -0.2797  0.0284
   19MOL   C50620702   3.667   2.699   2.741 -0.1333 -0.5033  0.4054
   19MOL   O50720703   3.626   2.701   2.626  0.4840 -0.4489 -0.5062
   19MOL   C50820704   3.647   2.830   2.832  0.5863  0.2051  0.8376
   19MOL   C50920705   3.557   2.937   2.753 -0.0115  0.8915 -0.3390
   19MOL   C51020706   3.561   3.079   2.824 -0.1032  0.0578  0.3009
   19MOL   C51120707   3.497   3.186   2.745 -0.0111 -0.3458 -0.0642
   19MOL   C51220708   3.570   3.246   2.620  0.3961 -0.5812 -0.4218
   19MOL   C51320709   3.470   3.321   2.528  0.1121  0.1386  0.7407
   19MOL   C51420710   3.550   3.374   2.408  0.3279 -0.3711  0.5702
   19MOL   C51520711   3.470   3.409   2.281  0.1006  0.0218 -0.1021
   19MOL   C51620712   3.402   3.546   2.282 -0.5901  0.6253 -0.4788
   19MOL   C51720713   3.339   3.582   2.147  0.2395  0.1271  0.6264
   19MOL   C51820714   3.437   3.611   2.035 -0.4233 -0.1520 -0.2600
   19MOL   O51920715   3.557   3.624   2.060  1.0047 -0.5880  0.0708
   19MOL   N52020716   3.398   3.589   1.909  0.6503  0.1731  0.1951
   19MOL   C52120717   3.492   3.575   1.797  0.7735  0.3227  0.1690
   19MOL   C52220718   3.564   3.704   1.751  0.5599  0.1168  0.3549
   19MOL   C52320719   3.467   3.809   1.698 -0.6705 -0.0410  0.1095
   19MOL   C52420720   3.518   3.949   1.673 -0.2752 -0.2740 -0.6176
   19MOL   C52520721   3.658   3.955   1.619  0.2946 -0.1846 -0.1439
   19MOL   C52620722   3.706   4.106   1.586  0.2246  0.5912  0.5375
   19MOL   N52720723   3.848   4.104   1.550 -0.2320  0.1520 -0.2953
   19MOL   H52820724   3.744   2.879   2.832  0.4349  0.5116  0.9166
   19MOL   H52920725   3.608   2.805   2.931 -0.1177 -1.8671  0.0647
   19MOL   H53020726   3.453   2.902   2.752  0.2847 -0.0306  0.2493
   19MOL   H53120727   3.594   2.941   2.651  1.9634 -0.1382  0.3176
   19MOL   H53220728   3.661   3.110   2.854 -0.1722  0.7884 -0.2055
   19MOL   H53320729   3.510   3.071   2.920 -0.6040  0.5642  0.0767
   19MOL   H53420730   3.397   3.154   2.717 -1.5043  3.1393  1.0386
   19MOL   H53520731   3.482   3.264   2.820 -2.4229 -0.9892  0.1373
   19MOL   H53620732   3.648   3.311   2.662 -1.3839  0.5851  1.1710
   19MOL   H53720733   3.620   3.160   2.576  2.1077 -0.2137  0.7299
   19MOL   H53820734   3.381   3.265   2.500  1.4439 -1.2905 -0.8043
   19MOL   H53920735   3.427   3.407   2.579  0.3019  1.3090 -1.0076
   19MOL   H54020736   3.613   3.460   2.430  0.8573 -0.4366 -0.6597
   19MOL   H54120737   3.625   3.305   2.369 -1.6757 -1.6242 -1.1929
   19MOL   H54220738   3.544   3.404   2.202 -0.6584 -2.6788 -0.6849
   19MOL   H54320739   3.396   3.332   2.262  1.0418 -1.0619  0.5422
   19MOL   H54420740   3.480   3.616   2.311 -0.4358  0.3596 -0.2560
   19MOL   H54520741   3.323   3.544   2.356  0.8695 -0.6153  1.0936
   19MOL   H54620742   3.267   3.516   2.099  2.2997 -0.1180 -2.3314
   19MOL   H54720743   3.294   3.680   2.167  0.1214  0.4822 -1.2324
   19MOL   H54820744   3.299   3.587   1.891  0.5380 -4.0503  0.8419
   19MOL   H54920745   3.425   3.530   1.723 -0.0340 -2.1189  2.2790
   19MOL   H55020746   3.574   3.504   1.811  0.1789 -1.4025 -4.2446
   19MOL   H55120747   3.633   3.669   1.675  0.3558 -2.0829  1.1438
   19MOL   H55220748   3.625   3.743   1.832 -0.3875  1.4184  0.4631
   19MOL   H55320749   3.392   3.819   1.775 -1.0132 -1.6347  0.0005
   19MOL   H55420750   3.409   3.784   1.609 -2.8031  0.8093  1.2581
   19MOL   H55520751   3.520   3.999   1.770  0.9989 -0.3533 -0.5995
   19MOL   H55620752   3.450   4.009   1.612 -0.7215 -0.5017 -0.3447
   19MOL   H55720753   3.739   3.920   1.682 -1.8684 -0.6535  2.4909
   19MOL   H55820754   3.672   3.896   1.528 -1.8336 -2.3330  0.8570
   19MOL   H55920755   3.642   4.155   1.512 -0.0192  0.1557  0.4623
   19MOL   H56020756   3.707   4.176   1.669  0.9862  0.2624  0.8058
   19MOL   H56120757   3.919   4.117   1.621 -0.8293  0.4266  0.2531
   19MOL   C56220758   3.900   4.093   1.426 -0.7163  0.5323 -0.4449
   19MOL   O56320759   3.838   4.074   1.327  0.6869  0.6159  0.7012
   19MOL   C56420760   4.052   4.100   1.417  0.2214  0.3125  0.3828
   19MOL   C56520761   4.115   3.961   1.440 -0.6167 -0.3451  0.5885
   19MOL   C56620762   4.261   3.952   1.425 -0.6448  0.1850  0.3266
   19MOL   C56720763   4.336   4.065   1.508  0.3974 -0.1051 -0.1180
   19MOL   C56820764   4.479   4.034   1.547 -0.5836  0.6666  0.5088
   19MOL   C56920765   4.545   4.150   1.627  0.1279 -0.7679 -0.6920
   19MOL   C57020766   4.579   4.273   1.538  0.2726 -0.4520 -0.0288
   19MOL   C57120767   4.659   4.377   1.620 -0.8012  0.1677 -0.4462
   19MOL   C57220768   4.688   4.504   1.541  0.3827  0.3166 -0.2435
   19MOL   C57320769   4.774   4.613   1.610  0.4904 -0.5138 -0.5023
   19MOL   C57420770   4.722   4.632   1.757 -0.2696  1.3482  0.0580
   19MOL   O57520771   4.799   4.603   1.846  1.0938 -0.4661  0.3230
   19MOL   N57620772   4.600   4.685   1.780  0.6332  0.3512  0.3190
   19MOL   C57720773   4.532   4.703   1.902  0.4444 -0.2376 -0.5972
   19MOL   C57820774   4.452   4.578   1.944 -0.0391 -0.3378  0.5030
   19MOL   C57920775   4.370   4.601   2.067 -0.1587 -0.1127  0.2492
   19MOL   C58020776   4.287   4.479   2.130 -0.0089  0.1234 -0.1247
   19MOL   C58120777   4.159   4.558   2.189  0.3276 -0.1627 -0.4193
   19MOL   C58220778   4.056   4.490   2.277 -0.0341  0.8016 -0.5779
   19MOL   N58320779   3.939   4.577   2.298  0.2070 -0.5733 -0.4047
   19MOL   H58420780   4.082   4.144   1.321 -0.1852  0.3887  0.2921
   19MOL   H58520781   4.088   4.170   1.492  0.4817 -0.6056  1.1245
   19MOL   H58620782   4.100   3.956   1.547  0.3560  0.6363  0.7738
   19MOL   H58720783   4.056   3.879   1.399 -0.1970  0.1000 -0.9372
   19MOL   H58820784   4.270   3.983   1.321  1.0926  0.3179  0.5063
   19MOL   H58920785   4.297   3.852   1.446  0.1939  0.1166 -1.3691
   19MOL   H59020786   4.331   4.161   1.458  1.1697 -0.3461 -0.6781
   19MOL   H59120787   4.281   4.090   1.599  1.3710  1.6046  0.0024
   19MOL   H59220788   4.487   3.940   1.600 -0.1589  0.5291  0.2029
   19MOL   H59320789   4.532   4.013   1.454 -1.3539 -0.2777  0.2696
   19MOL   H59420790   4.482   4.188   1.707  2.6605 -1.0751  1.4920
   19MOL   H59520791   4.638   4.108   1.664 -0.3842 -2.0702 -0.8686
   19MOL   H59620792   4.633   4.242   1.449  0.2787  2.1362 -0.9669
   19MOL   H59720793   4.490   4.319   1.495 -0.0746 -0.4101  0.7197
   19MOL   H59820794   4.760   4.347   1.650  0.2675  1.6310 -2.4176
   19MOL   H59920795   4.593   4.390   1.705 -1.6591  0.6446 -1.1842
   19MOL   H60020796   4.595   4.551   1.508  0.4220  0.6219  0.0859
   19MOL   H60120797   4.735   4.472   1.448  1.0777 -1.2293  0.6256
   19MOL   H60220798   4.877   4.576   1.616  1.2959  1.8890  1.4614
   19MOL   H60320799   4.776   4.710   1.561  0.2687 -0.2401  0.0207
   19MOL   H60420800   4.538   4.706   1.704  1.5464  1.4088 -0.1460
   19MOL   H60520801   4.478   4.795   1.926  0.5019 -1.0145  2.8749
   19MOL   H60620802   4.603   4.717   1.984 -2.3331 -0.5908  1.9597
   19MOL   H60720803   4.507   4.484   1.949  1.9804  0.8224  0.5831
   19MOL   H60820804   4.382   4.557   1.862 -1.9425  1.2945  1.6535
   19MOL   H60920805   4.309   4.688   2.042 -0.2330 -0.7298 -1.7770
   19MOL   H61020806   4.435   4.644   2.143 -0.1092 -0.9610  0.6892
   19MOL   H61120807   4.256   4.407   2.054  0.6328  0.2428 -0.5010
   19MOL   H61220808   4.358   4.439   2.201  1.3530  0.4042 -1.2979
   19MOL   H61320809   4.109   4.601   2.102 -0.3317  2.6450  1.2892
   19MOL   H61420810   4.200   4.644   2.243  1.4045 -1.3193  0.6402
   19MOL   H61520811   4.037   4.397   2.224  0.9108  0.6152 -0.5973
   19MOL   H61620812   4.102   4.466   2.373 -1.3373 -0.9015 -0.3596
   19MOL   H61720813   3.949   4.661   2.353 -1.8019 -1.6612  1.7044
   19MOL   C61820814   3.835   4.580   2.212  0.4565  0.3176  0.4495
   19MOL   O61920815   3.806   4.484   2.142  0.1032  0.3258  0.0393
   19MOL   C62020816   3.749   4.708   2.210 -0.0512 -0.0594 -0.1033
   19MOL   C62120817   3.621   4.693   2.112 -0.3891  0.1245 -0.4282
   19MOL   C62220818   3.662   4.683   1.962 -0.1946 -0.3103  0.4011
   19MOL   C62320819   3.559   4.596   1.896  0.4351  0.2262 -0.1966
   19MOL   C62420820   3.616   4.544   1.765  0.4990 -0.0803 -0.4221
   19MOL   C62520821   3.516   4.455   1.680 -0.0176  0.1568  0.0279
   19MOL   C62620822   3.547   4.468   1.529 -0.3939 -0.4248 -0.4582
   19MOL   C62720823   3.429   4.397   1.449 -1.1100 -0.4317  0.5325
   19MOL   C62820824   3.450   4.402   1.293  0.0822 -0.4854  0.1583
   19MOL   C62920825   3.438   4.546   1.241 -0.6226  0.5275 -0.0941
   19MOL   C63020826   3.443   4.558   1.091 -0.4985  0.7308  0.2433
   19MOL   O63120827   3.510   4.474   1.031  0.1153 -0.2508  0.6543
   19MOL   N63220828   3.388   4.663   1.037 -0.1165  0.0933 -0.6595
   19MOL   C63320829   3.403   4.693   0.893 -0.0107  0.5495 -0.1717
   19MOL   C63420830   3.297   4.799   0.844 -0.3687  0.4442  0.0160
   19MOL   C63520831   3.309   4.926   0.921  0.0720  0.1540  0.1812
   19MOL   C63620832   3.220   5.047   0.877  0.1662 -0.1430 -0.0853
   19MOL   C63720833   3.064   5.016   0.884 -0.0975  0.4495 -0.1673
   19MOL   C63820834   2.968   5.134   0.837  0.0004 -0.0383  0.2664
   19MOL   N63920835   2.833   5.084   0.836  0.0302 -0.2000  0.0068
   19MOL   H64020836   3.812   4.790   2.175 -0.7880 -0.5355 -2.6051
   19MOL   H64120837   3.725   4.726   2.315  2.3777 -1.2391  0.7107
   19MOL   H64220838   3.554   4.780   2.113  1.1093  1.3049 -0.9928
   19MOL   H64320839   3.564   4.609   2.151  0.6646 -1.0425 -1.3829
   19MOL   H64420840   3.755   4.627   1.952  0.1488  0.6980 -2.7237
   19MOL   H64520841   3.671   4.781   1.916  0.7206 -0.8390 -0.5911
   19MOL   H64620842   3.522   4.510   1.952 -1.5429 -0.0263 -1.8228
   19MOL   H64720843   3.465   4.648   1.881 -0.1639 -0.9070 -0.4178
   19MOL   H64820844   3.644   4.629   1.703 -0.9683  1.3619  0.8543
   19MOL   H64920845   3.705   4.484   1.780  2.2219  2.8771  1.6679
   19MOL   H65020846   3.415   4.486   1.706  1.2086  2.6737  2.0915
   19MOL   H65120847   3.524   4.347   1.695  2.4537  0.1429 -1.1398
   19MOL   H65220848   3.543   4.573   1.502 -0.5641 -0.8889 -2.2802
   19MOL   H65320849   3.647   4.436   1.502  0.2858  0.9707  0.3587
   19MOL   H65420850   3.434   4.291   1.473 -0.1221 -0.9673 -1.8887
   19MOL   H65520851   3.336   4.444   1.479  1.1999  4.4407  0.6710
   19MOL   H65620852   3.366   4.350   1.246  1.1986 -0.7098 -1.6346
   19MOL   H65720853   3.533   4.347   1.249 -0.3979 -1.2950  0.2543
   19MOL   H65820854   3.349   4.600   1.275 -0.8760  0.1138 -0.0943
   19MOL   H65920855   3.522   4.604   1.280  0.4201 -0.7318 -0.4301
   19MOL   H66020856   3.356   4.729   1.106 -0.0978  0.0431 -0.6034
   19MOL   H66120857   3.508   4.723   0.891 -0.1862  1.3064  1.4304
   19MOL   H66220858   3.393   4.598   0.840  0.2102  0.7590 -0.6010
   19MOL   H66320859   3.202   4.746   0.853 -1.4168  2.1309 -0.8951
   19MOL   H66420860   3.306   4.807   0.736  2.1796 -0.3564  0.1342
   19MOL   H66520861   3.301   4.897   1.026 -1.4837  1.7523  0.5176
   19MOL   H66620862   3.413   4.958   0.913  0.1669 -0.1642  0.1451
   19MOL   H66720863   3.228   5.060   0.769 -2.0039  1.3494 -0.1157
   19MOL   H66820864   3.232   5.144   0.927  0.3146  0.0563 -0.5037
   19MOL   H66920865   3.041   4.936   0.813  1.6613 -1.5490  1.4391
   19MOL   H67020866   3.041   4.985   0.986  3.1775  0.7922  0.7206
   19MOL   H67120867   2.970   5.225   0.897 -0.1030 -0.5225  1.0142
   19MOL   H67220868   3.001   5.149   0.735 -1.1356  0.7811  0.0117
   19MOL   H67320869   2.802   5.063   0.742 -1.9657  1.1386  0.3311
   19MOL   C67420870   2.757   5.068   0.941  0.7374  0.0869 -0.8150
   19MOL   O67520871   2.800   5.089   1.051 -0.0859  0.4966 -0.0761
   19MOL   C67620872   2.610   5.023   0.918  0.4127 -0.6744  0.0221
   19MOL   C67720873   2.547   4.935   1.028  0.0249  0.2751  0.6797
   19MOL   C67820874   2.634   4.814   1.064 -0.2439 -0.0505  0.4587
   19MOL   C67920875   2.550   4.742   1.174 -0.2312 -0.6389  0.6222
   19MOL   C68020876   2.636   4.630   1.237  0.0080  0.2752  0.9491
   19MOL   C68120877   2.663   4.517   1.142  0.7427  0.2830 -0.5888
   19MOL   C68220878   2.536   4.449   1.089  0.1301  0.0551 -0.0119
   19MOL   C68320879   2.542   4.295   1.055  0.1000 -0.5278 -0.0242
   19MOL   C68420880   2.671   4.248   0.977  0.2358 -0.3671 -0.0098
   19MOL   C68520881   2.710   4.330   0.850 -0.3603 -0.1282  0.0928
   19MOL   C68620882   2.602   4.339   0.737 -0.3130 -1.2484  0.3874
   19MOL   O68720883   2.495   4.396   0.750 -0.0002 -0.0693 -0.0479
   19MOL   N68820884   2.639   4.283   0.623 -0.2223  0.5644  0.3422
   19MOL   C68920885   2.555   4.268   0.499  0.4203  0.5914  0.7559
   19MOL   C69020886   2.540   4.397   0.417  0.6012 -0.4362  1.0277
   19MOL   C69120887   2.680   4.459   0.394  0.2724 -0.5006  0.7418
   19MOL   C69220888   2.664   4.608   0.390 -0.4349 -0.4742  0.0202
   19MOL   C69320889   2.657   4.684   0.523 -0.1866 -0.5632  0.2457
   19MOL   C69420890   2.791   4.698   0.599  0.7494  0.7882 -0.6439
   19MOL   N69520891   2.902   4.745   0.521 -0.2115 -0.5966  0.3408
   19MOL   H69620892   2.587   4.983   0.820 -2.0269  0.6007  0.0394
   19MOL   H69720893   2.558   5.119   0.918 -0.7934 -1.3189 -0.5779
   19MOL   H69820894   2.454   4.894   0.989  0.3101  2.0517 -2.0525
   19MOL   H69920895   2.514   4.989   1.116  0.0982  0.2743  0.7078
   19MOL   H70020896   2.649   4.749   0.979 -0.9077 -0.2577  0.5003
   19MOL   H70120897   2.736   4.842   1.092 -0.5337 -0.2407  1.7258
   19MOL   H70220898   2.460   4.707   1.124  0.9925 -0.5727 -1.6977
   19MOL   H70320899   2.531   4.817   1.250  1.3223  1.0470 -0.5943
   19MOL   H70420900   2.575   4.592   1.319  0.6342 -2.0584  0.3742
   19MOL   H70520901   2.728   4.665   1.285 -0.1901 -0.0120  1.5505
   19MOL   H70620902   2.722   4.554   1.058  0.1487  0.6563 -0.8458
   19MOL   H70720903   2.729   4.442   1.186  1.5939  0.5000 -1.4790
   19MOL   H70820904   2.452   4.462   1.157  0.7864  3.8563  0.1631
   19MOL   H70920905   2.505   4.508   1.003 -0.4091 -1.3984 -0.8324
   19MOL   H71020906   2.535   4.242   1.150  1.9109 -1.1648 -0.2257
   19MOL   H71120907   2.458   4.269   0.991  1.7433 -1.0480 -2.0654
   19MOL   H71220908   2.649   4.148   0.940 -2.3434  1.2310 -3.0548
   19MOL   H71320909   2.758   4.242   1.042  2.0256  1.5185 -2.1455
   19MOL   H71420910   2.734   4.435   0.870  1.8479 -0.7086  0.6567
   19MOL   H71520911   2.806   4.289   0.817  0.0345 -0.2995  1.4412
   19MOL   H71620912   2.723   4.226   0.625  0.4775  1.5702  0.2003
   19MOL   H71720913   2.596   4.185   0.441 -1.7488 -0.4788  0.7001
   19MOL   H71820914   2.457   4.230   0.529  0.6120 -0.7253 -0.2202
   19MOL   H71920915   2.483   4.468   0.476 -0.8862 -0.6930 -0.0854
   19MOL   H72020916   2.479   4.388   0.327 -0.6892  3.2577  1.4456
   19MOL   H72120917   2.754   4.451   0.474 -0.9596  0.1901  1.9658
   19MOL   H72220918   2.744   4.424   0.312  0.9834 -0.7717  1.4004
   19MOL   H72320919   2.571   4.631   0.336 -2.8169 -1.6995  3.4395
   19MOL   H72420920   2.744   4.641   0.324 -0.7953 -1.9988 -1.2069
   19MOL   H72520921   2.590   4.632   0.590 -1.7507 -0.9680 -1.5755
   19MOL   H72620922   2.617   4.784   0.501 -2.0489 -1.2304  0.5259
   19MOL   H72720923   2.786   4.761   0.687  0.2826  0.6879 -0.5947
   19MOL   H72820924   2.823   4.599   0.633 -0.4279 -0.4825 -3.0927
   19MOL   H72920925   2.934   4.680   0.450 -0.2541  0.6925 -0.8838
   19MOL   C73020926   2.944   4.868   0.503  0.0203  0.2471 -0.1314
   19MOL   O73120927   2.892   4.955   0.570  0.2398 -0.6231  0.0807
   19MOL   C73220928   3.049   4.895   0.390 -0.2290 -0.3047 -0.4037
   19MOL   C73320929   3.149   5.012   0.425 -0.1496  0.0395 -0.7134
   19MOL   C73420930   3.094   5.151   0.411  0.9671  0.5646  0.4440
   19MOL   C73520931   3.175   5.258   0.494  0.5797 -0.0287 -0.3559
   19MOL   C73620932   3.321   5.283   0.443 -0.0840  0.1762 -0.1027
   19MOL   C73720933   3.397   5.376   0.537 -0.0070  0.3044 -0.0797
   19MOL   C73820934   3.523   5.450   0.471  0.0469  0.0465  0.2022
   19MOL   C73920935   3.652   5.371   0.486 -0.7289  0.3377 -0.3613
   19MOL   C74020936   3.765   5.459   0.427  0.2602 -0.3022  0.4157
   19MOL   C74120937   3.909   5.412   0.438 -0.4828  0.1304  0.6778
   19MOL   C74220938   3.965   5.416   0.579 -0.1215 -0.5431 -0.3847
   19MOL   O74320939   3.988   5.527   0.630 -0.0326  0.0443  0.3489
   19MOL   N74420940   3.986   5.302   0.639  0.2482  0.2483  0.5612
   19MOL   C74520941   4.070   5.287   0.757  0.5210 -0.5169  0.1183
   19MOL   C74620942   4.008   5.178   0.836  0.4262 -0.4747  0.5778
   19MOL   C74720943   4.083   5.168   0.967 -0.7553  0.5870 -0.3620
   19MOL   C74820944   4.000   5.081   1.058 -0.2478  0.7683 -0.1846
   19MOL   C74920945   4.061   5.056   1.199 -0.4074  0.7103  0.9308
   19MOL   C75020946   4.019   5.167   1.299 -0.5452  0.4116  0.1655
   19MOL   N75120947   4.047   5.110   1.429  0.1549 -0.0346 -0.2654
   19MOL   H75220948   2.992   4.922   0.302 -0.2360 -2.7067 -1.1597
   19MOL   H75320949   3.106   4.805   0.367  0.7191  0.3692 -0.7433
   19MOL   H75420950   3.235   4.998   0.358 -0.8917  0.9025 -1.8589
   19MOL   H75520951   3.197   4.997   0.522  0.6633  0.6689 -1.0118
   19MOL   H75620952   2.995   5.161   0.454  1.3698  2.0166  1.0619
   19MOL   H75720953   3.077   5.169   0.304 -1.5075 -0.6662  0.5910
   19MOL   H75820954   3.178   5.225   0.598 -2.7176 -0.9816 -0.5304
   19MOL   H75920955   3.132   5.358   0.485 -0.2340 -0.2777  0.6833
   19MOL   H76020956   3.300   5.330   0.347 -1.3109 -1.2739 -0.5705
   19MOL   H76120957   3.375   5.188   0.440  0.3499  0.3545  1.5429
   19MOL   H76220958   3.339   5.459   0.577  1.0561  0.0514  2.0590
   19MOL   H76320959   3.413   5.316   0.626  2.0977  0.4931 -0.3033
   19MOL   H76420960   3.514   5.453   0.362 -0.7065 -3.6611  0.0788
   19MOL   H76520961   3.534   5.551   0.510  0.1869 -0.6731  2.0455
   19MOL   H76620962   3.680   5.355   0.590 -0.0562  1.0387 -0.4304
   19MOL   H76720963   3.637   5.274   0.440  0.2471  1.0445 -2.2441
   19MOL   H76820964   3.754   5.557   0.474 -2.3118 -0.0636 -0.5931
   19MOL   H76920965   3.753   5.488   0.322 -0.3381  2.4049  1.2009
   19MOL   H77020966   3.928   5.315   0.393 -0.1096 -0.2575  1.6605
   19MOL   H77120967   3.962   5.487   0.379 -4.2551  3.2143  1.0132
   19MOL   H77220968   3.966   5.217   0.588  0.0958  0.3237  0.4958
   19MOL   H77320969   4.066   5.379   0.815 -0.6806 -0.2141 -0.4457
   19MOL   H77420970   4.169   5.256   0.723  0.2728  0.1230 -1.2520
   19MOL   H77520971   4.000   5.080   0.788 -1.7302  0.5847 -1.2808
   19MOL   H77620972   3.904   5.200   0.856  0.6142  0.5545  0.4129
   19MOL   H77720973   4.085   5.265   1.016 -3.2620  0.2892  0.4156
   19MOL   H77820974   4.183   5.128   0.956 -0.1664  1.9660 -0.1354
   19MOL   H77920975   3.903   5.129   1.069 -0.6574  0.2228 -1.3530
   19MOL   H78020976   3.974   4.990   1.004  1.0480  0.2742  0.0060
   19MOL   H78120977   4.168   5.050   1.182 -0.3145 -1.2702  2.0842
   19MOL   H78220978   4.031   4.960   1.242  0.2810 -0.5892 -1.3875
   19MOL   H78320979   4.078   5.259   1.293  1.4104 -0.8765 -0.6438
   19MOL   H78420980   3.914   5.197   1.290 -0.6807 -0.0438  0.2425
   19MOL   H78520981   4.145   5.123   1.453  0.4782 -0.9980 -1.0623
   19MOL   C78620982   3.966   5.035   1.509  0.0831 -1.4268  0.2120
   19MOL   O78720983   3.849   5.011   1.476 -0.2189  0.3707 -0.0453
   19MOL   C78820984   4.032   4.995   1.641 -0.2821 -0.9590 -0.1604
   19MOL   C78920985   3.933   4.911   1.733 -0.7877  0.7658 -0.3061
   19MOL   C79020986   4.014   4.851   1.859  0.8495  0.0611 -0.4628
   19MOL   C79120987   4.020   4.947   1.976 -0.5435  0.7899  0.3312
   19MOL   C79220988   4.123   4.918   2.085 -0.5698 -0.4075  0.5178
   19MOL   C79320989   4.097   5.000   2.210  0.3366 -0.3674  0.0356
   19MOL   C79420990   4.197   4.964   2.320  0.6210  0.4492 -0.1863
   19MOL   C79520991   4.339   5.027   2.305  0.2757 -0.3405  0.3206
   19MOL   C79620992   4.433   4.938   2.390 -0.3166  0.7233 -0.8270
   19MOL   C79720993   4.585   4.980   2.391 -0.8942 -0.7170 -1.2075
   19MOL   C79820994   4.649   5.004   2.255  0.5477 -0.3258 -0.7009
   19MOL   O79920995   4.614   4.953   2.153  0.2954  0.2401 -0.4527
   19MOL   N80020996   4.753   5.090   2.250 -0.2629  0.3065 -0.2230
   19MOL   C80120997   4.806   5.153   2.128  0.1866 -0.7146  0.1142
   19MOL   C80220998   4.881   5.285   2.163 -0.1749  0.2505  0.3021
   19MOL   C80320999   4.938   5.352   2.043  0.1623 -0.4053  0.4960
   19MOL   C80421000   5.035   5.457   2.077 -0.6329  0.0885 -0.4949
   19MOL   C80521001   5.086   5.550   1.963 -0.1788  0.0447  0.2236
   19MOL   C80621002   4.976   5.659   1.942 -0.3277 -0.6537 -0.1394
   19MOL   N80721003   5.007   5.771   1.852  0.0002 -0.2740 -0.4937
   19MOL   H80821004   4.055   5.088   1.693 -1.5599  0.5706 -2.2607
   19MOL   H80921005   4.123   4.936   1.629  0.0948 -0.8311  1.8126
   19MOL   H81021006   3.847   4.968   1.765 -0.8084  0.1907  0.6967
   19MOL   H81121007   3.892   4.832   1.670 -1.8980  1.1365 -0.0413
   19MOL   H81221008   4.116   4.828   1.827  0.1373 -1.9005 -1.4517
   19MOL   H81321009   3.968   4.762   1.902  0.8942 -0.4227 -1.3999
   19MOL   H81421010   4.030   5.043   1.926  3.0734  0.2596 -0.0936
   19MOL   H81521011   3.920   4.966   2.016  0.4910 -0.9122  3.8780
   19MOL   H81621012   4.122   4.815   2.118 -1.5150 -1.0001 -1.3046
   19MOL   H81721013   4.224   4.925   2.044 -1.6551  0.7004 -2.1159
   19MOL   H81821014   4.104   5.106   2.186 -1.3707 -0.1302  0.5263
   19MOL   H81921015   4.000   4.977   2.254 -0.0196  0.7165 -0.1565
   19MOL   H82021016   4.155   5.003   2.412 -1.0737  0.2670 -0.8657
   19MOL   H82121017   4.189   4.857   2.339 -0.9728  0.7665  0.9701
   19MOL   H82221018   4.370   5.033   2.201 -0.6859  3.3782  0.1597
   19MOL   H82321019   4.350   5.127   2.349 -0.5461  0.3193 -0.9649
   19MOL   H82421020   4.430   4.842   2.339  0.4543  0.6110 -0.6583
   19MOL   H82521021   4.398   4.924   2.492  2.7189 -3.4476 -0.2233
   19MOL   H82621022   4.594   5.067   2.456 -2.4030 -0.3500 -1.4643
   19MOL   H82721023   4.630   4.898   2.447 -1.5866 -0.3316 -0.0705
   19MOL   H82821024   4.760   5.134   2.340  0.0293  0.4888 -0.3374
   19MOL   H82921025   4.727   5.166   2.055  0.6843 -2.0787 -0.6727
   19MOL   H83021026   4.870   5.074   2.089  0.1058 -0.3038 -0.8464
   19MOL   H83121027   4.963   5.259   2.230 -0.4316  0.4665  0.7003
   19MOL   H83221028   4.818   5.345   2.229  1.5617  0.9039  1.3835
   19MOL   H83321029   4.995   5.281   1.984  0.2571  1.1498 -1.3396
   19MOL   H83421030   4.855   5.396   1.987  1.1971 -1.0335 -1.5712
   19MOL   H83521031   5.121   5.402   2.113  0.2537  1.9917  0.3841
   19MOL   H83621032   5.010   5.509   2.170 -0.9481  1.9464 -1.5973
   19MOL   H83721033   5.112   5.493   1.874  0.0083 -0.8361  0.8303
   19MOL   H83821034   5.176   5.600   1.998 -1.6188  2.0154  1.1553
   19MOL   H83921035   4.966   5.704   2.041  1.8803  0.2969 -0.3189
   19MOL   H84021036   4.879   5.611   1.923 -0.3850 -1.2244  1.5029
   19MOL   H84121037   5.016   5.863   1.894 -1.1834 -0.0269 -0.7568
   19MOL   C84221038   5.007   5.764   1.717  0.5320  0.1323 -0.1331
   19MOL   O84321039   5.012   5.664   1.648 -0.6083  0.1659 -0.6154
   19MOL   C84421040   5.037   5.892   1.643 -1.1141  0.5623 -0.6814
   19MOL   C84521041   4.968   5.905   1.504 -0.0613 -0.4263 -0.6140
   19MOL   C84621042   4.991   6.051   1.441 -0.4939  0.2793 -0.2775
   19MOL   C84721043   4.902   6.066   1.312  0.0498  0.3626 -0.5255
   19MOL   C84821044   4.926   6.194   1.221 -0.2477  0.7840  0.3046
   19MOL   C84921045   4.810   6.235   1.134  0.1633 -0.5604  0.3789
   19MOL   C85021046   4.851   6.344   1.036 -0.0285 -0.0245 -0.0527
   19MOL   C85121047   4.736   6.401   0.950  0.0573  0.0887 -0.1221
   19MOL   C85221048   4.787   6.472   0.831 -0.1084  0.0639  0.0948
   19MOL   C85321049   4.681   6.550   0.759  0.6354 -0.7570 -0.5329
   19MOL   C85421050   4.747   6.630   0.643  0.3687  0.3863 -0.8294
   19MOL   O85521051   4.810   6.736   0.657  0.8305 -0.5340  0.3394
   19MOL   N85621052   4.728   6.582   0.523  0.2710 -0.1989  0.4880
   19MOL   C85721053   4.750   6.647   0.400 -0.1541 -0.1293  0.0517
   19MOL   C85821054   4.678   6.565   0.296 -0.2179  0.6822 -0.1420
   19MOL   C85921055   4.681   6.634   0.154 -0.2052 -0.4926  0.5036
   19MOL   C86021056   4.616   6.545   0.053 -0.3574 -0.4726  0.1025
   19MOL   C86121057   4.462   6.552   0.052 -0.2685  0.5591 -0.1983
   19MOL   C86221058   4.402   6.450   7.648 -0.1444 -0.3782 -0.3758
   19MOL   N86321059   4.477   6.417   7.529 -0.0164 -0.7954 -0.2435
   19MOL   H86421060   5.145   5.899   1.643 -1.0800  0.0413 -0.0888
   19MOL   H86521061   5.013   5.980   1.704 -1.8812  0.3112 -0.6159
   19MOL   H86621062   4.860   5.887   1.505 -0.4533  1.5712 -3.3185
   19MOL   H86721063   4.998   5.821   1.441 -1.8228 -1.0448 -0.6678
   19MOL   H86821064   4.965   6.114   1.526 -1.7188 -1.0649  0.3610
   19MOL   H86921065   5.097   6.067   1.424 -0.0985 -1.9095 -0.0309
   19MOL   H87021066   4.798   6.056   1.342 -0.9928  0.8743 -3.7148
   19MOL   H87121067   4.918   5.973   1.257  1.8691 -0.0572  0.6544
   19MOL   H87221068   4.968   6.277   1.278  1.4983  1.2896 -1.6284
   19MOL   H87321069   5.014   6.163   1.163 -1.6065 -0.9972 -0.8616
   19MOL   H87421070   4.764   6.149   1.086 -0.0037 -0.3316  0.1315
   19MOL   H87521071   4.723   6.268   1.192  0.6906 -0.3032  1.0365
   19MOL   H87621072   4.918   6.417   1.080 -1.0353 -0.0016  1.4774
   19MOL   H87721073   4.914   6.290   0.966 -0.0820 -2.3693  1.6468
   19MOL   H87821074   4.685   6.458   1.028  1.2346 -1.0213  1.4745
   19MOL   H87921075   4.678   6.318   0.910 -0.2811  0.7417 -1.0225
   19MOL   H88021076   4.828   6.392   0.768  1.3066  1.4783 -0.8294
   19MOL   H88121077   4.869   6.537   0.861  2.1901 -2.1530 -1.1054
   19MOL   H88221078   4.594   6.490   0.731  0.8287 -1.4161  0.2555
   19MOL   H88321079   4.630   6.625   0.819  1.3414 -0.9678  0.3273
   19MOL   H88421080   4.680   6.493   0.518  0.9103 -0.5198 -0.1109
   19MOL   H88521081   4.857   6.656   0.382 -0.3418 -1.1716 -1.7417
   19MOL   H88621082   4.725   6.753   0.400  2.0588  0.4197  1.7445
   19MOL   H88721083   4.573   6.564   0.327 -0.1058  1.9079  0.3067
   19MOL   H88821084   4.719   6.466   0.280 -0.5736  0.4450  0.4326
   19MOL   H88921085   4.783   6.645   0.117 -0.5450  1.0530 -0.0057
   19MOL   H89021086   4.639   6.734   0.148 -1.3170 -0.7778  2.9731
   19MOL   H89121087   4.659   6.446   0.064  0.3658  0.2433  4.2747
   19MOL   H89221088   4.642   6.580   7.644  3.9958 -0.3965  1.1264
   19MOL   H89321089   4.412   6.526   0.146  1.8662 -1.6795  0.3743
   19MOL   H89421090   4.438   6.656   0.027  0.4297  1.0287  1.0244
   19MOL   H89521091   4.385   6.360   0.015  0.4289 -0.2721 -0.0402
   19MOL   H89621092   4.303   6.482   7.615 -0.1891  1.2511  1.2759
   19MOL   H89721093   4.551   6.479   7.499  0.0001  0.0298  1.4439
   19MOL   C89821094   4.459   6.316   7.452 -0.4061  0.0452  0.7491
   19MOL   O89921095   4.365   6.233   7.466 -0.8990 -0.3325  0.1867
   19MOL   C90021096   4.557   6.309   7.334 -0.2610  0.4983 -0.7430
   19MOL   C90121097   4.512   6.390   7.209  0.2192 -0.1623  0.0067
   19MOL   C90221098   4.602   6.511   7.168  0.2647 -0.5731 -0.2651
   19MOL   C90321099   4.605   6.632   7.272  0.2161  0.2993  0.1087
   19MOL   C90421100   4.669   6.761   7.218 -0.1315  0.8466 -0.0629
   19MOL   C90521101   4.637   6.888   7.292  0.7892 -0.3941  0.0371
   19MOL   C90621102   4.708   7.014   7.249  0.3561 -1.0940  0.4313
   19MOL   C90721103   4.644   7.139   7.327  0.3439 -0.6000 -0.3365
   19MOL   C90821104   4.511   7.178   7.262 -0.0367  0.3761 -0.3343
   19MOL   C90921105   4.442   7.296   7.320  0.7314 -0.3098  0.2569
   19MOL   C91021106   4.305   7.334   7.267  0.4343  0.3864  0.4749
   19MOL   O91121107   4.252   7.269   7.175  0.0472  0.3352  0.3746
   19MOL   N91221108   4.237   7.431   7.322  0.0742 -0.0059  0.6627
   19MOL   C91321109   4.096   7.473   7.292 -0.9018 -0.4037 -0.1743
   19MOL   C91421110   4.069   7.563   7.170  0.1202 -0.1989 -0.0954
   19MOL   C91521111   3.922   7.582   7.131  0.3029  0.0665 -0.1707
   19MOL   C91621112   3.859   7.451   7.090  0.6298 -0.3724 -0.3684
   19MOL   C91721113   3.720   7.473   7.016  0.3820 -0.3859  0.2369
   19MOL   C91821114   3.596   7.495   7.095 -0.2786 -0.4434  0.1625
   19MOL   N91921115   3.603   7.621   7.168 -0.0001  0.2958  0.3815
   19MOL   H92021116   4.654   6.354   7.356  0.7590 -1.3741 -1.2868
   19MOL   H92121117   4.585   6.205   7.313  0.1202  0.6058 -0.7724
   19MOL   H92221118   4.419   6.435   7.242 -0.9116 -0.9025 -2.0772
   19MOL   H92321119   4.493   6.335   7.116  0.9407 -0.3866 -0.0112
   19MOL   H92421120   4.563   6.539   7.071 -0.4813 -2.4280 -0.5211
   19MOL   H92521121   4.703   6.480   7.143  0.2245 -0.6100 -0.3812
   19MOL   H92621122   4.502   6.664   7.289  0.6008  1.1778  0.7799
   19MOL   H92721123   4.657   6.607   7.364  0.2682  1.2355  0.3356
   19MOL   H92821124   4.636   6.781   7.116  2.0360  0.5050 -0.8474
   19MOL   H92921125   4.778   6.758   7.223 -0.1891  0.6683  1.2724
   19MOL   H93021126   4.528   6.892   7.289  0.8167 -0.3432 -0.9230
   19MOL   H93121127   4.662   6.874   7.397  2.1747 -1.9517 -0.4645
   19MOL   H93221128   4.697   7.029   7.142 -1.9762  1.2846  0.9462
   19MOL   H93321129   4.813   7.008   7.278  0.1311  2.6310  2.3262
   19MOL   H93421130   4.702   7.226   7.297 -1.1786  0.1168 -1.1951
   19MOL   H93521131   4.636   7.136   7.436  1.0888  1.4350 -0.2109
   19MOL   H93621132   4.533   7.191   7.156  3.2888  2.2032  0.5157
   19MOL   H93721133   4.442   7.094   7.265  0.5623 -0.1568 -1.1386
   19MOL   H93821134   4.428   7.271   7.426  1.8077 -2.7469 -0.1240
   19MOL   H93921135   4.501   7.387   7.313  3.0144 -1.9591 -2.9500
   19MOL   H94021136   4.282   7.496   7.385  0.0983 -1.2033  1.8891
   19MOL   H94121137   4.049   7.526   7.375  1.0458  0.7970  0.1955
   19MOL   H94221138   4.048   7.378   7.267 -3.3731  0.8222 -0.2380
   19MOL   H94321139   4.113   7.661   7.189  0.4041 -0.6687  1.7835
   19MOL   H94421140   4.120   7.521   7.084 -1.1007 -2.3515  0.2117
   19MOL   H94521141   3.869   7.631   7.212 -0.4656  0.2399 -0.7630
   19MOL   H94621142   3.919   7.642   7.040 -3.2247 -2.4625 -1.8683
   19MOL   H94721143   3.852   7.384   7.175 -2.2101  3.1378  2.3619
   19MOL   H94821144   3.911   7.386   7.020 -1.4919 -0.9142 -1.4932
   19MOL   H94921145   3.733   7.552   6.942 -0.2334 -0.2487  0.2722
   19MOL   H95021146   3.702   7.389   6.950  1.1259  0.8602 -1.6073
   19MOL   H95121147   3.577   7.414   7.166  0.9417 -0.2609  0.7058
   19MOL   H95221148   3.513   7.480   7.026 -0.1534 -1.5214  0.2401
   19MOL   H95321149   3.698   7.646   7.194  0.9565 -4.2418  1.7229
   19MOL   C95421150   3.498   0.006   7.198  0.2832 -0.0811  0.0239
   19MOL   O95521151   3.380   7.661   7.186 -0.1214  0.2365 -0.0895
   19MOL   C95621152   3.528   0.149   7.227 -0.2959 -0.2232 -0.0936
   19MOL   C95721153   3.552   0.254   7.116  0.1452  0.5335 -0.0660
   19MOL   C95821154   3.664   0.218   7.024  0.4457 -0.6122 -0.5153
   19MOL   C95921155   3.704   0.329   6.923  0.1981 -1.3362  0.0111
   19MOL   C96021156   3.799   0.266   6.815  0.7075 -0.2520 -0.6306
   19MOL   C96121157   3.942   0.265   6.862  0.0450  0.3878  0.8871
   19MOL   C96221158   4.013   0.157   6.772 -0.1127 -0.0286  0.0355
   19MOL   C96321159   4.164   0.154   6.793 -0.1734  0.5718  0.4276
   19MOL   C96421160   4.213   0.083   6.919  0.2116 -0.4343 -0.2083
   19MOL   C96521161   4.359   0.033   6.922  0.2457  0.4630  0.1801
   19MOL   C96621162   4.458   0.140   6.905 -0.0001 -0.6356 -0.5675
   19MOL   O96721163   4.456   0.238   6.978 -0.1575 -0.3965 -0.7763
   19MOL   N96821164   4.550   0.118   6.807  0.8419 -0.3185  0.6138
   19MOL   C96921165   4.675   0.201   6.783  0.4320  0.3455 -0.4287
   19MOL   C97021166   4.772   0.144   6.678 -0.2064 -0.0805  0.1265
   19MOL   C97121167   4.880   0.238   6.639 -0.0166 -0.6781 -0.1521
   19MOL   C97221168   4.979   0.204   6.519 -0.6296  0.0425  0.3454
   19MOL   C97321169   5.073   0.317   6.484  0.4230  0.6228 -0.8072
   19MOL   C97421170   5.163   0.278   6.365 -0.3136 -0.1105 -0.6045
   19MOL   N97521171   5.239   0.387   6.323 -0.1721  0.0836  0.2598
   19MOL   H97621172   3.452   0.192   7.292 -0.0789  0.6240 -0.3911
   19MOL   H97721173   3.617   0.162   7.289 -0.6227  0.3167  0.2667
   19MOL   H97821174   3.577   0.349   7.162  3.6835 -0.8792  1.1093
   19MOL   H97921175   3.461   0.260   7.056 -0.6199 -0.5143  0.9698
   19MOL   H98021176   3.751   0.178   7.077  1.6525  2.3938 -0.1604
   19MOL   H98121177   3.631   0.126   6.975 -0.4312  0.6204 -2.2713
   19MOL   H98221178   3.610   0.366   6.882  0.9804  0.6313 -0.0310
   19MOL   H98321179   3.752   0.412   6.974  0.6860  0.5041 -3.2513
   19MOL   H98421180   3.766   0.172   6.771  0.0266  0.2914 -1.2750
   19MOL   H98521181   3.789   0.336   6.732  1.5146  2.2250  1.2863
   19MOL   H98621182   3.995   0.360   6.857  1.7732 -0.4888  1.8076
   19MOL   H98721183   3.939   0.223   6.962  1.8834 -2.6887 -0.2782
   19MOL   H98821184   3.959   0.063   6.785  1.7906 -1.1604 -0.0530
   19MOL   H98921185   3.996   0.193   6.671  0.1114  2.0133  0.7062
   19MOL   H99021186   4.206   0.107   6.704  0.4745 -1.8689  2.0035
   19MOL   H99121187   4.199   0.258   6.787  1.2473  0.0983  0.3224
   19MOL   H99221188   4.142   0.001   6.933  0.4344 -0.9326 -1.9292
   19MOL   H99321189   4.199   0.146   7.007  0.8029 -1.1595  0.4139
   19MOL   H99421190   4.378   7.686   7.022 -1.1565  0.0753  0.3061
   19MOL   H99521191   4.361   7.640   6.853 -0.5498  0.1669  0.5209
   19MOL   H99621192   4.533   0.038   6.748 -3.0275  1.7767 -1.2637
   19MOL   H99721193   4.715   0.219   6.883  1.2415 -0.4893 -0.5914
   19MOL   H99821194   4.633   0.294   6.743  0.1479  1.0191  1.4082
   19MOL   H99921195   4.705   0.120   6.595  1.7138 -1.1768 -1.1496
   19MOL     H121196   4.825   0.055   6.712 -0.0544  0.6362  1.8086
   19MOL     H221197   4.946   0.259   6.723 -0.1662 -2.0308  0.3149
   19MOL     H321198   4.841   0.336   6.615  0.6969 -0.3676 -0.0603
   19MOL     H421199   5.044   0.123   6.553 -0.9416 -0.5845 -0.5496
   19MOL     H521200   4.917   0.183   6.432 -2.0663  0.4036  1.2527
   19MOL     H621201   5.134   0.361   6.563  0.7546  0.3046 -0.8862
   19MOL     H721202   5.011   0.403   6.459  0.7182  0.8107 -0.8831
   19MOL     H821203   5.237   0.204   6.397 -1.9349 -0.6765  2.0164
   19MOL     H921204   5.111   0.239   6.279 -0.1548 -2.5335  0.3699
   19MOL    H1021205   5.325   0.404   6.374  0.5886 -1.1426 -0.6069
   19MOL    C1121206   5.192   0.481   6.239 -0.4219 -0.2857  0.5015
   19MOL    O1221207   5.076   0.480   6.203  0.3292  0.0977  0.1006
   19MOL    C1321208   5.289   0.599   6.216  0.3122  0.6920  0.2061
   19MOL    C1421209   5.212   0.730   6.229  0.1954  0.3334  0.3709
   19MOL    C1521210   5.291   0.862   6.246 -0.0413  0.0614  0.1984
   19MOL    C1621211   5.212   0.984   6.302 -0.0064  0.7373 -0.6606
   19MOL    C1721212   5.305   1.109   6.324 -0.0596 -0.1064  0.4817
   19MOL    C1821213   5.410   1.094   6.443  0.2326  0.0615 -0.0986
   19MOL    C1921214   5.478   1.224   6.466 -0.3229 -0.5715 -0.1625
   19MOL    C2021215   5.569   1.230   6.591 -0.3364 -0.5105 -0.0683
   19MOL    C2121216   5.625   1.372   6.613 -0.3527 -0.4489 -0.0013
   19MOL    C2221217   5.743   1.400   6.514 -0.6143 -0.0888 -0.2373
   19MOL    C2321218   5.840   1.499   6.581  0.1095 -0.3460 -0.8771
   19MOL    O2421219   5.795   1.607   6.619  0.0568 -0.1382 -0.2563
   19MOL    N2521220   5.959   1.452   6.609  0.2170 -0.0835 -0.0772
   19MOL    C2621221   6.061   1.502   6.694  0.1336  0.4175  0.1091
   19MOL    C2721222   6.192   1.511   6.622 -0.1161 -0.2044  0.6774
   19MOL    C2821223   6.186   1.586   6.480 -0.2197 -0.6039  0.1502
   19MOL    C2921224   6.185   1.744   6.500  0.3870  0.8283 -0.0683
   19MOL    C3021225   6.190   1.815   6.363 -0.0186 -0.6016  0.0997
   19MOL    C3121226   6.134   1.965   6.362 -0.5495 -0.3262 -0.1825
   19MOL    N3221227   6.190   2.037   6.246  0.5772  0.2369  0.1802
   19MOL    H3321228   5.322   0.591   6.113  0.3412  0.0166  0.2705
   19MOL    H3421229   5.378   0.591   6.279  0.1632  0.1502  0.3510
   19MOL    H3521230   5.142   0.728   6.312 -1.0050 -1.8428 -0.6495
   19MOL    H3621231   5.137   0.732   6.149  0.0628 -2.3973  0.3734
   19MOL    H3721232   5.346   0.891   6.156 -1.1712 -1.0182 -0.8741
   19MOL    H3821233   5.362   0.840   6.325 -0.0149  0.8583  0.3996
   19MOL    H3921234   5.145   1.010   6.221 -0.7321  0.7864 -0.0442
   19MOL    H4021235   5.154   0.950   6.388  1.2840  3.7274  1.4731
   19MOL    H4121236   5.350   1.131   6.227 -0.7962 -0.1444  0.1329
   19MOL    H4221237   5.236   1.193   6.337  0.3257  0.7887 -2.8504
   19MOL    H4321238   5.352   1.069   6.532  0.0243  3.2531  0.7013
   19MOL    H4421239   5.467   1.005   6.418  0.0487 -0.2591  0.6032
   19MOL    H4521240   5.541   1.243   6.379  0.0126  0.7403  0.3503
   19MOL    H4621241   5.394   1.294   6.472 -1.1964 -1.6933  0.7511
   19MOL    H4721242   5.516   1.199   6.681 -1.1649  0.2045 -0.3000
   19MOL    H4821243   5.654   1.162   6.580 -0.3585 -0.4066 -0.9047
   19MOL    H4921244   5.661   1.376   6.715  0.3882  1.2461 -0.2999
   19MOL    H5021245   5.540   1.436   6.593  0.3623  1.1539  1.8959
   19MOL    H5121246   5.788   1.304   6.493 -0.1188  0.2699 -0.8286
   19MOL    H5221247   5.707   1.445   6.421 -1.0266 -0.3069 -0.1843
   19MOL    H5321248   5.963   1.352   6.596  0.8270 -0.2110  1.0065
   19MOL    H5421249   6.057   1.443   6.785  1.7488 -0.5221 -0.3994
   19MOL    H5521250   6.026   1.601   6.723 -0.3391 -0.7624  3.7994
   19MOL    H5621251   6.220   1.409   6.592 -2.1563 -0.5056 -0.3215
   19MOL    H5721252   6.272   1.550   6.684  0.5679 -0.6488  0.0888
   19MOL    H5821253   6.097   1.564   6.420  0.0527 -0.6713 -0.2348
   19MOL    H5921254   6.268   1.573   6.410  1.3902  0.1951  1.8660
   19MOL    H6021255   6.265   1.779   6.565  0.5292 -0.4539  0.4725
   19MOL    H6121256   6.090   1.762   6.550 -0.0611 -0.1706 -0.5330
   19MOL    H6221257   6.144   1.750   6.289  0.0334 -2.2403  1.4820
   19MOL    H6321258   6.292   1.807   6.324  0.5246  0.8050  1.1780
   19MOL    H6421259   6.173   2.022   6.446 -0.8848  0.9500 -0.8793
   19MOL    H6521260   6.026   1.969   6.371 -0.3967 -1.2160  2.4229
   19MOL    H6621261   6.278   2.087   6.255 -0.2358  1.7095  0.0431
   19MOL    C6721262   6.136   2.049   6.127  0.2007  0.1739  0.9894
   19MOL    O6821263   6.016   2.016   6.104 -0.4883 -0.7737  0.1491
   19MOL    C6921264   6.224   2.105   6.010 -0.4515 -0.0145  0.2779
   19MOL    C7021265   6.234   2.013   5.879 -0.6680 -0.7466  0.4533
   19MOL    C7121266   6.326   1.886   5.894 -0.2957 -0.2478  0.3044
   19MOL    C7221267   6.284   1.785   6.002  0.5503  0.7300  0.1261
   19MOL    C7321268   6.366   1.647   5.995 -0.2980  0.1216  0.1083
   19MOL    C7421269   6.352   1.553   6.112  1.0336 -0.4824  1.0703
   19MOL    C7521270   6.219   1.475   6.097 -0.4389 -0.4838 -0.0381
   19MOL    C7621271   6.201   1.353   6.184  0.0555  0.4709  0.8958
   19MOL    C7721272   6.066   1.289   6.173  0.2730  0.6679  0.0781
   19MOL    C7821273   6.040   1.191   6.287  0.4570 -0.0276  1.0347
   19MOL    C7921274   5.908   1.113   6.263 -0.0869 -0.2480  0.5365
   19MOL    O8021275   5.842   1.129   6.164  0.6398  0.3820 -0.3335
   19MOL    N8121276   5.879   1.036   6.369  0.1679  0.1241 -0.3765
   19MOL    C8221277   5.758   0.955   6.384 -0.1812  0.2725  0.0411
   19MOL    C8321278   5.767   0.813   6.316 -0.0803  0.2233  0.7973
   19MOL    C8421279   5.650   0.711   6.337 -0.5055 -0.3365 -0.5367
   19MOL    C8521280   5.662   0.631   6.471 -0.1238  0.0299 -0.1237
   19MOL    C8621281   5.545   0.534   6.493 -0.3765 -0.0910 -0.1423
   19MOL    C8721282   5.561   0.456   6.619 -0.5016 -0.0193 -0.1339
   19MOL    N8821283   5.439   0.382   6.622  0.3243  0.1362  0.2377
   19MOL    H8921284   6.326   2.109   6.048  0.2304  0.9748 -1.5976
   19MOL    H9021285   6.199   2.205   5.973  0.0537  0.1887  0.4777
   19MOL    H9121286   6.133   1.979   5.856 -0.8615 -0.6507  1.1352
   19MOL    H9221287   6.273   2.069   5.794 -1.5456 -1.5652 -0.4951
   19MOL    H9321288   6.309   1.831   5.801  1.4152  0.2707 -0.3292
   19MOL    H9421289   6.432   1.909   5.905  0.0649 -2.2894  1.3422
   19MOL    H9521290   6.296   1.833   6.099  1.2555  0.4650  0.1774
   19MOL    H9621291   6.177   1.765   5.999  1.3914 -4.3071 -1.2324
   19MOL    H9721292   6.349   1.605   5.896  0.1496  1.6236 -0.6155
   19MOL    H9821293   6.470   1.676   5.992 -0.2604 -0.1575 -2.3035
   19MOL    H9921294   6.431   1.479   6.125 -0.8000 -2.4302  1.4559
   19MOL   H10021295   6.338   1.620   6.197  1.2220 -0.5010  1.1164
   19MOL   H10121296   6.206   1.441   5.995  0.8679 -0.5011 -0.2023
   19MOL   H10221297   6.139   1.546   6.121  0.7294  1.1640 -0.9743
   19MOL   H10321298   6.270   1.272   6.161 -2.1763 -1.5976  1.2962
   19MOL   H10421299   6.223   1.380   6.287  0.3314 -1.3778  1.3353
   19MOL   H10521300   6.049   1.253   6.071 -0.0947  0.0822  0.3381
   19MOL   H10621301   5.992   1.369   6.176  0.3212  0.9756 -4.0349
   19MOL   H10721302   6.116   1.114   6.301 -0.7144 -0.8276  3.1391
   19MOL   H10821303   6.031   1.245   6.382  1.2354  0.8553  0.6207
   19MOL   H10921304   5.953   1.043   6.437  0.5817  1.1985 -0.9282
   19MOL   H11021305   5.677   1.008   6.334  1.1452  0.7241 -1.6874
   19MOL   H11121306   5.745   0.947   6.492  2.0443 -0.1678  0.2904
   19MOL   H11221307   5.857   0.754   6.334 -0.7892 -1.4782 -1.1113
   19MOL   H11321308   5.788   0.838   6.212 -0.8864 -2.2263  0.0275
   19MOL   H11421309   5.637   0.640   6.256 -1.6292 -0.5071 -0.2122
   19MOL   H11521310   5.561   0.775   6.339  0.4828  1.0476  0.0434
   19MOL   H11621311   5.762   0.589   6.480  0.4818  1.5874  0.6936
   19MOL   H11721312   5.660   0.709   6.547 -0.2358 -1.1001  1.0307
   19MOL   H11821313   5.457   0.595   6.514  0.8753  0.9439  2.3656
   19MOL   H11921314   5.526   0.474   6.404 -0.4605 -1.5800  0.8611
   19MOL   H12021315   5.642   0.384   6.607  0.3892  0.3010  3.3990
   19MOL   H12121316   5.594   0.525   6.697  2.7116 -1.5530 -0.0196
   19MOL   H12221317   5.456   0.296   6.672 -0.5116  0.6115  1.3654
   19MOL   H12321318   5.378   0.436   6.682  1.1579  1.3736 -0.0042
   20MOL     C121319   6.846   4.842   2.771 -0.3035 -0.1686 -0.1758
   20MOL     O221320   6.747   4.769   2.770  0.1801 -0.4189  0.6377
   20MOL     C321321   6.982   4.793   2.718  0.4438  0.6351  0.5857
   20MOL     C421322   6.988   4.636   2.709  0.0038  0.1067 -0.3571
   20MOL     C521323   7.131   4.581   2.728 -0.0238 -0.3206  0.2319
   20MOL     C621324   7.150   4.435   2.725 -0.1649 -0.3659  0.0641
   20MOL     C721325   7.293   4.384   2.726  0.0315 -0.1455 -0.0171
   20MOL     C821326   7.297   4.235   2.742  0.0316 -0.2630  0.2549
   20MOL     C921327   7.448   4.183   2.753  0.2357  0.0754  0.3166
   20MOL    C1021328   7.498   4.166   2.609  0.6267 -0.2371 -0.0269
   20MOL    C1121329   7.616   4.063   2.596 -0.5758  0.1355  0.1100
   20MOL    C1221330   7.642   4.005   2.452 -0.6326  0.4588 -0.2417
   20MOL    C1321331   7.658   4.114   2.351 -0.0826 -0.3929  0.4494
   20MOL    O1421332   0.075   4.160   2.320  0.0423 -0.1808 -0.3967
   20MOL    N1521333   7.548   4.164   2.292  0.1066  0.4846 -0.1492
   20MOL    C1621334   7.520   4.284   2.217  0.2298 -0.1004  0.1059
   20MOL    C1721335   7.483   4.392   2.323  0.8065  0.8198 -0.3478
   20MOL    C1821336   7.435   4.533   2.274 -0.4249  0.1578 -0.2194
   20MOL    C1921337   7.367   4.624   2.381 -0.3047 -0.3285  1.1021
   20MOL    C2021338   7.368   4.777   2.341 -0.3403 -0.5266 -0.7644
   20MOL    C2121339   7.268   4.870   2.407 -0.4518 -0.3277 -0.2512
   20MOL    N2221340   7.277   5.006   2.362 -0.0509 -0.2389 -0.1897
   20MOL    H2321341   7.061   4.824   2.786 -1.2927  3.1792  1.5306
   20MOL    H2421342   6.999   4.846   2.625  1.0429  1.5433  1.2006
   20MOL    H2521343   6.963   4.622   2.604 -1.3881  0.7250 -0.1133
   20MOL    H2621344   6.910   4.577   2.759  0.6375 -0.1768  0.3083
   20MOL    H2721345   7.176   4.624   2.817 -0.1836  2.2153 -0.8558
   20MOL    H2821346   7.194   4.618   2.647  0.9653  1.9308  1.9900
   20MOL    H2921347   7.113   4.405   2.824  0.4934  0.3945  0.5417
   20MOL    H3021348   7.099   4.395   2.637 -0.5513 -0.5061  0.3499
   20MOL    H3121349   7.357   4.439   2.794 -1.7332 -0.2155  1.7488
   20MOL    H3221350   7.330   4.408   2.626  0.1161 -0.3881 -0.0451
   20MOL    H3321351   7.248   4.199   2.832 -2.1264  1.2237 -0.2848
   20MOL    H3421352   7.241   4.199   2.656 -0.9992  2.1857 -0.1472
   20MOL    H3521353   7.515   4.265   2.777 -2.4038  1.9906  1.3821
   20MOL    H3621354   7.457   4.088   2.806 -1.3769 -0.6811 -0.7358
   20MOL    H3721355   7.419   4.134   2.541  2.4376  0.1361 -2.3683
   20MOL    H3821356   7.525   4.265   2.573  2.4364 -0.8105 -0.2911
   20MOL    H3921357   7.591   3.976   2.658  2.6561 -0.7419  0.2781
   20MOL    H4021358   0.014   4.083   2.654  1.3096 -1.5722 -2.1275
   20MOL    H4121359   0.035   3.936   2.448 -1.2245 -0.3108  0.4349
   20MOL    H4221360   7.550   3.949   2.436 -1.1913  0.7636  1.7772
   20MOL    H4321361   7.466   4.111   2.318  2.1508 -1.4068  2.6760
   20MOL    H4421362   7.434   4.270   2.151  0.7606 -0.7616 -0.4562
   20MOL    H4521363   7.609   4.323   2.166  0.7996  0.5666  1.5862
   20MOL    H4621364   7.566   4.402   2.393  0.2085 -0.2286  0.5322
   20MOL    H4721365   7.403   4.354   2.386  0.6522 -1.2269 -1.7416
   20MOL    H4821366   7.524   4.583   2.235 -0.9080 -0.3811 -2.0748
   20MOL    H4921367   7.371   4.506   2.190  1.7729  0.3667 -1.9811
   20MOL    H5021368   7.418   4.598   2.474  1.4056 -2.6073 -0.3809
   20MOL    H5121369   7.265   4.590   2.399 -0.8598  0.5982 -0.2457
   20MOL    H5221370   7.469   4.818   2.348 -0.0942 -1.2293  0.0044
   20MOL    H5321371   7.333   4.793   2.239 -0.1461 -0.7398 -0.8648
   20MOL    H5421372   7.167   4.830   2.393 -1.2468  1.3462  0.6051
   20MOL    H5521373   7.287   4.866   2.514 -0.1420 -2.9187 -0.3581
   20MOL    H5621374   7.214   5.021   2.285  0.8934 -0.0695 -0.9426
   20MOL    H5721375   6.844   4.945   2.806  0.9616 -0.2210  0.0716
   20MOL    C5821376   7.344   5.102   2.424 -0.5544 -1.1340  0.5275
   20MOL    O5921377   7.419   5.077   2.519 -0.1962  0.1936 -0.1658
   20MOL    C6021378   7.322   5.242   2.377  0.7482  0.5300  0.3451
   20MOL    C6121379   7.459   5.297   2.315 -0.4997 -0.1038 -0.3083
   20MOL    C6221380   7.449   5.432   2.238  0.0498  0.9638  0.2524
   20MOL    C6321381   7.394   5.392   2.102  0.0937 -0.0726  0.2954
   20MOL    C6421382   7.366   5.518   2.026 -0.4537  0.0355 -0.0177
   20MOL    C6521383   7.336   5.503   1.879  0.3188 -0.0309  0.1240
   20MOL    C6621384   7.265   5.626   1.823  0.2015  0.0445 -0.0422
   20MOL    C6721385   7.271   5.618   1.669  0.1920 -0.0437 -0.2313
   20MOL    C6821386   7.212   5.743   1.596 -0.7219 -0.5708 -0.1843
   20MOL    C6921387   7.246   5.752   1.444  0.3683  0.3739 -0.2699
   20MOL    C7021388   7.140   5.678   1.354 -0.4604  0.5636 -0.4616
   20MOL    O7121389   7.024   5.718   1.352 -0.1619 -0.6205  0.3310
   20MOL    N7221390   7.185   5.575   1.285  0.5070 -0.1931 -0.4683
   20MOL    C7321391   7.127   5.484   1.187 -0.5011 -0.5717 -0.5816
   20MOL    C7421392   7.103   5.543   1.044  0.6240 -0.0807  0.0131
   20MOL    C7521393   7.027   5.441   0.958  0.2809  0.5199 -0.2874
   20MOL    C7621394   6.977   5.508   0.829 -0.1940  0.2159  0.3269
   20MOL    C7721395   6.898   5.418   0.736 -0.2367 -0.1046 -0.9220
   20MOL    C7821396   6.844   5.488   0.620 -0.6264 -0.5842 -0.6341
   20MOL    N7921397   6.783   5.402   0.520 -0.4021 -0.4766 -0.2234
   20MOL    H8021398   7.283   5.309   2.454  1.4023 -0.4389  1.5242
   20MOL    H8121399   7.247   5.237   2.297 -1.2193 -4.8408  2.3275
   20MOL    H8221400   7.529   5.312   2.397  1.3109 -0.3906 -1.7795
   20MOL    H8321401   7.516   5.226   2.255 -0.9286 -1.0946  0.4328
   20MOL    H8421402   7.547   5.475   2.220 -0.0729  0.0794 -2.8200
   20MOL    H8521403   7.385   5.511   2.277 -1.6193  1.2874 -3.0107
   20MOL    H8621404   7.305   5.330   2.112  0.2086  0.0160  2.1662
   20MOL    H8721405   7.455   5.319   2.048 -0.9552 -1.2152  0.6340
   20MOL    H8821406   7.289   5.569   2.084 -0.4299  0.5952 -0.4669
   20MOL    H8921407   7.448   5.590   2.039 -3.0415  2.9962  0.3940
   20MOL    H9021408   7.273   5.415   1.863 -0.4748 -0.0903  3.2733
   20MOL    H9121409   7.428   5.484   1.823 -0.3250 -2.0056 -0.3019
   20MOL    H9221410   7.326   5.714   1.842  0.0356 -0.0104  0.7477
   20MOL    H9321411   7.159   5.632   1.851  0.4555 -3.1696  1.8515
   20MOL    H9421412   7.378   5.610   1.652  0.2801  2.7169 -1.2259
   20MOL    H9521413   7.220   5.527   1.637 -0.0797  0.2840 -0.7409
   20MOL    H9621414   7.247   5.836   1.642  2.1862  0.5249 -4.3029
   20MOL    H9721415   7.103   5.741   1.601 -0.6546 -1.0183  1.2932
   20MOL    H9821416   7.248   5.856   1.413  0.2292  1.7151  3.8724
   20MOL    H9921417   7.332   5.692   1.417 -0.7053 -1.9375  1.2383
   20MOL   H10021418   7.285   5.561   1.293  0.5721 -0.0920 -1.0379
   20MOL   H10121419   7.034   5.438   1.220 -0.3411  0.6687  1.7482
   20MOL   H10221420   7.194   5.398   1.183  0.4232  0.0786  0.5535
   20MOL   H10321421   7.049   5.637   1.053  0.0368 -0.4692  0.6276
   20MOL   H10421422   7.199   5.569   1.000  0.8944 -0.7881  0.1712
   20MOL   H10521423   6.940   5.411   1.017 -0.2078  4.6021  1.1897
   20MOL   H10621424   7.079   5.347   0.937  1.3639  1.1679 -0.5287
   20MOL   H10721425   6.905   5.583   0.860 -0.2246  0.6068 -0.6972
   20MOL   H10821426   7.062   5.555   0.779 -0.0011 -0.0153  0.4308
   20MOL   H10921427   6.819   5.367   0.792 -0.3365  0.7128 -0.3064
   20MOL   H11021428   6.959   5.339   0.693  0.4312 -0.6968  1.0355
   20MOL   H11121429   6.933   5.529   0.571 -0.2204 -1.0328 -0.2883
   20MOL   H11221430   6.769   5.562   0.646 -0.6522  0.4493 -3.4947
   20MOL   H11321431   6.809   5.305   0.528  0.1078 -0.1757  2.2576
   20MOL   C11421432   6.698   5.440   0.420  0.6536  0.6273  0.2561
   20MOL   O11521433   6.638   5.544   0.423  0.5930 -0.1388 -0.0977
   20MOL   C11621434   6.662   5.340   0.309  0.0155 -0.0582  0.1583
   20MOL   C11721435   6.778   5.332   0.208  0.2486 -0.0919 -0.9315
   20MOL   C11821436   6.777   5.231   0.096 -0.1133 -0.7327 -0.7031
   20MOL   C11921437   6.765   5.083   0.118  0.2508  0.4344  0.3689
   20MOL   C12021438   6.769   5.009   7.678  0.1839 -0.0361  0.4411
   20MOL   C12121439   6.743   4.862   7.689 -0.3910 -0.1469 -0.7229
   20MOL   C12221440   6.718   4.798   7.550  0.5374 -0.4300  0.0761
   20MOL   C12321441   6.575   4.817   7.502  0.8585  0.3284  0.2477
   20MOL   C12421442   6.552   4.820   7.354 -0.0471  0.0937 -0.5032
   20MOL   C12521443   6.570   4.960   7.292  0.0247 -0.0215  0.4943
   20MOL   C12621444   6.596   4.968   7.139  0.9838  0.1592  0.4990
   20MOL   O12721445   6.595   4.865   7.068  0.1949 -0.0408 -0.1700
   20MOL   N12821446   6.616   5.087   7.092 -0.1034 -0.0747  0.0101
   20MOL   C12921447   6.623   5.127   6.951 -0.2402 -0.6636  0.3935
   20MOL   C13021448   6.750   5.094   6.875  0.1477 -0.1038  0.5271
   20MOL   C13121449   6.745   5.112   6.722  0.3262  0.0898  0.4612
   20MOL   C13221450   6.877   5.064   6.659 -0.0650  0.4149  0.1422
   20MOL   C13321451   6.872   5.112   6.507  1.3310 -0.2238 -0.2615
   20MOL   C13421452   7.002   5.066   6.431  0.2949  0.7490  0.3770
   20MOL   N13521453   7.002   4.925   6.408 -0.4278 -0.0280  0.2346
   20MOL   H13621454   6.659   5.243   0.357  1.3345  0.6833  1.7879
   20MOL   H13721455   6.567   5.363   0.261 -0.2206 -1.6635 -0.1713
   20MOL   H13821456   6.877   5.309   0.248 -1.2286 -1.7235  1.9590
   20MOL   H13921457   6.776   5.434   0.169 -2.0154 -0.2698 -1.3473
   20MOL   H14021458   6.687   5.265   0.045  0.9793  1.8209 -1.0237
   20MOL   H14121459   6.862   5.250   0.030 -0.5018 -0.8732 -1.2484
   20MOL   H14221460   6.849   5.059   0.183  0.3433 -2.3352 -0.6992
   20MOL   H14321461   6.667   5.058   0.159  0.0511  1.3242  0.4415
   20MOL   H14421462   6.701   5.052   7.605  0.8258  3.7145  1.9172
   20MOL   H14521463   6.869   5.020   7.637  1.6715 -1.6246  3.4422
   20MOL   H14621464   6.659   4.844   0.065  0.9006  0.3523  1.0589
   20MOL   H14721465   6.835   4.823   0.041  0.4503  1.3134 -1.1464
   20MOL   H14821466   6.787   4.839   7.475 -0.3932 -2.4004 -1.8868
   20MOL   H14921467   6.743   4.692   7.554 -0.3502 -0.6967 -1.1773
   20MOL   H15021468   6.520   4.901   7.544 -2.1232 -0.5543 -1.7123
   20MOL   H15121469   6.525   4.734   7.553 -0.4842  1.2004  0.3984
   20MOL   H15221470   6.456   4.777   7.327 -0.1414  0.3184 -0.5299
   20MOL   H15321471   6.620   4.741   7.324  1.6108  1.6556 -0.9511
   20MOL   H15421472   6.663   5.003   7.329 -0.4682  2.4248 -0.9506
   20MOL   H15521473   6.492   5.035   7.309 -0.5290 -0.1580 -1.2781
   20MOL   H15621474   6.610   5.167   7.153  0.9626  0.0375 -0.0168
   20MOL   H15721475   6.600   5.234   6.952 -1.3567 -0.8784 -0.8678
   20MOL   H15821476   6.544   5.076   6.896 -0.5901 -0.3781  0.6350
   20MOL   H15921477   6.779   4.992   6.901 -0.0744  0.4490  3.1141
   20MOL   H16021478   6.827   5.161   6.912 -0.0279  0.6769 -0.4979
   20MOL   H16121479   6.670   5.048   6.675  1.2264 -0.7729  0.1996
   20MOL   H16221480   6.725   5.216   6.696  1.0395  0.5655  1.7996
   20MOL   H16321481   6.964   5.110   6.706  1.1741 -0.8487 -0.8902
   20MOL   H16421482   6.891   4.958   6.677  0.5239 -0.1725 -3.4252
   20MOL   H16521483   6.868   5.219   6.488 -3.3920 -0.3490 -0.5112
   20MOL   H16621484   6.778   5.081   6.460  1.3857  0.7309 -1.0179
   20MOL   H16721485   7.002   5.107   6.330 -0.2011  1.6839  0.7522
   20MOL   H16821486   7.090   5.092   6.489  1.1082 -2.7803  0.8624
   20MOL   H16921487   7.078   4.874   6.449 -0.8227 -0.9037 -0.1191
   20MOL   C17021488   6.917   4.846   6.333 -0.3815  0.5185  0.5323
   20MOL   O17121489   6.810   4.887   6.287 -0.5217  0.5985  0.0066
   20MOL   C17221490   6.949   4.699   6.313  0.3649 -0.1042  0.2528
   20MOL   C17321491   6.951   4.614   6.438  0.7053  0.5088  0.4993
   20MOL   C17421492   6.982   4.463   6.417 -0.6453 -0.4400 -0.6213
   20MOL   C17521493   7.015   4.394   6.551  0.5188 -0.8877  0.2246
   20MOL   C17621494   7.032   4.242   6.541  0.3735 -0.4454  0.4221
   20MOL   C17721495   7.156   4.191   6.616  0.0309  0.0396  0.1650
   20MOL   C17821496   7.139   4.194   6.766 -0.0526  0.0397 -0.3690
   20MOL   C17921497   7.271   4.195   6.832 -0.1756 -0.4523 -0.1497
   20MOL   C18021498   7.254   4.223   6.986  0.1151 -0.4027  0.5749
   20MOL   C18121499   7.222   4.366   7.021  0.5733 -0.2555  0.1715
   20MOL   C18221500   7.317   4.470   6.962 -0.2284  0.3144 -0.0652
   20MOL   O18321501   7.440   4.456   6.965  0.4627 -0.3571  0.1466
   20MOL   N18421502   7.266   4.589   6.921  0.2972  0.3644 -0.5208
   20MOL   C18521503   7.340   4.702   6.874 -0.4113  0.0747  0.9764
   20MOL   C18621504   7.416   4.686   6.744 -0.0444  0.2680  0.5254
   20MOL   C18721505   7.323   4.646   6.621 -0.1985  0.0901 -0.2827
   20MOL   C18821506   7.395   4.657   6.483  0.4613  0.0204  0.7499
   20MOL   C18921507   7.495   4.533   6.475  0.2981  0.1454 -0.0374
   20MOL   C19021508   7.575   4.514   6.340 -0.5749  0.3851 -0.2039
   20MOL   N19121509   7.626   4.647   6.294 -0.1262  0.7336  0.3544
   20MOL   H19221510   6.877   4.654   6.245 -0.1439 -0.4696  1.0269
   20MOL   H19321511   7.038   4.680   6.252 -0.0460  0.0839 -0.4069
   20MOL   H19421512   6.851   4.599   6.481 -1.0777  3.4466 -2.3393
   20MOL   H19521513   7.011   4.661   6.516  0.3094  2.1492 -0.1731
   20MOL   H19621514   7.074   4.456   6.359 -0.5705  1.5648 -0.7833
   20MOL   H19721515   6.902   4.413   6.362 -4.0071  0.5412  3.1201
   20MOL   H19821516   7.104   4.444   6.590  0.5591 -0.2653 -0.6344
   20MOL   H19921517   6.941   4.419   6.627  0.9212  1.1166  0.0072
   20MOL   H20021518   6.939   4.201   6.580  1.4482 -1.7308  1.6815
   20MOL   H20121519   7.034   4.215   6.435 -2.2507  0.0487  0.2343
   20MOL   H20221520   7.237   4.258   6.584  0.0917 -0.8045 -1.4701
   20MOL   H20321521   7.182   4.092   6.579 -0.9115 -0.4794  0.8665
   20MOL   H20421522   7.080   4.284   6.783 -1.5692 -1.0407  0.0894
   20MOL   H20521523   7.082   4.114   6.811 -1.0096  2.2804  2.5514
   20MOL   H20621524   7.323   4.101   6.819  0.4801  0.2843 -3.3167
   20MOL   H20721525   7.340   4.266   6.785  0.7746 -2.3957 -1.7692
   20MOL   H20821526   7.345   4.199   7.041  0.7381  1.0569  0.2193
   20MOL   H20921527   7.177   4.154   7.019 -0.8265 -0.8064 -2.3983
   20MOL   H21021528   7.121   4.403   7.004  0.3396 -0.0176  1.9837
   20MOL   H21121529   7.232   4.366   7.130  1.9003 -1.6576  0.0724
   20MOL   H21221530   7.166   4.597   6.909  0.4298  2.4576 -0.3157
   20MOL   H21321531   7.405   4.725   6.958 -0.6913  0.4717  1.0851
   20MOL   H21421532   7.278   4.791   6.870  2.1846  1.8907 -0.0639
   20MOL   H21521533   7.456   4.785   6.721  0.1160  0.3687  1.2439
   20MOL   H21621534   7.502   4.620   6.755  0.7817  1.2653  0.0192
   20MOL   H21721535   7.304   4.539   6.636  0.6549 -0.0328 -0.0245
   20MOL   H21821536   7.230   4.701   6.612 -0.0268  0.5738  0.8381
   20MOL   H21921537   7.453   4.750   6.486 -1.5867  1.4132 -1.2671
   20MOL   H22021538   7.320   4.654   6.404  1.2489 -1.6795  0.0386
   20MOL   H22121539   7.437   4.443   6.494  1.3424 -0.6447 -0.5419
   20MOL   H22221540   7.561   4.554   6.560 -2.0510  1.0826  1.6024
   20MOL   H22321541   7.503   4.484   6.264 -0.2142 -1.5914  0.2188
   20MOL   H22421542   7.650   4.436   6.345 -0.2630  0.7824  1.7509
   20MOL   H22521543   7.618   4.727   6.356  0.6981  0.9175  0.2244
   20MOL   C22621544   0.007   4.665   6.179 -0.5295 -0.6766  0.3740
   20MOL   O22721545   0.039   4.570   6.105  0.3009 -0.0763  0.0034
   20MOL   C22821546   0.042   4.813   6.151  0.0095  0.1987  0.3370
   20MOL   C22921547   0.014   4.862   6.014  0.3775  0.3442 -0.2176
   20MOL   C23021548   0.093   4.991   5.978 -0.5143 -0.1655  0.1630
   20MOL   C23121549   0.063   5.034   5.829  0.1137 -0.0621  0.3773
   20MOL   C23221550   0.187   5.110   5.762  0.0644  0.6490 -0.3336
   20MOL   C23321551   0.225   5.232   5.841  0.0756  0.3538  0.3976
   20MOL   C23421552   0.108   5.326   5.875  0.2001 -0.1815  0.4466
   20MOL   C23521553   0.163   5.470   5.889  0.5765 -0.0138  0.9649
   20MOL   C23621554   0.256   5.508   6.007 -0.3136  0.1867  0.0636
   20MOL   C23721555   0.277   5.660   6.007  0.2160 -0.2157 -0.1111
   20MOL   C23821556   0.367   5.708   6.119 -0.0095  0.4335  0.1314
   20MOL   O23921557   0.407   5.631   6.205 -0.2242 -0.1109 -0.2351
   20MOL   N24021558   0.406   5.836   6.114  0.0794 -0.2044 -0.4817
   20MOL   C24121559   0.488   5.907   6.206 -0.5635 -0.7627  0.1030
   20MOL   C24221560   0.418   5.962   6.332 -0.1586 -0.3922  0.4884
   20MOL   C24321561   0.516   6.024   6.433 -0.0184  0.0733 -0.7775
   20MOL   C24421562   0.447   6.083   6.557 -0.0221  0.0379  0.8443
   20MOL   C24521563   0.367   5.984   6.635 -0.2088  0.7438 -0.1984
   20MOL   C24621564   0.325   6.051   6.764 -0.3068  0.0765 -0.4143
   20MOL   N24721565   0.260   5.971   6.871 -0.5179  0.1442  0.1722
   20MOL   H24821566   0.148   4.830   6.168  0.3961 -0.7016 -1.0520
   20MOL   H24921567   7.678   4.875   6.221  0.7221  0.0225  1.0537
   20MOL   H25021568   0.021   4.791   5.932 -1.4140 -0.0719 -0.0359
   20MOL   H25121569   7.601   4.893   6.005 -0.3741 -1.5148  1.5025
   20MOL   H25221570   0.070   5.065   6.055  1.8609  2.0395 -1.1467
   20MOL   H25321571   0.198   4.963   5.991 -0.7396 -0.2038  2.0026
   20MOL   H25421572   7.680   5.113   5.828 -0.3318 -0.4610 -1.8607
   20MOL   H25521573   0.033   4.949   5.767  0.6801 -0.5386  0.7495
   20MOL   H25621574   0.159   5.142   5.661  0.8799  0.0682 -0.7546
   20MOL   H25721575   0.271   5.041   5.753 -1.7052 -1.5335 -0.6551
   20MOL   H25821576   0.262   5.197   5.938  3.3417 -1.4575 -1.4135
   20MOL   H25921577   0.313   5.283   5.802  0.9173 -1.3487 -0.0139
   20MOL   H26021578   0.040   5.288   5.951  0.1848 -0.1734  0.4363
   20MOL   H26121579   0.043   5.330   5.787  0.0065 -0.9167  0.5516
   20MOL   H26221580   0.210   5.502   5.796  0.8998 -0.0293  1.1224
   20MOL   H26321581   0.078   5.538   5.894  0.4230 -0.0778 -0.6755
   20MOL   H26421582   0.207   5.468   6.095 -1.4100 -0.7851 -0.9624
   20MOL   H26521583   0.355   5.465   5.991  0.3562  1.7534 -0.0407
   20MOL   H26621584   0.335   5.685   5.918  0.0682 -1.9158 -0.7016
   20MOL   H26721585   0.179   5.707   6.013 -0.0106 -0.7184  0.1032
   20MOL   H26821586   0.372   5.892   6.036 -1.6458  1.4839  1.4218
   20MOL   H26921587   0.548   5.987   6.162 -0.8924  0.4403  1.7899
   20MOL   H27021588   0.577   5.850   6.234 -0.6690  0.3770  2.8684
   20MOL   H27121589   0.358   5.880   6.372 -0.1718 -0.5115  0.2250
   20MOL   H27221590   0.353   6.044   6.302 -0.7357  0.5603  4.1160
   20MOL   H27321591   0.584   5.950   6.475 -0.0646  0.5082  0.0849
   20MOL   H27421592   0.581   6.102   6.392  0.3357  1.0300  1.5350
   20MOL   H27521593   0.386   6.166   6.522 -1.2602 -1.0762  0.2706
   20MOL   H27621594   0.531   6.124   6.612  1.3275 -2.0609  0.3825
   20MOL   H27721595   0.432   5.898   6.651  0.2682  1.5719  2.6478
   20MOL   H27821596   0.279   5.957   6.576  0.7265  0.4747 -1.4922
   20MOL   H27921597   0.251   6.127   6.737 -1.1894  0.0837  1.9115
   20MOL   H28021598   0.405   6.107   6.812  0.2057  0.2486 -1.4610
   20MOL   H28121599   0.182   6.019   6.913  1.1298  1.2491  2.1195
   20MOL   C28221600   0.304   5.860   6.931 -0.7588  1.0971 -0.3966
   20MOL   O28321601   0.406   5.807   6.894  0.3057 -0.3929 -0.2871
   20MOL   C28421602   0.212   5.807   7.044  0.1521 -0.6087  0.1745
   20MOL   C28521603   0.240   5.664   7.085 -0.4511  0.3943  0.4048
   20MOL   C28621604   0.181   5.565   6.993 -0.2355 -0.0284 -0.0726
   20MOL   C28721605   0.212   5.418   7.028 -0.8578 -0.1105 -0.1011
   20MOL   C28821606   0.128   5.319   6.947 -0.2033  0.6844 -0.7818
   20MOL   C28921607   7.672   5.320   6.965 -0.2463  0.4796 -0.1235
   20MOL   C29021608   7.600   5.197   6.893  0.1364  0.0520  0.1843
   20MOL   C29121609   7.450   5.180   6.922  0.2668  0.0394 -0.3198
   20MOL   C29221610   7.374   5.066   6.848  0.2059  0.2627  0.3202
   20MOL   C29321611   7.352   5.094   6.697 -0.2462  0.1922 -0.4103
   20MOL   C29421612   7.280   5.229   6.662  0.1264 -0.5229 -0.4881
   20MOL   O29521613   7.172   5.244   6.711  0.4504 -0.6290  0.3986
   20MOL   N29621614   7.335   5.317   6.573  0.0323 -0.2006  0.1722
   20MOL   C29721615   7.300   5.458   6.578 -0.2704 -0.1687 -0.2894
   20MOL   C29821616   7.227   5.503   6.451 -0.6292  0.2865  0.2846
   20MOL   C29921617   7.107   5.415   6.395  0.5485  1.2447  0.3311
   20MOL   C30021618   7.076   5.435   6.248 -0.0860  0.9137  0.3831
   20MOL   C30121619   6.933   5.413   6.198 -0.2022  0.2836 -0.1971
   20MOL   C30221620   6.925   5.472   6.049 -0.0011  0.1814 -0.4046
   20MOL   N30321621   6.788   5.452   5.998 -0.0628 -0.0825 -0.2360
   20MOL   H30421622   0.222   5.872   7.131 -4.6248  1.0109 -0.3596
   20MOL   H30521623   0.107   5.812   7.015 -0.3308 -0.2446  1.9116
   20MOL   H30621624   0.204   5.649   7.187 -0.1631 -1.4665  0.2577
   20MOL   H30721625   0.344   5.631   7.083 -0.7967 -0.6802 -1.3245
   20MOL   H30821626   0.074   5.586   6.987  0.1204  0.8871 -3.8475
   20MOL   H30921627   0.212   5.575   6.890  1.5522  0.3022  0.4963
   20MOL   H31021628   0.194   5.398   7.133  0.3591 -2.3030 -0.2812
   20MOL   H31121629   0.317   5.394   7.016 -0.5592  0.9760  0.3791
   20MOL   H31221630   0.147   5.328   6.840  2.7035 -2.4392 -0.6277
   20MOL   H31321631   0.164   5.218   6.964  1.1344  1.4522  1.2180
   20MOL   H31421632   7.664   5.294   7.070 -0.8031 -1.0066 -0.5183
   20MOL   H31521633   7.624   5.413   6.935  1.2292  0.3722 -2.9529
   20MOL   H31621634   7.655   5.109   6.928  2.5206  1.3496 -0.2120
   20MOL   H31721635   7.616   5.203   6.786 -0.5169 -0.5095  0.0520
   20MOL   H31821636   7.396   5.274   6.919 -0.6154 -0.5115 -2.8498
   20MOL   H31921637   7.441   5.156   7.028  1.3466  0.3403 -0.1532
   20MOL   H32021638   7.423   4.973   6.873  0.7788  0.6080  0.4843
   20MOL   H32121639   7.279   5.059   6.901  1.3388 -1.1918  2.1871
   20MOL   H32221640   7.446   5.089   6.643 -0.2712  2.3502 -0.7033
   20MOL   H32321641   7.285   5.014   6.667 -1.7266  0.7022  1.4371
   20MOL   H32421642   7.422   5.290   6.528  0.3788  1.1424  0.0268
   20MOL   H32521643   7.394   5.513   6.572  1.8482 -3.5748  0.0950
   20MOL   H32621644   7.258   5.485   6.675  3.2769 -0.4775  1.4188
   20MOL   H32721645   7.310   5.491   6.381  0.0629  1.4979  0.8701
   20MOL   H32821646   7.215   5.611   6.446 -0.2166  0.3871  1.4294
   20MOL   H32921647   7.014   5.436   6.447  0.7025  0.0537  1.1078
   20MOL   H33021648   7.123   5.310   6.420 -1.2183  0.6792 -0.8381
   20MOL   H33121649   7.097   5.540   6.231  0.3386  0.5915 -1.1550
   20MOL   H33221650   7.150   5.375   6.195 -2.8248 -0.2527 -2.2821
   20MOL   H33321651   6.857   5.465   6.257 -2.3524 -0.8971 -1.8502
   20MOL   H33421652   6.905   5.308   6.194 -2.8884  0.9003  0.8234
   20MOL   H33521653   6.954   5.577   6.059 -0.6161  0.2205  1.1748
   20MOL   H33621654   6.989   5.418   5.980 -0.7782 -1.6416  0.2834
   20MOL   H33721655   6.771   5.367   5.946 -0.0516 -1.3143  1.7094
   20MOL   C33821656   6.692   5.543   6.008  0.2697 -0.0693  0.0117
   20MOL   O33921657   6.709   5.647   6.070  0.7991 -0.1101  0.1944
   20MOL   C34021658   6.561   5.519   5.944 -0.9962  0.1426 -0.7942
   20MOL   C34121659   6.524   5.615   5.829  0.7970  0.3316 -0.0672
   20MOL   C34221660   6.508   5.764   5.875  0.4942  0.6088 -0.2664
   20MOL   C34321661   6.455   5.866   5.763 -0.0340  0.1020  0.7179
   20MOL   C34421662   6.398   5.989   5.834  0.4173  0.3928 -0.3571
   20MOL   C34521663   6.413   6.112   5.744  0.7064  0.1526  0.0305
   20MOL   C34621664   6.393   6.249   5.808 -0.8402 -0.2521 -0.1556
   20MOL   C34721665   6.371   6.369   5.712  0.1572 -0.3087 -0.9441
   20MOL   C34821666   6.346   6.502   5.780  0.0667 -0.3531  0.3382
   20MOL   C34921667   6.325   6.626   5.683  0.2988  0.4272 -0.3472
   20MOL   C35021668   6.184   6.673   5.686  0.4754 -0.3510  0.6277
   20MOL   O35121669   6.118   6.659   5.581  0.7103  0.1293 -0.5566
   20MOL   N35221670   6.139   6.741   5.795 -0.3787 -0.2387  0.0581
   20MOL   C35321671   6.005   6.785   5.817 -0.3170  0.0062 -0.5053
   20MOL   C35421672   6.007   6.939   5.810  0.0398  0.4292  0.4580
   20MOL   C35521673   6.051   7.005   5.942 -0.3128  0.0133  0.0738
   20MOL   C35621674   6.062   7.155   5.939  0.1591  0.4269  0.0285
   20MOL   C35721675   5.932   7.226   5.909 -0.5641  0.1019 -0.0929
   20MOL   C35821676   5.806   7.202   6.000 -1.0753 -0.2560 -0.2106
   20MOL   N35921677   5.725   7.324   6.003 -0.6859  0.4203 -0.2389
   20MOL   H36021678   6.479   5.525   6.016 -0.3224 -3.0463  0.3224
   20MOL   H36121679   6.567   5.421   5.896 -0.1248  0.2330 -0.8694
   20MOL   H36221680   6.594   5.618   5.745 -0.7378 -2.4395 -1.5040
   20MOL   H36321681   6.425   5.583   5.797  0.9381  1.0379 -1.2473
   20MOL   H36421682   6.600   5.809   5.913  0.6163 -0.4645  0.7336
   20MOL   H36521683   6.435   5.765   5.956  0.0785 -0.3552 -0.6296
   20MOL   H36621684   6.540   5.888   5.698 -1.9819 -0.1094 -1.9910
   20MOL   H36721685   6.382   5.815   5.700 -0.0940  0.4170  0.5328
   20MOL   H36821686   6.301   5.965   5.878  0.3181 -0.9601 -1.2834
   20MOL   H36921687   6.465   6.009   5.918 -0.0392  2.1130 -0.3898
   20MOL   H37021688   6.512   6.111   5.698  0.7495  1.9332  0.0745
   20MOL   H37121689   6.331   6.100   5.673  0.6189  1.3377 -0.0727
   20MOL   H37221690   6.308   6.237   5.876 -1.7401 -0.9726 -1.3938
   20MOL   H37321691   6.481   6.275   5.868 -2.0449 -1.1018  2.0250
   20MOL   H37421692   6.454   6.391   5.645 -0.2251  1.3015 -0.9062
   20MOL   H37521693   6.293   6.347   5.639  1.9345 -0.0010 -2.9866
   20MOL   H37621694   6.432   6.528   5.841 -1.6312  2.3164  1.6784
   20MOL   H37721695   6.261   6.497   5.849 -2.9929 -0.1770 -3.2461
   20MOL   H37821696   6.386   6.711   5.714  1.0846 -0.6537  1.1481
   20MOL   H37921697   6.364   6.614   5.582  0.6511 -1.4268  0.0009
   20MOL   H38021698   6.205   6.755   5.870  0.9947 -0.4170 -1.0790
   20MOL   H38121699   5.976   6.747   5.915 -1.1477  1.5553 -0.1346
   20MOL   H38221700   5.942   6.738   5.741  2.4623 -3.2587 -0.9138
   20MOL   H38321701   5.904   6.964   5.785 -0.6204  0.0933  2.6844
   20MOL   H38421702   6.071   6.968   5.727  0.7615  1.7359  1.4548
   20MOL   H38521703   5.988   6.975   6.026 -1.2365  1.0948 -0.2176
   20MOL   H38621704   6.151   6.964   5.956  0.7190  1.5044 -2.4990
   20MOL   H38721705   6.108   7.196   6.029  0.7873 -0.2450  0.0195
   20MOL   H38821706   6.134   7.183   5.862  1.4456  1.2547  1.5066
   20MOL   H38921707   5.900   7.199   5.809 -2.8984 -2.3416  1.2501
   20MOL   H39021708   5.963   7.330   5.911 -2.2848  0.6108  0.8652
   20MOL   H39121709   5.750   7.115   5.967  1.7995 -1.9983 -0.6655
   20MOL   H39221710   5.833   7.168   6.100 -1.9519 -2.6458 -0.7556
   20MOL   H39321711   5.753   7.412   5.963 -0.9890  0.7898  0.3499
   20MOL   C39421712   5.611   7.341   6.076  1.2041 -0.4521  0.3884
   20MOL   O39521713   5.569   7.243   6.142  0.4235 -0.8254  0.2053
   20MOL   C39621714   5.553   7.476   6.071  0.1190  0.1505  0.2977
   20MOL   C39721715   5.398   7.472   6.088 -0.4358 -0.5359  0.0639
   20MOL   C39821716   5.317   7.596   6.049 -0.2819 -0.7239  0.1299
   20MOL   C39921717   5.167   7.595   6.065 -0.7968 -0.3042  0.1139
   20MOL   C40021718   5.120   7.562   6.207 -0.7277 -0.1440 -0.5453
   20MOL   C40121719   4.972   7.593   6.210  0.5607  0.5835 -0.1079
   20MOL   C40221720   4.912   7.515   6.325  0.6003 -0.3151  0.4524
   20MOL   C40321721   4.761   7.517   6.331 -0.5327  0.2060 -0.0049
   20MOL   C40421722   4.707   7.437   6.449  0.6155 -0.3805  0.3244
   20MOL   C40521723   4.555   7.434   6.459 -0.3502  0.5167 -0.4573
   20MOL   C40621724   4.485   7.571   6.486 -0.6856  0.2218 -0.6596
   20MOL   O40721725   4.509   7.637   6.587  0.0084 -0.1106 -0.3850
   20MOL   N40821726   4.390   7.623   6.400  0.0293  0.4766 -0.2772
   20MOL   C40921727   4.307   0.050   6.419 -0.3046  0.4041 -0.0774
   20MOL   C41021728   4.382   0.185   6.425  0.3329 -0.0202  0.0778
   20MOL   C41121729   4.454   0.228   6.297  0.2248  0.3792 -0.3108
   20MOL   C41221730   4.538   0.352   6.318 -0.2200 -0.6002  0.0000
   20MOL   C41321731   4.642   0.380   6.205  0.8545 -0.4325 -0.1971
   20MOL   C41421732   4.767   0.296   6.226  0.2697  0.8669  0.6035
   20MOL   N41521733   4.857   0.326   6.119  0.0029 -0.8449  0.0760
   20MOL   H41621734   5.558   7.515   5.969 -2.9448  0.8804  0.3767
   20MOL   H41721735   5.601   7.550   6.135 -1.1662 -0.8110  2.4048
   20MOL   H41821736   5.379   7.448   6.192 -0.2324  0.1046  0.2546
   20MOL   H41921737   5.356   7.387   6.034  0.0575  0.5290 -2.0683
   20MOL   H42021738   5.351   7.632   5.952 -3.2526  2.3372  0.1406
   20MOL   H42121739   5.372   7.673   6.105 -0.0360  0.6645 -1.9752
   20MOL   H42221740   5.110   7.529   6.000  0.0573 -1.0909  0.1665
   20MOL   H42321741   5.138   0.002   6.028  0.6428  0.1897  0.2734
   20MOL   H42421742   5.149   7.461   6.235 -1.4198  0.0569  0.9855
   20MOL   H42521743   5.178   7.628   6.271  1.5895 -0.7699 -1.9729
   20MOL   H42621744   4.951   0.008   6.207 -0.3237  0.3691 -2.2520
   20MOL   H42721745   4.919   7.569   6.118  1.0174  0.2087 -0.2764
   20MOL   H42821746   4.952   7.413   6.324  0.3872 -0.3897 -1.6222
   20MOL   H42921747   4.948   7.559   6.418 -0.9249  0.7458  0.5474
   20MOL   H43021748   4.715   7.615   6.340  1.0564  1.2062 -2.1493
   20MOL   H43121749   4.719   7.477   6.238  2.6490 -1.0358 -0.9684
   20MOL   H43221750   4.741   7.488   6.539 -0.1660  0.7229  0.0080
   20MOL   H43321751   4.738   7.333   6.448  1.2069 -0.2000 -0.0990
   20MOL   H43421752   4.527   7.394   6.362  2.0924 -0.8387 -0.6308
   20MOL   H43521753   4.515   7.369   6.537  1.5218  0.7388  0.7247
   20MOL   H43621754   4.374   7.573   6.314 -2.3781 -0.8357  0.8823
   20MOL   H43721755   4.253   0.033   6.512  1.1817 -1.3196  0.4978
   20MOL   H43821756   4.239   0.043   6.335 -0.2611  1.5926 -0.2320
   20MOL   H43921757   4.448   0.187   6.512 -1.2437 -1.6289  1.3287
   20MOL   H44021758   4.309   0.263   6.447 -2.0963 -1.8974 -1.0961
   20MOL   H44121759   4.520   0.144   6.278  1.9622  1.8710 -1.0544
   20MOL   H44221760   4.382   0.235   6.216  0.1537 -2.4825 -0.5290
   20MOL   H44321761   4.474   0.440   6.322  1.3754  0.6844 -1.7262
   20MOL   H44421762   4.592   0.341   6.412 -0.3059 -1.3527 -0.0413
   20MOL   H44521763   4.600   0.338   6.114 -0.1100  2.1445 -0.9615
   20MOL   H44621764   4.666   0.482   6.175  0.3407 -0.3363 -0.2817
   20MOL   H44721765   4.814   0.326   6.320  1.6173 -0.9078  0.5077
   20MOL   H44821766   4.750   0.189   6.223 -1.4661  1.1658 -0.9527
   20MOL   H44921767   4.915   0.407   6.135 -0.2620 -1.1529  2.8167
   20MOL   C45021768   4.873   0.265   5.997 -0.4328 -0.0717 -0.4840
   20MOL   O45121769   4.803   0.174   5.965 -0.3984  0.0644 -0.2910
   20MOL   C45221770   4.972   0.322   5.895 -0.4683 -0.1182 -0.6280
   20MOL   C45321771   5.026   0.222   5.794 -0.0399 -0.4379 -0.2181
   20MOL   C45421772   5.118   0.300   5.690 -0.2455 -0.1463  0.1987
   20MOL   C45521773   5.033   0.324   5.564  0.1024 -0.2338  0.6972
   20MOL   C45621774   5.127   0.381   5.450  0.3224 -0.8915 -0.3944
   20MOL   C45721775   5.167   0.277   5.347 -0.4085 -0.0266  0.0517
   20MOL   C45821776   5.245   0.157   5.396 -0.1795 -0.8022  0.3091
   20MOL   C45921777   5.387   0.197   5.421 -0.2029  0.4169  0.0858
   20MOL   C46021778   5.444   0.109   5.529 -0.3744 -0.4788 -0.4122
   20MOL   C46121779   5.599   0.118   5.548  0.5150 -0.0912  0.2251
   20MOL   C46221780   5.687   0.069   5.430 -0.7263  0.4928 -0.1689
   20MOL   O46321781   5.653   7.658   5.369 -0.2756  0.3160 -0.2684
   20MOL   N46421782   5.793   0.134   5.388  0.8515 -0.3436  0.0834
   20MOL   C46521783   5.862   0.104   5.265 -0.8685 -0.0011 -0.1799
   20MOL   C46621784   6.002   0.171   5.279 -0.5681  0.2023 -0.1393
   20MOL   C46721785   6.084   0.166   5.151 -0.2024 -0.1505  0.1972
   20MOL   C46821786   6.215   0.249   5.151  0.1625  0.2334  0.1720
   20MOL   C46921787   6.293   0.237   5.018  0.6581  0.0991  0.1279
   20MOL   C47021788   6.407   0.340   5.014  0.0066 -0.2362 -0.2399
   20MOL   N47121789   6.514   0.316   5.115 -0.2322 -0.1918 -0.0119
   20MOL   H47221790   4.914   0.397   5.840 -0.9607 -1.8469 -2.5392
   20MOL   H47321791   5.059   0.370   5.939 -1.1221 -0.2443  0.8014
   20MOL   H47421792   4.948   0.167   5.742  1.6604 -0.8995 -2.3468
   20MOL   H47521793   5.093   0.153   5.846 -0.2540  0.1085  0.8117
   20MOL   H47621794   5.206   0.240   5.665 -0.2615  0.3365 -1.0148
   20MOL   H47721795   5.146   0.394   5.737 -0.6508  0.5563 -0.9614
   20MOL   H47821796   4.965   0.402   5.599 -0.1982  0.5211 -1.4893
   20MOL   H47921797   4.973   0.240   5.529  0.1918 -0.5835  1.3857
   20MOL   H48021798   5.216   0.427   5.493 -0.0112  0.3698 -1.0280
   20MOL   H48121799   5.069   0.450   5.389  0.5434 -1.3628 -1.1401
   20MOL   H48221800   5.226   0.335   5.275 -2.1422 -0.6714 -1.9401
   20MOL   H48321801   5.076   0.244   5.296 -2.1488  1.8069  1.8491
   20MOL   H48421802   5.193   0.116   5.483 -1.0745  2.0625  1.1941
   20MOL   H48521803   5.244   0.077   5.322 -0.7655 -0.7158  0.2145
   20MOL   H48621804   5.441   0.181   5.328 -1.3902  0.6442 -0.6425
   20MOL   H48721805   5.384   0.299   5.459  0.9969  0.4361  0.1507
   20MOL   H48821806   5.408   0.008   5.507  1.1072 -1.2786  0.7141
   20MOL   H48921807   5.406   0.139   5.627  1.6722 -0.8880  0.5219
   20MOL   H49021808   5.634   0.217   5.577  1.8279 -0.1351 -1.1089
   20MOL   H49121809   5.610   0.051   5.633  0.5739  0.5388  0.7141
   20MOL   H49221810   5.821   0.216   5.440 -0.6642 -0.0012  0.3665
   20MOL   H49321811   5.810   0.157   5.185  2.3942  2.1430 -1.0298
   20MOL   H49421812   5.871   7.691   5.237  0.6493  0.0414  0.1045
   20MOL   H49521813   5.972   0.272   5.307 -0.6297  0.2136 -0.2458
   20MOL   H49621814   6.056   0.132   5.365 -1.9957  2.4783  1.8061
   20MOL   H49721815   6.021   0.197   5.069 -2.4285 -3.8704  0.4147
   20MOL   H49821816   6.115   0.063   5.134  0.5292 -0.3022  2.2290
   20MOL   H49921817   6.272   0.215   5.237  1.0012 -0.5036 -0.6716
   20MOL   H50021818   6.193   0.352   5.177 -0.8534  0.0229  0.1789
   20MOL   H50121819   6.344   0.142   5.003  0.9942  0.1026  1.2423
   20MOL   H50221820   6.224   0.258   4.936 -0.3194 -1.3147  0.5661
   20MOL   H50321821   6.457   0.323   4.919  1.6964  0.2883  0.5262
   20MOL   H50421822   6.373   0.443   5.001 -1.1626 -0.3962  1.3874
   20MOL   H50521823   6.531   0.222   5.147 -1.7382  0.2767  2.2929
   20MOL   C50621824   6.591   0.416   5.160 -0.4378  0.1963 -0.7307
   20MOL   O50721825   6.565   0.530   5.124 -0.7149  0.1976  0.0475
   20MOL   C50821826   6.708   0.382   5.251 -0.8008 -0.3241  0.2434
   20MOL   C50921827   6.844   0.439   5.195  0.0085  0.0311  0.5830
   20MOL   C51021828   6.974   0.411   5.273 -0.2429  0.4961 -0.7104
   20MOL   C51121829   6.972   0.471   5.416 -0.7291  0.8048  0.3943
   20MOL   C51221830   7.106   0.487   5.485  0.1512  0.6467  0.0530
   20MOL   C51321831   7.104   0.534   5.634  0.7682  0.6205  0.6847
   20MOL   C51421832   7.060   0.680   5.642  0.2581  0.6247 -0.6709
   20MOL   C51521833   7.022   0.734   5.778  0.7386  0.5657 -0.2463
   20MOL   C51621834   6.884   0.692   5.841  0.2927  0.4906  0.0869
   20MOL   C51721835   6.850   0.760   5.973 -0.0166 -0.1819  0.5189
   20MOL   C51821836   6.707   0.729   6.023  0.1145 -0.2619  0.4249
   20MOL   O51921837   6.645   0.635   5.972 -0.2459  0.2573  0.0104
   20MOL   N52021838   6.658   0.821   6.105  0.4950 -0.4992  0.6473
   20MOL   C52121839   6.519   0.810   6.154 -0.0558  0.2233  0.5016
   20MOL   C52221840   6.510   0.916   6.263 -0.5176  0.2060  0.2330
   20MOL   C52321841   6.375   0.930   6.327 -0.7095 -0.1563 -0.4760
   20MOL   C52421842   6.379   1.046   6.425  0.2638 -0.4404  0.0214
   20MOL   C52521843   6.285   1.013   6.547 -0.0933  0.2096 -0.1757
   20MOL   C52621844   6.267   1.130   6.644 -0.0262  0.0327  0.3424
   20MOL   N52721845   6.178   1.102   6.748 -0.1419 -0.4791 -0.6313
   20MOL   H52821846   6.720   0.274   5.263  2.9761  0.2144  1.9297
   20MOL   H52921847   6.693   0.409   5.355  0.9453 -0.5081  0.5612
   20MOL   H53021848   6.837   0.547   5.209  3.5854  0.2272  1.5579
   20MOL   H53121849   6.871   0.422   5.091  1.2161 -0.2583  0.9281
   20MOL   H53221850   7.054   0.464   5.222  0.4950  0.7373  0.6858
   20MOL   H53321851   6.996   0.305   5.274  0.4258  0.6188 -1.6536
   20MOL   H53421852   6.920   0.566   5.406 -0.9575  0.6223 -0.2079
   20MOL   H53521853   6.901   0.405   5.465 -0.0964 -0.5703 -0.4979
   20MOL   H53621854   7.165   0.396   5.478  0.3041  0.7376  0.1584
   20MOL   H53721855   7.161   0.563   5.428  2.0027 -0.3100  0.5402
   20MOL   H53821856   7.043   0.474   5.701  1.5426  0.0423  0.8690
   20MOL   H53921857   7.204   0.518   5.675  0.3718 -1.1324  1.0137
   20MOL   H54021858   7.126   0.741   5.580  0.9542  0.9514  0.3728
   20MOL   H54121859   6.963   0.694   5.594 -0.7467  0.6047  1.2964
   20MOL   H54221860   7.103   0.733   5.851  3.2029 -0.0803 -2.8986
   20MOL   H54321861   7.023   0.841   5.760 -1.4947  0.3598 -1.7238
   20MOL   H54421862   6.879   0.585   5.861 -1.2071  1.0288  2.8240
   20MOL   H54521863   6.799   0.721   5.779  1.3155  3.3602 -0.0323
   20MOL   H54621864   6.901   0.718   6.060 -0.9998 -1.8924  0.3020
   20MOL   H54721865   6.872   0.867   5.976 -2.8184  0.4840 -0.4518
   20MOL   H54821866   6.709   0.902   6.135 -0.8812  1.5701 -2.3754
   20MOL   H54921867   6.497   0.709   6.189  2.1072 -0.3425  0.3215
   20MOL   H55021868   6.463   0.827   6.062 -0.2628  1.1865  0.8018
   20MOL   H55121869   6.554   1.013   6.240 -0.2282  0.5939  2.3580
   20MOL   H55221870   6.580   0.882   6.339 -0.5090 -0.4821 -0.0766
   20MOL   H55321871   6.361   0.835   6.379  2.6253 -0.3046  0.2377
   20MOL   H55421872   6.291   0.947   6.259  0.5683  2.8137 -1.4123
   20MOL   H55521873   6.350   1.142   6.384 -1.3205 -0.9351 -0.0341
   20MOL   H55621874   6.480   1.062   6.463 -0.1181  1.5286  0.2274
   20MOL   H55721875   6.185   0.993   6.510 -1.0166  0.4493  2.1279
   20MOL   H55821876   6.325   0.938   6.616 -0.6628  1.4020  1.4855
   20MOL   H55921877   6.363   1.159   6.688  0.3030  2.3510 -1.7818
   20MOL   H56021878   6.232   1.215   6.585  1.4544  0.9794  0.7950
   20MOL   H56121879   6.225   1.071   6.832  0.4134 -0.8341 -1.0649
   20MOL   C56221880   6.045   1.116   6.747  0.3006 -0.2925 -0.0935
   20MOL   O56321881   5.981   1.161   6.658 -0.0725  0.1872  0.1149
   20MOL   C56421882   5.977   1.073   6.885 -0.0490 -0.1285  0.8203
   20MOL   C56521883   5.834   1.021   6.869 -0.5075 -0.1395 -0.3942
   20MOL   C56621884   5.824   0.891   6.789  0.0204 -0.3294 -0.5601
   20MOL   C56721885   5.898   0.778   6.852  0.0219 -0.2409 -0.5270
   20MOL   C56821886   5.869   0.656   6.764  0.5476 -0.0096  0.4851
   20MOL   C56921887   5.953   0.532   6.787 -0.1539  0.4761 -0.4602
   20MOL   C57021888   5.924   0.461   6.921  0.6474 -0.2477  0.2772
   20MOL   C57121889   5.802   0.369   6.913  0.5462  0.0301 -0.3348
   20MOL   C57221890   5.776   0.293   7.048  0.0742  0.0598  0.1925
   20MOL   C57321891   5.647   0.205   7.045  0.2340 -0.1189 -0.3608
   20MOL   C57421892   5.512   0.281   7.037 -0.1176  0.0867  0.2988
   20MOL   O57521893   5.493   0.375   7.114  0.1623  0.3819  0.3284
   20MOL   N57621894   5.427   0.235   6.948  0.1127 -0.0508  0.2389
   20MOL   C57721895   5.292   0.273   6.927  0.0066  0.1064  0.0080
   20MOL   C57821896   5.189   0.162   6.948  0.0630  0.0862 -0.2187
   20MOL   C57921897   5.218   0.035   6.870 -0.2688 -0.6203  0.0286
   20MOL   C58021898   5.099   7.626   6.877 -0.4550 -0.1124 -0.8592
   20MOL   C58121899   5.123   7.503   6.801  0.7693  0.9438 -0.3716
   20MOL   C58221900   5.066   7.517   6.666  0.4876 -0.2541  0.2779
   20MOL   N58321901   5.094   7.397   6.599 -0.8542  0.0748 -0.1282
   20MOL   H58421902   6.028   0.998   6.944  0.2216 -1.2892 -0.8457
   20MOL   H58521903   5.967   1.166   6.941 -0.6773  2.2210 -2.9927
   20MOL   H58621904   5.794   1.027   6.970 -0.4070  0.9195 -0.4124
   20MOL   H58721905   5.774   1.105   6.835  0.9981  1.1611  0.0512
   20MOL   H58821906   5.860   0.913   6.689  2.9330  1.3977  0.7853
   20MOL   H58921907   5.719   0.865   6.778 -0.5009  0.6891  1.7653
   20MOL   H59021908   6.003   0.803   6.844 -0.2874  1.0726 -0.4872
   20MOL   H59121909   5.857   0.763   6.951  2.0018  0.8592  0.4827
   20MOL   H59221910   5.765   0.623   6.769  0.5588 -0.2879 -1.0560
   20MOL   H59321911   5.903   0.673   6.662  0.0869 -1.3929  0.0893
   20MOL   H59421912   5.945   0.453   6.713 -2.8444  1.5071 -1.3009
   20MOL   H59521913   6.057   0.566   6.786 -0.5879  1.7936 -2.6447
   20MOL   H59621914   6.004   0.390   6.940  0.2792 -0.4851  0.9685
   20MOL   H59721915   5.922   0.529   7.007 -3.4006  0.6958 -0.4664
   20MOL   H59821916   5.798   0.298   6.831 -0.7829 -1.3094  0.8657
   20MOL   H59921917   5.712   0.431   6.903 -0.3458 -1.0383  1.0279
   20MOL   H60021918   5.775   0.362   7.133  0.9873  0.7592 -0.3536
   20MOL   H60121919   5.857   0.221   7.061  1.5859  1.6567 -0.1939
   20MOL   H60221920   5.658   0.147   6.953  1.3164 -0.4876 -0.0051
   20MOL   H60321921   5.652   0.143   7.134  0.8259 -0.7915 -0.8504
   20MOL   H60421922   5.462   0.159   6.891  1.6294  2.5705 -2.4418
   20MOL   H60521923   5.288   0.308   6.823 -0.5279 -1.8728 -0.6521
   20MOL   H60621924   5.270   0.364   6.984  0.2134 -0.3274  0.7810
   20MOL   H60721925   5.092   0.203   6.922 -0.2040  0.0577  0.7423
   20MOL   H60821926   5.187   0.128   7.051 -2.4536 -2.5323 -1.0817
   20MOL   H60921927   5.310   7.687   6.911  0.3947  1.8051  0.9961
   20MOL   H61021928   5.245   0.053   6.766 -0.4877  1.4849  0.3122
   20MOL   H61121929   5.112   7.586   6.978  1.2365 -1.7245 -1.6657
   20MOL   H61221930   4.999   7.667   6.864  0.0539  0.8467 -1.8141
   20MOL   H61321931   5.073   7.429   6.864 -0.4011  2.4223  0.4718
   20MOL   H61421932   5.227   7.473   6.805  0.9072  1.5724  1.8136
   20MOL   H61521933   4.960   7.541   6.663  0.8383  1.2828 -0.3118
   20MOL   H61621934   5.108   7.606   6.619 -1.2456 -0.1512 -1.1045
   20MOL   H61721935   5.015   7.338   6.576 -0.5010 -0.7097  0.6741
   20MOL   C61821936   5.205   7.363   6.532 -0.6959 -0.3872  0.0654
   20MOL   O61921937   5.318   7.418   6.545 -0.1730  0.3261  0.0211
   20MOL   C62021938   5.184   7.229   6.450 -0.6673 -0.5342 -0.0746
   20MOL   C62121939   5.323   7.158   6.421 -0.4969 -0.7997 -0.1844
   20MOL   C62221940   5.316   7.013   6.370 -0.4557 -0.1116 -0.0132
   20MOL   C62321941   5.248   6.927   6.478  0.3119  0.2924 -0.8297
   20MOL   C62421942   5.285   6.778   6.464 -0.0998 -0.2835 -0.3337
   20MOL   C62521943   5.237   6.679   6.578 -0.8495  0.6174  0.5140
   20MOL   C62621944   5.300   6.539   6.560  0.6686  0.3904 -0.3507
   20MOL   C62721945   5.270   6.450   6.681 -0.2390 -0.2940 -0.4580
   20MOL   C62821946   5.359   6.324   6.674  0.5645 -0.5449 -0.3012
   20MOL   C62921947   5.334   6.215   6.783 -0.4080 -0.6401 -0.4183
   20MOL   C63021948   5.324   6.278   6.923  0.0942 -0.3139  0.2278
   20MOL   O63121949   5.428   6.333   6.969 -0.7496 -0.4560  0.2767
   20MOL   N63221950   5.205   6.274   6.987 -0.4072 -0.2602 -0.2339
   20MOL   C63321951   5.173   6.362   7.095 -0.5093  0.6773  0.9402
   20MOL   C63421952   5.052   6.451   7.049  0.0985 -0.1712 -0.3955
   20MOL   C63521953   5.021   6.559   7.150 -0.0734 -0.0858 -0.1369
   20MOL   C63621954   5.130   6.668   7.159  0.1604  0.0497  0.3730
   20MOL   C63721955   5.095   6.784   7.256  0.0861 -0.1859  0.3182
   20MOL   C63821956   5.084   6.747   7.405 -0.4496 -0.6381  0.1973
   20MOL   N63921957   5.028   6.865   7.479 -0.3006  0.5034 -0.3959
   20MOL   H64021958   5.131   7.251   6.357 -0.4122  2.4251  0.4430
   20MOL   H64121959   5.113   7.163   6.501 -0.5244 -0.3329  0.3902
   20MOL   H64221960   5.382   7.158   6.513 -2.2101  0.7095  0.9358
   20MOL   H64321961   5.376   7.213   6.343  1.2075  2.0446  2.8587
   20MOL   H64421962   5.410   6.966   6.343 -1.1021 -0.0983 -2.4160
   20MOL   H64521963   5.250   6.995   6.285 -0.0273 -0.9887 -0.1572
   20MOL   H64621964   5.266   6.965   6.579 -0.9654 -1.3697  0.0562
   20MOL   H64721965   5.141   6.939   6.458  0.3432 -0.0938 -1.2280
   20MOL   H64821966   5.238   6.759   6.368 -2.0598 -1.1327  0.7741
   20MOL   H64921967   5.393   6.765   6.456  0.0573  1.5927 -1.5254
   20MOL   H65021968   5.128   6.670   6.581 -0.8877  1.0376  0.3681
   20MOL   H65121969   5.263   6.718   6.676  0.2285  1.6575 -0.1790
   20MOL   H65221970   5.256   6.495   6.470  0.6853  0.7409 -0.5296
   20MOL   H65321971   5.407   6.545   6.543  0.6008  0.1710 -0.8817
   20MOL   H65421972   5.283   6.510   6.771 -0.0277 -1.2188  0.1337
   20MOL   H65521973   5.166   6.420   6.686 -0.4452  0.8173  2.3618
   20MOL   H65621974   5.464   6.352   6.676  0.5188 -0.4155  0.7082
   20MOL   H65721975   5.343   6.282   6.574  1.7157 -2.0289  0.1255
   20MOL   H65821976   5.249   6.152   6.755  0.2592 -2.8903  2.3757
   20MOL   H65921977   5.418   6.147   6.796 -0.7731 -1.1917 -0.9208
   20MOL   H66021978   5.127   6.233   6.939 -1.7603  1.9320  0.0048
   20MOL   H66121979   5.143   6.305   7.183 -1.3021 -0.7100 -0.2061
   20MOL   H66221980   5.263   6.416   7.123  0.3897 -0.3019 -0.0543
   20MOL   H66321981   4.960   6.395   7.037  0.5821 -1.7150  2.5339
   20MOL   H66421982   5.070   6.495   6.951  1.9150  1.5449  0.6855
   20MOL   H66521983   4.932   6.617   7.124 -1.4397 -1.7630  0.6463
   20MOL   H66621984   4.987   6.519   7.245  0.3655  0.5041  0.2765
   20MOL   H66721985   5.152   6.703   7.058  1.9358  1.8359  1.3417
   20MOL   H66821986   5.220   6.628   7.204 -1.0454 -2.7409  0.3913
   20MOL   H66921987   5.176   6.856   7.247 -0.1951  0.0156 -0.6711
   20MOL   H67021988   5.001   6.820   7.215 -1.2040 -2.7537  0.9389
   20MOL   H67121989   5.022   6.659   7.420 -0.2685 -0.2399  3.9156
   20MOL   H67221990   5.184   6.729   7.446 -1.2577 -1.5480  1.7952
   20MOL   H67321991   5.058   6.960   7.462  1.7942  0.1333  1.1819
   20MOL   C67421992   4.927   6.847   7.562  0.5198 -0.0801  0.4164
   20MOL   O67521993   4.864   6.746   7.581  0.3204  0.0142 -0.2313
   20MOL   C67621994   4.877   6.970   7.633  0.5918 -0.6531 -0.2090
   20MOL   C67721995   4.820   6.949   0.079  0.8642 -0.0115  0.0461
   20MOL   C67821996   4.792   7.074   0.156 -0.0108  0.8069 -0.1653
   20MOL   C67921997   4.744   7.045   0.308  0.1428 -0.1460  0.0296
   20MOL   C68021998   4.734   7.183   0.384  0.6560 -0.5604  0.6190
   20MOL   C68121999   4.647   7.285   0.322 -0.2403  0.5490 -0.0210
   20MOL   C68222000   4.632   7.406   0.420  0.2731 -0.5037  0.3834
   20MOL   C68322001   4.526   7.387   0.537 -0.1689  0.3279 -0.2971
   20MOL   C68422002   4.509   7.503   0.632  0.1297  0.3198 -0.7392
   20MOL   C68522003   4.440   7.626   0.571 -0.1576  0.4459  0.6161
   20MOL   C68622004   4.426   0.047   0.676  0.0701 -0.1741 -0.7260
   20MOL   O68722005   4.335   0.036   0.758 -0.0936  0.1784  0.2807
   20MOL   N68822006   4.498   0.160   0.669  0.2864  0.2944 -0.4266
   20MOL   C68922007   4.490   0.272   0.756 -0.4741 -0.1594  0.3122
   20MOL   C69022008   4.515   0.398   0.667  0.1768 -0.1300 -0.3520
   20MOL   C69122009   4.525   0.535   0.741  0.1950  1.2656 -0.6352
   20MOL   C69222010   4.513   0.640   0.635 -0.2343  0.3414  0.0926
   20MOL   C69322011   4.498   0.785   0.692 -0.3441  0.3078  0.1257
   20MOL   C69422012   4.619   0.833   0.774 -0.0584  0.3544  0.0822
   20MOL   N69522013   4.597   0.965   0.830 -0.3192  0.1627 -0.8287
   20MOL   H69622014   4.801   7.010   7.566 -0.6691 -0.1463  1.5106
   20MOL   H69722015   4.964   7.036   7.637 -2.1852  3.1756 -0.2139
   20MOL   H69822016   4.891   6.890   0.137  1.2411 -0.2808 -0.6825
   20MOL   H69922017   4.723   6.900   0.080  0.2664  1.1687 -0.0870
   20MOL   H70022018   4.882   7.134   0.145 -0.8845  2.6952  2.2597
   20MOL   H70122019   4.716   7.144   0.120 -1.1435  2.0289  4.2582
   20MOL   H70222020   4.802   6.966   0.355  2.3435  0.1326 -2.1104
   20MOL   H70322021   4.639   7.017   0.298  0.4642 -0.7755 -1.7891
   20MOL   H70422022   4.834   7.226   0.385 -0.3471  1.8751  0.6021
   20MOL   H70522023   4.692   7.161   0.482  1.3933 -2.4845  0.5108
   20MOL   H70622024   4.699   7.322   0.233  1.4676  0.1608  0.7980
   20MOL   H70722025   4.551   7.250   0.285 -0.6423  0.3745  1.1680
   20MOL   H70822026   4.728   7.431   0.465 -0.4622  1.6458  0.8360
   20MOL   H70922027   4.602   7.495   0.364  2.4978 -0.4685 -0.8124
   20MOL   H71022028   4.434   7.351   0.492  0.6029 -2.9633  0.6660
   20MOL   H71122029   4.550   7.299   0.597 -0.2442  0.5777  0.1002
   20MOL   H71222030   4.608   7.533   0.666 -0.0800  1.1417 -0.8652
   20MOL   H71322031   4.447   7.456   0.709  1.3854 -1.1754 -0.6022
   20MOL   H71422032   4.495   7.658   0.483  0.0963  0.2936  0.7179
   20MOL   H71522033   4.340   7.591   0.546 -1.6766  4.5098  0.6033
   20MOL   H71622034   4.575   0.159   0.604  2.9490 -0.8579  2.6379
   20MOL   H71722035   4.399   0.275   0.815  0.0473 -0.8588  1.1807
   20MOL   H71822036   4.577   0.258   0.820  0.1884 -0.4734 -0.6423
   20MOL   H71922037   4.420   0.406   0.614 -0.8256  0.1418  1.4401
   20MOL   H72022038   4.598   0.377   0.600  0.6352 -2.1180  0.7940
   20MOL   H72122039   4.453   0.535   0.823 -0.1743  1.1288 -0.9591
   20MOL   H72222040   4.627   0.536   0.780 -0.5048 -1.8161  1.4876
   20MOL   H72322041   4.426   0.610   0.577  0.2095 -0.2653 -0.2579
   20MOL   H72422042   4.594   0.632   0.564 -1.5825 -1.2746 -1.3024
   20MOL   H72522043   4.411   0.801   0.756 -0.1357 -0.6301  0.6576
   20MOL   H72622044   4.490   0.852   0.607 -2.7758  1.7506  1.4425
   20MOL   H72722045   4.639   0.762   0.855  0.0010  0.2501 -0.0240
   20MOL   H72822046   4.707   0.827   0.711  1.2337 -1.9283  2.0060
   20MOL   H72922047   4.522   1.016   0.786 -0.4287  0.4137 -0.3587
   20MOL   C73022048   4.682   1.027   0.918 -0.6394  0.3424  0.4516
   20MOL   O73122049   4.771   0.970   0.975  0.0122 -0.0858  0.4266
   20MOL   C73222050   4.646   1.171   0.946 -0.4783  0.5309 -0.0745
   20MOL   C73322051   4.764   1.256   0.991  0.3679  0.5653  0.1987
   20MOL   C73422052   4.891   1.242   0.910 -0.5410  0.3469 -0.1770
   20MOL   C73522053   4.877   1.291   0.763  0.0717 -0.0050  0.3160
   20MOL   C73622054   5.006   1.275   0.697  0.4917  0.6120  0.0786
   20MOL   C73722055   4.998   1.282   0.540  0.7187  0.3344  0.0433
   20MOL   C73822056   4.923   1.163   0.484 -0.3857  0.5832 -0.6937
   20MOL   C73922057   4.906   1.172   0.336  1.0396 -0.0563  0.2361
   20MOL   C74022058   4.919   1.037   0.268 -0.1337 -0.2677 -0.2921
   20MOL   C74122059   4.915   1.040   0.115  0.3413 -0.8511 -0.1112
   20MOL   C74222060   4.903   0.903   0.056 -0.1877  0.3505 -0.0751
   20MOL   O74322061   4.979   0.813   0.079  0.3684 -0.3306  0.2704
   20MOL   N74422062   4.804   0.894   7.662 -0.3550 -0.5651 -0.4601
   20MOL   C74522063   4.762   0.772   7.596  0.3498 -0.3041  0.0833
   20MOL   C74622064   4.629   0.789   7.524 -0.2671 -0.3496 -0.7781
   20MOL   C74722065   4.608   0.687   7.412 -0.2025 -0.9124  0.4466
   20MOL   C74822066   4.701   0.701   7.290  0.4704  0.2082 -0.1410
   20MOL   C74922067   4.649   0.825   7.214 -0.7762  0.5256  0.2671
   20MOL   C75022068   4.726   0.824   7.082 -0.3809 -0.5855 -0.0903
   20MOL   N75122069   4.689   0.939   7.002 -0.0146 -0.2194  0.5320
   20MOL   H75222070   4.570   1.174   1.024 -0.9293 -1.6979 -0.4097
   20MOL   H75322071   4.594   1.219   0.863  0.4183  0.6348 -0.5800
   20MOL   H75422072   4.795   1.224   1.091 -1.5761 -0.0097  0.6271
   20MOL   H75522073   4.738   1.360   1.013 -0.9293  0.3683 -0.3775
   20MOL   H75622074   4.942   1.146   0.904  0.6903  0.9475  0.3241
   20MOL   H75722075   4.966   1.304   0.960 -1.9069 -0.6206  3.1698
   20MOL   H75822076   4.854   1.398   0.763 -0.3045 -0.0762  2.0127
   20MOL   H75922077   4.796   1.238   0.711  0.6224  1.0545 -1.6606
   20MOL   H76022078   5.063   1.185   0.721 -1.1222 -0.0056  1.6656
   20MOL   H76122079   5.074   1.354   0.728  0.4906  1.0244 -0.9322
   20MOL   H76222080   4.945   1.368   0.498  0.5625  0.4534  0.4767
   20MOL   H76322081   5.097   1.292   0.496  1.0945  1.2052  1.0680
   20MOL   H76422082   4.981   1.073   0.507 -0.2445  1.1234  1.1557
   20MOL   H76522083   4.821   1.140   0.512 -0.4014  1.3358 -0.1233
   20MOL   H76622084   4.818   1.229   0.305  0.6221  0.1299  1.7023
   20MOL   H76722085   4.987   1.233   0.294  2.0864 -0.8645  1.0768
   20MOL   H76822086   4.837   0.979   0.310  1.0214 -1.6127  0.1662
   20MOL   H76922087   5.004   0.977   0.302 -0.8839 -0.9649  0.3701
   20MOL   H77022088   4.827   1.100   0.092  2.0251  1.8464  0.1898
   20MOL   H77122089   4.997   1.099   0.073 -0.0842 -0.4664 -0.4175
   20MOL   H77222090   4.754   0.979   7.641  0.5619  0.2657  0.6438
   20MOL   H77322091   4.748   0.705   7.681  0.8073 -0.5297 -0.0191
   20MOL   H77422092   4.837   0.736   7.526  0.0437  2.8825 -2.0027
   20MOL   H77522093   4.623   0.890   7.482  1.3114 -1.2279 -3.2264
   20MOL   H77622094   4.554   0.779   7.602 -0.3784  0.2249 -0.8075
   20MOL   H77722095   4.503   0.695   7.382 -0.2139  1.0758  0.9515
   20MOL   H77822096   4.637   0.591   7.453 -0.7569 -1.5221 -0.5531
   20MOL   H77922097   4.805   0.701   7.322  0.4453  0.5151 -0.0549
   20MOL   H78022098   4.683   0.612   7.229  0.5934  1.2468 -1.7264
   20MOL   H78122099   4.684   0.917   7.261  0.8172  0.0943 -0.0261
   20MOL   H78222100   4.542   0.811   7.200 -0.8811 -0.1932  1.7238
   20MOL   H78322101   4.834   0.830   7.097 -0.4983 -0.5168  0.7801
   20MOL   H78422102   4.697   0.738   7.021  1.2581 -0.7718 -0.6340
   20MOL   H78522103   4.649   1.018   7.050  0.9270  1.1176 -0.8494
   20MOL   C78622104   4.727   0.963   6.875 -0.3738  0.3666  0.4390
   20MOL   O78722105   4.786   0.878   6.813  0.6282  0.2978  0.4330
   20MOL   C78822106   4.710   1.102   6.814  0.4629  0.3040  0.3823
   20MOL   C78922107   4.795   1.203   6.893 -0.5229  0.0988  0.3221
   20MOL   C79022108   4.951   1.188   6.857 -0.3455 -0.2783 -0.0316
   20MOL   C79122109   5.045   1.278   6.937  0.5859 -0.0745  0.0625
   20MOL   C79222110   5.184   1.217   6.930  0.0348  0.6517  0.1657
   20MOL   C79322111   5.286   1.298   7.014 -0.0718  0.0343  0.2283
   20MOL   C79422112   5.316   1.435   6.940 -0.3148 -0.3944  0.0310
   20MOL   C79522113   5.398   1.543   7.012 -0.5224 -0.7275 -0.1857
   20MOL   C79622114   5.417   1.666   6.937  0.2499  0.4282 -0.4845
   20MOL   C79722115   5.517   1.669   6.817  0.1107  0.6333 -0.8588
   20MOL   C79822116   5.527   1.815   6.751  0.1052 -0.3771 -0.5023
   20MOL   O79922117   5.439   1.899   6.763 -0.5179  0.8019  0.1922
   20MOL   N80022118   5.641   1.849   6.690 -0.2563 -0.0362  0.3628
   20MOL   C80122119   5.657   1.951   6.587 -0.4135 -0.7258 -0.0625
   20MOL   C80222120   5.784   2.038   6.619  0.5296 -0.6648 -0.5222
   20MOL   C80322121   5.814   2.143   6.508 -0.3074 -0.7372 -0.0537
   20MOL   C80422122   5.946   2.226   6.535  0.2890 -0.0069  1.0763
   20MOL   C80522123   6.003   2.302   6.418 -0.0189 -0.5750 -0.7842
   20MOL   C80622124   6.137   2.361   6.455 -0.4888  0.6307 -0.2943
   20MOL   N80722125   6.202   2.436   6.349 -0.0748 -0.8486  0.3194
   20MOL   H80822126   4.605   1.127   6.801 -0.0174 -1.0080  1.6380
   20MOL   H80922127   4.739   1.111   6.709  0.3257 -0.7004  0.2529
   20MOL   H81022128   4.763   1.304   6.866  0.0588 -0.5332 -2.8723
   20MOL   H81122129   4.789   1.183   7.000  0.7116  0.4133  0.4683
   20MOL   H81222130   4.970   1.202   6.751  1.1791 -1.0042  0.1298
   20MOL   H81322131   4.968   1.081   6.875  1.3820  0.0611  0.3715
   20MOL   H81422132   5.045   1.374   6.888  0.9236 -1.0434 -1.8635
   20MOL   H81522133   5.010   1.296   7.039  0.9590 -2.7014  0.6949
   20MOL   H81622134   5.176   1.122   6.983 -0.8989 -0.2394 -1.5536
   20MOL   H81722135   5.215   1.195   6.828 -1.3792 -1.8742  0.2421
   20MOL   H81822136   5.240   1.314   7.111 -1.8595  1.0039 -0.7573
   20MOL   H81922137   5.376   1.237   7.016 -2.2011 -3.1930  1.8910
   20MOL   H82022138   5.356   1.418   6.840 -0.1401  1.3054 -0.1944
   20MOL   H82122139   5.217   1.477   6.926 -0.3156 -0.4700 -0.1809
   20MOL   H82222140   5.335   1.576   7.095  1.1510 -1.5309  1.4378
   20MOL   H82322141   5.486   1.499   7.059 -0.4097  0.9932  1.2541
   20MOL   H82422142   5.449   1.736   7.015 -2.3919  1.2699 -0.0906
   20MOL   H82522143   5.323   1.708   6.900  0.7690  1.1003 -1.0459
   20MOL   H82622144   5.621   1.658   6.848 -0.2436 -0.9859 -0.2237
   20MOL   H82722145   5.503   1.596   6.738  0.3139 -0.2160 -0.1112
   20MOL   H82822146   5.715   1.781   6.692 -0.6035 -0.4326 -0.2234
   20MOL   H82922147   5.566   2.010   6.576  0.9826  1.3678 -0.8129
   20MOL   H83022148   5.675   1.894   6.495 -0.8515 -1.5026  0.3256
   20MOL   H83122149   5.868   1.970   6.634  1.0571  0.6240  2.9603
   20MOL   H83222150   5.772   2.089   6.715 -2.1702 -1.7295 -0.2444
   20MOL   H83322151   5.813   2.093   6.411 -2.8762  0.6634 -0.7836
   20MOL   H83422152   5.737   2.220   6.507  0.8523  0.4434  0.6698
   20MOL   H83522153   6.022   2.156   6.569  4.1604  2.3889 -2.3409
   20MOL   H83622154   5.932   2.300   6.614  1.6678  1.2676  0.1319
   20MOL   H83722155   5.930   2.380   6.396  0.3027  0.2885  1.0701
   20MOL   H83822156   6.011   2.224   6.343  1.0112 -1.2885  0.0540
   20MOL   H83922157   6.202   2.279   6.487  1.0856  2.2246  0.6582
   20MOL   H84022158   6.135   2.425   6.543 -0.3659  0.6744 -0.3235
   20MOL   H84122159   6.160   2.523   6.318  0.6183 -0.2468  1.0306
   20MOL   C84222160   6.307   2.399   6.271  0.6254  0.0396 -0.0898
   20MOL   O84322161   6.366   2.289   6.296  0.0510  0.1016  0.2924
   20MOL   C84422162   6.350   2.483   6.149  0.3216  0.2569 -0.2268
   20MOL   C84522163   6.493   2.449   6.098 -0.2011 -0.2863 -0.4192
   20MOL   C84622164   6.610   2.472   6.190  0.0376  0.4496  0.1144
   20MOL   C84722165   6.739   2.508   6.112 -0.4481  0.2695  0.0192
   20MOL   C84822166   6.816   2.384   6.059 -0.3767  0.8829 -0.6476
   20MOL   C84922167   6.902   2.315   6.165  0.4915 -0.0885  0.4624
   20MOL   C85022168   7.003   2.212   6.106 -0.8497  0.3302  0.3313
   20MOL   C85122169   7.114   2.163   6.204 -0.9772  0.3585  0.6321
   20MOL   C85222170   7.215   2.061   6.147 -0.4981 -0.8028  0.9277
   20MOL   C85322171   7.300   1.995   6.262 -0.3278 -0.9389  0.4384
   20MOL   C85422172   7.220   1.896   6.344  0.5704  0.0548 -0.2030
   20MOL   O85522173   7.113   1.848   6.298  0.2803 -0.7018 -0.3808
   20MOL   N85622174   7.261   1.855   6.466  0.0776 -0.0729 -0.0067
   20MOL   C85722175   7.385   1.884   6.527 -0.1446 -0.3894 -0.5368
   20MOL   C85822176   7.476   1.762   6.524  0.1635  0.3848 -0.9130
   20MOL   C85922177   7.528   1.720   6.391  0.2355  0.5246  0.1475
   20MOL   C86022178   7.646   1.630   6.393  0.2572 -0.4649 -0.1762
   20MOL   C86122179   7.606   1.487   6.378 -0.3083 -0.4262  0.3034
   20MOL   C86222180   0.024   1.398   6.430 -0.2468 -0.0925  0.4356
   20MOL   N86322181   0.021   1.405   6.579 -0.0794 -0.5894  0.1264
   20MOL   H86422182   6.348   2.590   6.165 -0.3834  0.0574  1.1305
   20MOL   H86522183   6.284   2.463   6.065  0.7627 -0.6071 -0.3814
   20MOL   H86622184   6.493   2.516   6.011 -0.6720 -1.5702 -1.4211
   20MOL   H86722185   6.507   2.354   6.047  0.6668 -0.5806  0.3450
   20MOL   H86822186   6.595   2.545   6.269 -0.3718  0.7821 -0.2670
   20MOL   H86922187   6.624   2.378   6.243 -2.3007 -1.2909 -2.2586
   20MOL   H87022188   6.800   2.559   6.187 -0.2797  0.1659 -0.0480
   20MOL   H87122189   6.719   2.573   6.028 -0.1793 -1.5577 -1.4868
   20MOL   H87222190   6.748   2.316   6.008 -1.2502  0.3030  1.2519
   20MOL   H87322191   6.887   2.425   5.988  0.2495  4.0870  1.7201
   20MOL   H87422192   6.964   2.381   6.225  1.6288 -1.9332  1.3478
   20MOL   H87522193   6.839   2.260   6.235  0.2041 -3.1263 -2.0371
   20MOL   H87622194   6.948   2.126   6.069 -1.4166  1.5431 -1.7156
   20MOL   H87722195   7.048   2.261   6.019 -1.9811 -0.1842 -0.5563
   20MOL   H87822196   7.069   2.125   6.296 -1.9397 -1.1936 -0.4474
   20MOL   H87922197   7.161   2.254   6.240 -1.5692  1.0710 -0.3626
   20MOL   H88022198   7.276   2.104   6.068 -1.3661  0.4082  0.9047
   20MOL   H88122199   7.163   1.990   6.084  0.7297 -0.6662 -0.2603
   20MOL   H88222200   7.391   1.945   6.227  0.8686  1.1571  0.4327
   20MOL   H88322201   7.338   2.077   6.323 -0.2305 -0.8850  0.3045
   20MOL   H88422202   7.199   1.793   6.517 -0.0954 -0.0306 -0.1628
   20MOL   H88522203   7.368   1.921   6.628  0.5027 -0.2365 -0.4800
   20MOL   H88622204   7.430   1.974   6.484 -0.8331 -0.4111 -1.3090
   20MOL   H88722205   7.424   1.679   6.572 -1.3216  1.1331 -1.2102
   20MOL   H88822206   7.557   1.787   6.592 -0.1046 -2.4172  0.5022
   20MOL   H88922207   7.557   1.810   6.336 -0.8537  0.8838  0.1503
   20MOL   H89022208   7.455   1.671   6.326  0.4227  0.0193  0.3097
   20MOL   H89122209   0.015   1.651   6.481 -1.7705  1.9331  0.7147
   20MOL   H89222210   0.015   1.659   6.306  2.1456 -0.1444  1.2035
   20MOL   H89322211   7.512   1.472   6.431 -0.4397  1.0482  0.5152
   20MOL   H89422212   7.590   1.476   6.271  4.1891  2.5179 -0.8387
   20MOL   H89522213   7.686   1.295   6.409  0.3565 -0.7073  2.5020
   20MOL   H89622214   0.127   1.409   6.395 -0.2109  0.4048  0.6915
   20MOL   H89722215   7.621   1.435   6.606  1.0679  1.4165  1.9929
   20MOL   C89822216   0.120   1.366   6.669  0.5840  0.6605  0.6571
   20MOL   O89922217   0.239   1.333   6.638 -0.2675  0.2366 -0.8064
   20MOL   C90022218   0.076   1.383   6.811  1.2901  0.9532 -0.6492
   20MOL   C90122219   0.183   1.373   6.922 -0.3796 -0.2767 -0.1252
   20MOL   C90222220   0.140   1.383   7.070  0.7312  0.0092  0.2199
   20MOL   C90322221   0.256   1.394   7.175  0.2822  0.6541  0.4748
   20MOL   C90422222   0.221   1.434   7.319  0.7288 -0.0893  0.1109
   20MOL   C90522223   0.108   1.359   7.383  0.3102 -0.1024 -0.5939
   20MOL   C90622224   0.066   1.410   7.525 -0.2689  0.3886 -0.0861
   20MOL   C90722225   7.627   1.346   7.574  0.2613  0.2641  0.1740
   20MOL   C90822226   7.642   1.204   7.635 -0.7585  1.1016  0.7383
   20MOL   C90922227   7.526   1.156   0.030  0.6157 -0.5126 -0.1713
   20MOL   C91022228   7.399   1.130   7.635  0.2187 -0.4480 -0.5234
   20MOL   O91122229   7.400   1.150   7.509  0.2233 -0.7363  0.0603
   20MOL   N91222230   7.292   1.070   7.688 -0.7412 -0.0206 -0.2837
   20MOL   C91322231   7.163   1.047   7.630 -0.1122 -0.6439 -0.2196
   20MOL   C91422232   7.134   0.895   7.632 -0.1210 -0.1082 -0.3023
   20MOL   C91522233   7.245   0.791   7.585 -0.3482 -0.2996  0.1214
   20MOL   C91622234   7.212   0.644   7.591  0.6553  0.1123 -0.2370
   20MOL   C91722235   7.168   0.604   0.043 -0.5491  0.2625 -0.2732
   20MOL   C91822236   7.174   0.454   0.063 -0.2712  0.2082  0.6183
   20MOL   N91922237   7.179   0.422   0.205 -0.0734  0.6452 -0.6906
   20MOL   H92022238   0.019   1.475   6.823 -1.3843 -0.7882  0.3311
   20MOL   H92122239   0.015   1.298   6.841  0.2043  1.5147 -1.1979
   20MOL   H92222240   0.252   1.452   6.891 -0.0938 -0.3032  0.4346
   20MOL   H92322241   0.243   1.282   6.916  4.1114  2.2842  2.5286
   20MOL   H92422242   0.081   1.295   7.096 -3.1470  2.1003 -0.9990
   20MOL   H92522243   0.076   1.471   7.079  1.5618  0.7871 -1.2561
   20MOL   H92622244   0.324   1.310   7.165 -1.1146 -0.3222 -0.9962
   20MOL   H92722245   0.315   1.472   7.127  1.9513 -1.0386 -0.2703
   20MOL   H92822246   0.201   1.541   7.312 -1.1713 -0.5042 -1.1225
   20MOL   H92922247   0.316   1.426   7.372 -0.5130 -0.4995  2.3507
   20MOL   H93022248   0.020   1.357   7.318  0.1820  0.6416 -0.4565
   20MOL   H93122249   0.142   1.256   7.392 -0.1789 -0.4499 -2.4748
   20MOL   H93222250   0.048   1.518   7.524 -1.1943  0.2374 -0.1347
   20MOL   H93322251   0.142   1.412   7.603 -2.0563  1.4617  1.6791
   20MOL   H93422252   7.554   1.344   7.493 -0.0362 -2.2706  0.4576
   20MOL   H93522253   7.581   1.409   7.650 -1.3900  0.6834 -1.1416
   20MOL   H93622254   7.667   1.134   7.555  0.1643 -0.2579  2.1885
   20MOL   H93722255   0.038   1.204   0.009  0.1335 -1.1526 -0.3680
   20MOL   H93822256   7.551   1.071   0.093  0.9683 -0.1578  0.1762
   20MOL   H93922257   7.505   1.233   0.104  1.5945  0.9446 -1.3845
   20MOL   H94022258   7.302   1.051   0.095  1.1627 -0.9398 -0.6228
   20MOL   H94122259   7.158   1.071   7.524 -1.2024 -0.2122 -0.0724
   20MOL   H94222260   7.090   1.111   7.680  0.2789  0.4977 -1.0932
   20MOL   H94322261   7.119   0.875   0.047  1.6725 -0.6615 -0.1325
   20MOL   H94422262   7.043   0.875   7.576 -0.2640  1.0667 -0.4964
   20MOL   H94522263   7.269   0.808   7.480 -0.2076  0.0569  0.2099
   20MOL   H94622264   7.341   0.814   7.630 -0.6326  0.0591  0.5479
   20MOL   H94722265   7.292   0.585   7.548  1.6818  2.0164 -1.0180
   20MOL   H94822266   7.128   0.643   7.522 -0.1518 -1.0396  0.7466
   20MOL   H94922267   7.241   0.652   0.109  0.7987 -1.2827 -0.5976
   20MOL   H95022268   7.065   0.637   0.055 -0.4708  0.3466  0.1903
   20MOL   H95122269   7.253   0.396   0.016  0.2477  1.7431 -0.4301
   20MOL   H95222270   7.078   0.417   0.027 -0.2069  0.0041  0.6536
   20MOL   H95322271   7.208   0.497   0.266 -0.2466  0.1256  0.0318
   20MOL   C95422272   7.174   0.298   0.259 -0.8290 -0.1156  0.1184
   20MOL   O95522273   7.145   0.199   0.184 -0.1201  0.0109 -0.6022
   20MOL   C95622274   7.199   0.275   0.407  0.1446 -0.2610 -0.0960
   20MOL   C95722275   7.302   0.166   0.431 -0.1042  0.3699  0.2981
   20MOL   C95822276   7.369   0.161   0.568 -0.0682 -0.3538 -0.2359
   20MOL   C95922277   7.485   0.063   0.582  0.8507 -0.1306 -0.4399
   20MOL   C96022278   7.563   0.072   0.710  0.8961 -0.0864 -0.6439
   20MOL   C96122279   7.680   7.658   0.710  0.2073 -0.0593 -0.3950
   20MOL   C96222280   0.067   7.657   0.833 -0.4810  0.2121 -0.2672
   20MOL   C96322281   0.143   0.096   0.860  0.3103 -0.0076 -0.0100
   20MOL   C96422282   0.213   0.092   0.999  0.2836 -0.7514  1.0113
   20MOL   C96522283   0.119   0.116   1.124 -0.3507  0.4243  0.6596
   20MOL   C96622284   0.030   0.239   1.118 -0.0585 -0.4713 -0.3602
   20MOL   O96722285   0.076   0.345   1.165  0.2144 -0.2079  0.4372
   20MOL   N96822286   7.595   0.224   1.084 -0.9045 -0.4773 -0.2970
   20MOL   C96922287   7.496   0.331   1.076  0.1808 -0.1011  0.0289
   20MOL   C97022288   7.477   0.380   0.932  0.2725 -0.4686  0.4054
   20MOL   C97122289   7.371   0.492   0.929 -0.1144  0.3305 -0.3847
   20MOL   C97222290   7.368   0.567   0.794 -0.0396  0.1114  0.7126
   20MOL   C97322291   7.497   0.652   0.777 -0.0712 -0.3492 -0.9929
   20MOL   C97422292   7.503   0.704   0.630 -0.2541 -1.0482 -0.3512
   20MOL   N97522293   7.524   0.587   0.543 -0.4414 -0.0531  0.3625
   20MOL   H97622294   7.235   0.372   0.443  1.3643 -0.6810 -0.1524
   20MOL   H97722295   7.108   0.245   0.458  0.0732 -1.4671 -0.9197
   20MOL   H97822296   7.379   0.177   0.354  0.2435  0.0211  0.5916
   20MOL   H97922297   7.253   0.070   0.411  2.2239 -0.6304 -0.8654
   20MOL   H98022298   7.415   0.260   0.574  2.0242 -1.2956 -0.1315
   20MOL   H98122299   7.298   0.154   0.650  0.0861 -1.7338 -0.2174
   20MOL   H98222300   7.428   7.661   0.581  1.8969 -0.7819  0.2570
   20MOL   H98322301   7.539   0.065   0.487 -1.0010 -1.8625 -1.5641
   20MOL   H98422302   7.606   0.172   0.722 -1.4776  0.6325  2.6666
   20MOL   H98522303   7.497   0.067   0.797  1.0652  0.2860 -0.4926
   20MOL   H98622304   7.643   7.556   0.693 -1.6020  0.6962 -1.1974
   20MOL   H98722305   0.067   7.668   0.635  0.1933 -2.6680 -0.8203
   20MOL   H98822306   0.001   7.629   0.916 -2.0872  0.5303 -1.4239
   20MOL   H98922307   0.134   7.572   0.821  1.1489  1.2023  1.5479
   20MOL   H99022308   0.221   0.112   0.786  0.4237  1.9569  0.5052
   20MOL   H99122309   0.088   0.191   0.865  1.3188  0.5792  0.1200
   20MOL   H99222310   0.273   0.183   1.002 -0.2773 -0.4075  2.0210
   20MOL   H99322311   0.265   7.688   0.999 -1.7634 -1.9121 -0.9490
   20MOL   H99422312   0.057   0.034   1.158 -0.7399  0.7997  0.8687
   20MOL   H99522313   0.166   0.130   1.222  1.3009  0.1088 -0.0768
   20MOL   H99622314   7.566   0.128   1.072  3.7743 -2.1247  0.4916
   20MOL   H99722315   7.519   0.414   1.143  1.7737  0.0969 -0.7382
   20MOL   H99822316   7.401   0.291   1.112 -0.5545 -0.3120 -2.0673
   20MOL   H99922317   7.454   0.305   0.856  1.2515  0.4777 -0.8291
   20MOL     H122318   7.568   0.429   0.900 -0.0841 -1.0894 -1.6008
   20MOL     H222319   7.394   0.563   1.008 -0.5595  0.0481  0.0000
   20MOL     H322320   7.274   0.446   0.949  1.8202 -2.4906  3.1728
   20MOL     H422321   7.363   0.493   0.713 -0.7914  0.3566  0.5356
   20MOL     H522322   7.270   0.614   0.798 -0.4411 -0.8896  3.0181
   20MOL     H622323   7.592   0.604   0.802  0.6972  2.4139  1.6109
   20MOL     H722324   7.503   0.737   0.845  2.0203 -0.5257 -0.9141
   20MOL     H822325   7.415   0.761   0.602  0.9612  0.8090 -0.5041
   20MOL     H922326   7.586   0.774   0.617 -0.3601 -0.5872  1.3937
   20MOL    H1022327   7.592   0.516   0.565  1.1689  1.9146  1.9649
   20MOL    C1122328   7.457   0.565   0.429 -0.0269  0.0109  0.1803
   20MOL    O1222329   7.359   0.621   0.382  0.1017  0.2710 -0.1767
   20MOL    C1322330   7.505   0.446   0.356 -0.0616  0.6858 -0.7563
   20MOL    C1422331   7.586   0.468   0.231  0.5967 -0.4070  0.0558
   20MOL    C1522332   7.565   0.350   0.135 -0.5127  0.3726  0.1355
   20MOL    C1622333   7.664   0.343   0.021  0.2169  0.0287 -0.2703
   20MOL    C1722334   7.612   0.429   7.597 -0.1286 -0.0570  0.4465
   20MOL    C1822335   0.010   0.443   7.468  0.1515  0.0646  0.0965
   20MOL    C1922336   7.640   0.523   7.352 -0.1054 -0.6430  0.0345
   20MOL    C2022337   7.643   0.671   7.385 -0.0707  0.1447 -0.4792
   20MOL    C2122338   7.573   0.759   7.279  0.3121  0.1100 -0.3903
   20MOL    C2222339   7.593   0.916   7.302  0.7115  0.3665  0.6684
   20MOL    C2322340   7.512   0.987   7.196 -0.3900  0.1169 -0.3716
   20MOL    O2422341   7.483   0.935   7.087 -0.2249 -0.6690 -0.3199
   20MOL    N2522342   7.463   1.107   7.236  0.1469 -0.0361 -0.0278
   20MOL    C2622343   7.373   1.197   7.166  0.2652  0.0379  0.9667
   20MOL    C2722344   7.449   1.315   7.101  0.1058 -0.6385  0.2157
   20MOL    C2822345   7.362   1.422   7.039 -0.0256  0.3020  0.5662
   20MOL    C2922346   7.442   1.547   6.998 -0.1804  0.1190 -0.2621
   20MOL    C3022347   7.350   1.675   6.974 -0.2799 -0.5604 -0.2418
   20MOL    C3122348   7.424   1.798   6.916  0.7020 -0.1605 -0.0794
   20MOL    N3222349   7.342   1.916   6.918 -0.3629  0.5022  0.8642
   20MOL    H3322350   7.412   0.401   0.322 -0.9076  2.3389 -0.6453
   20MOL    H3422351   7.550   0.367   0.417 -0.5006  2.0025  1.3045
   20MOL    H3522352   7.690   0.483   0.260  0.1907  1.1180  0.7722
   20MOL    H3622353   7.545   0.553   0.176 -0.7432  0.3363  2.1554
   20MOL    H3722354   7.471   0.379   0.087  1.2432  1.7496 -2.5992
   20MOL    H3822355   7.560   0.254   0.185 -0.2602  0.8968  1.1792
   20MOL    H3922356   0.070   0.381   0.049  0.3080  0.8069 -1.6221
   20MOL    H4022357   7.670   0.243   7.670 -1.7066  0.1490 -0.8913
   20MOL    H4122358   7.515   0.383   7.577  0.1411 -0.8961  1.0544
   20MOL    H4222359   7.603   0.531   7.635 -1.0827  0.6941 -1.7121
   20MOL    H4322360   0.108   0.484   7.495  0.2645  0.2371 -0.5852
   20MOL    H4422361   0.038   0.347   7.425 -0.4379  0.2883 -0.7905
   20MOL    H4522362   0.001   0.502   7.259  1.0923 -3.0671  1.2227
   20MOL    H4622363   7.542   0.498   7.312  1.1671  0.3689 -4.0021
   20MOL    H4722364   7.596   0.678   7.483 -1.0948  0.5407 -0.9948
   20MOL    H4822365   0.046   0.722   7.402  0.9192 -1.8271  0.1108
   20MOL    H4922366   7.467   0.732   7.274  0.3030  0.1306 -0.2969
   20MOL    H5022367   7.612   0.732   7.181 -1.5048 -0.5021 -0.9693
   20MOL    H5122368   7.558   0.939   7.402 -1.0787  1.6942 -0.2364
   20MOL    H5222369   7.691   0.957   7.279  0.5824  0.1269 -0.3587
   20MOL    H5322370   7.488   1.142   7.328  1.3245  0.8566 -0.6714
   20MOL    H5422371   7.300   1.232   7.239  1.7356  0.4100  2.2801
   20MOL    H5522372   7.314   1.143   7.092  2.8094 -2.8441  0.9916
   20MOL    H5622373   7.511   1.278   7.019 -0.9564 -3.1947  0.5274
   20MOL    H5722374   7.519   1.355   7.175  0.5551 -0.7026 -0.1685
   20MOL    H5822375   7.280   1.454   7.104 -2.2640  0.2193 -2.1193
   20MOL    H5922376   7.312   1.378   6.953  1.4043 -0.9101  0.3433
   20MOL    H6022377   7.509   1.533   6.913  0.5982 -0.1654  0.3889
   20MOL    H6122378   7.508   1.567   7.082  1.9032 -1.7197 -1.3977
   20MOL    H6222379   7.291   1.692   7.064 -1.8750  0.2016 -1.4003
   20MOL    H6322380   7.269   1.651   6.904 -0.9839  1.6693 -0.2183
   20MOL    H6422381   7.469   1.785   6.818 -0.1215 -1.7063 -0.2658
   20MOL    H6522382   7.515   1.812   6.976  1.7847 -2.2022 -1.1940
   20MOL    H6622383   7.261   1.918   6.857  1.4969 -2.7916 -1.8817
   20MOL    C6722384   7.364   2.023   6.993 -1.1036 -0.4660  0.0527
   20MOL    O6822385   7.444   2.018   7.091  0.0441  0.3712 -0.0157
   20MOL    C6922386   7.293   2.155   6.972 -0.3094  0.2663 -0.8633
   20MOL    C7022387   7.374   2.262   6.901 -0.0244  0.5432  0.2996
   20MOL    C7122388   7.397   2.219   6.755 -0.2121  1.0260 -0.1586
   20MOL    C7222389   7.448   2.340   6.676  0.4114 -0.0934 -0.7016
   20MOL    C7322390   7.480   2.325   6.527 -0.5504 -0.3109 -0.1706
   20MOL    C7422391   7.500   2.461   6.458 -0.0033 -0.6218 -0.4269
   20MOL    C7522392   7.380   2.560   6.465 -0.3468 -0.0365  0.0019
   20MOL    C7622393   7.436   2.706   6.468 -0.3922  0.7004 -0.6851
   20MOL    C7722394   7.542   2.747   6.368  0.6997  0.6585 -0.1143
   20MOL    C7822395   7.588   2.896   6.376 -0.3444  0.2589  0.0940
   20MOL    C7922396   7.474   2.991   6.343 -0.1737  0.5184 -0.3832
   20MOL    O8022397   7.433   2.992   6.225  0.1918  0.7382  0.1160
   20MOL    N8122398   7.418   3.065   6.440 -0.0165 -0.4504 -0.4093
   20MOL    C8222399   7.333   3.180   6.421 -0.5803 -0.5861  0.3027
   20MOL    C8322400   7.392   3.299   6.339  0.4267  0.3594  0.6566
   20MOL    C8422401   7.541   3.337   6.367 -0.5816 -0.1456 -0.4250
   20MOL    C8522402   7.586   3.481   6.322  0.0046  1.0817 -0.6656
   20MOL    C8622403   7.597   3.498   6.170  0.0704 -0.0843 -0.2526
   20MOL    C8722404   7.641   3.640   6.138 -1.0797 -0.0003  0.1031
   20MOL    N8822405   7.653   3.648   5.990  0.3547  0.4720 -0.0583
   20MOL    H8922406   7.261   2.193   7.069  3.2760 -1.6146  1.1508
   20MOL    H9022407   7.203   2.136   6.913 -0.9584 -1.5227  0.6684
   20MOL    H9122408   7.304   2.345   6.894 -0.0866  0.5452  0.8987
   20MOL    H9222409   7.468   2.295   6.945 -0.1965  0.3144  0.8464
   20MOL    H9322410   7.477   2.146   6.750  1.8355  3.1921  0.3270
   20MOL    H9422411   7.307   2.176   6.710 -2.6520  2.2081  3.3095
   20MOL    H9522412   7.373   2.416   6.696  2.6850  2.5048 -1.7687
   20MOL    H9622413   7.537   2.385   6.719  0.8010 -1.7326  0.2333
   20MOL    H9722414   7.560   2.251   6.520 -0.2907 -0.2210  1.6325
   20MOL    H9822415   7.400   2.271   6.477  0.4648 -3.5346  1.5296
   20MOL    H9922416   7.590   2.500   6.504 -0.8941  1.4926 -0.3823
   20MOL   H10022417   7.537   2.450   6.356  0.3379 -4.1278  0.0391
   20MOL   H10122418   7.337   2.554   6.565  0.8442  0.3222  0.5505
   20MOL   H10222419   7.304   2.553   6.387  0.2220  0.4053 -0.6003
   20MOL   H10322420   7.345   2.765   6.452 -1.3715  0.1716  2.5394
   20MOL   H10422421   7.473   2.730   6.568 -2.0640  3.5116 -0.6954
   20MOL   H10522422   7.502   2.723   6.270 -2.7753  0.8144  1.2040
   20MOL   H10622423   7.630   2.683   6.377  2.1586  2.5798 -0.1408
   20MOL   H10722424   7.625   2.908   6.478 -2.8613  0.9156  0.9483
   20MOL   H10822425   7.681   2.897   6.318 -0.4891 -0.1771 -0.1498
   20MOL   H10922426   7.450   3.049   6.534 -0.3867 -1.7444 -0.4965
   20MOL   H11022427   7.301   3.220   6.517  0.7278 -0.0182  0.5035
   20MOL   H11122428   7.232   3.155   6.386 -0.6040  0.2568 -0.2466
   20MOL   H11222429   7.331   3.386   6.366  0.0306 -0.0209  0.9995
   20MOL   H11322430   7.369   3.293   6.233 -2.4346  3.8991  0.9386
   20MOL   H11422431   7.613   3.276   6.312  0.5208  1.1600 -0.4523
   20MOL   H11522432   7.572   3.324   6.470  2.3161  0.6384 -1.1467
   20MOL   H11622433   7.516   3.551   6.368  1.1992  2.0139 -0.2514
   20MOL   H11722434   7.675   3.521   6.370 -0.5999 -0.1122  1.5298
   20MOL   H11822435   7.671   3.424   6.137 -2.8105 -1.5589 -3.7941
   20MOL   H11922436   7.500   3.479   6.125  0.6703 -0.3063 -1.4806
   20MOL   H12022437   7.585   3.723   6.179  0.7789  0.8782  0.9240
   20MOL   H12122438   0.056   3.650   6.162 -0.7591  0.0157 -1.3034
   20MOL   H12222439   0.012   3.567   5.956 -0.1597  0.1145  0.0131
   20MOL   H12322440   7.564   3.634   5.945  0.4148  0.4079 -0.1569
   21MOL     C122441   2.650   2.636   3.559 -0.6169  0.1899  0.7352
   21MOL     O222442   2.714   2.742   3.577 -0.4619  0.1638 -0.4943
   21MOL     C322443   2.614   2.593   3.426  0.3679  0.8695 -0.5518
   21MOL     C422444   2.732   2.584   3.330 -0.0807 -0.0837  0.5382
   21MOL     C522445   2.841   2.480   3.362  0.3140  0.1329  0.5858
   21MOL     C622446   2.965   2.471   3.270 -0.2981  0.2916  0.6850
   21MOL     C722447   3.072   2.372   3.322  0.9627 -0.6715  0.4818
   21MOL     C822448   3.030   2.223   3.331 -0.3063 -0.4146 -0.2199
   21MOL     C922449   3.143   2.117   3.347 -0.5780  0.4840 -0.0754
   21MOL    C1022450   3.097   1.978   3.380  0.2947 -0.6696 -0.4670
   21MOL    C1122451   3.049   1.970   3.532 -0.1363 -0.1849 -0.4295
   21MOL    C1222452   2.964   1.841   3.555 -0.0117  0.4562 -0.1482
   21MOL    C1322453   2.899   1.839   3.698  0.3810  1.0412  0.6181
   21MOL    O1422454   2.853   1.937   3.755  0.6166 -0.2071  0.3318
   21MOL    N1522455   2.912   1.728   3.776  0.1584 -0.4337  0.5521
   21MOL    C1622456   2.857   1.715   3.912 -0.9516  1.1400  0.5842
   21MOL    C1722457   2.938   1.792   4.017 -0.0706 -0.4639  0.3567
   21MOL    C1822458   2.872   1.786   4.159  0.0304  0.0449  0.1114
   21MOL    C1922459   2.956   1.872   4.260 -0.3502  0.2455 -0.4358
   21MOL    C2022460   2.933   2.019   4.263 -0.3145  0.0264 -0.2699
   21MOL    C2122461   3.009   2.101   4.373  0.1103 -0.5290  0.0599
   21MOL    N2222462   2.969   2.244   4.372 -0.2678 -0.2401 -0.2596
   21MOL    H2322463   2.543   2.658   3.376 -0.6168  1.3982  1.4601
   21MOL    H2422464   2.547   2.506   3.429 -0.0866  1.1605 -2.0146
   21MOL    H2522465   2.765   2.687   3.321  1.2058 -0.2764  2.7056
   21MOL    H2622466   2.700   2.560   3.229 -0.1706 -1.1915  0.8167
   21MOL    H2722467   2.789   2.384   3.365  0.0635  0.1956 -1.2549
   21MOL    H2822468   2.880   2.504   3.461 -0.7862  0.5482  0.9296
   21MOL    H2922469   2.937   2.454   3.166 -1.9281 -0.8041  1.2789
   21MOL    H3022470   3.001   2.574   3.270 -0.8217  0.4756  0.4695
   21MOL    H3122471   3.114   2.403   3.417  2.2147 -1.5426  0.2223
   21MOL    H3222472   3.156   2.379   3.253 -0.4607  2.1465 -1.0672
   21MOL    H3322473   2.959   2.215   3.413 -0.8424  1.6417 -0.4763
   21MOL    H3422474   2.971   2.192   3.245  0.7238 -1.4718 -0.5639
   21MOL    H3522475   3.208   2.109   3.260  0.9044  0.3904  1.0191
   21MOL    H3622476   3.216   2.151   3.421 -0.4908  0.7100 -0.2654
   21MOL    H3722477   3.013   1.966   3.311  0.4944 -1.1561 -0.6255
   21MOL    H3822478   3.172   1.904   3.351 -0.3019 -0.2921 -3.1005
   21MOL    H3922479   2.992   2.060   3.554 -0.6076 -0.3634 -0.9015
   21MOL    H4022480   3.139   1.969   3.593 -1.3673  2.7068  1.5293
   21MOL    H4122481   2.884   1.820   3.484  1.1880 -0.6769 -1.1825
   21MOL    H4222482   3.036   1.761   3.541 -0.9849 -0.4852  0.2076
   21MOL    H4322483   2.934   1.642   3.728 -0.2206 -0.7381  0.9244
   21MOL    H4422484   2.850   1.610   3.939 -1.4325  1.0217  0.0087
   21MOL    H4522485   2.754   1.749   3.916 -0.6938  2.0902 -0.3823
   21MOL    H4622486   2.937   1.900   4.003 -0.6310 -0.5436 -0.2432
   21MOL    H4722487   3.044   1.770   4.005 -0.2389 -1.4297  0.6605
   21MOL    H4822488   2.766   1.809   4.169  0.2259  0.1171  2.0609
   21MOL    H4922489   2.891   1.683   4.188  3.2312  0.3700 -0.5869
   21MOL    H5022490   3.064   1.859   4.262 -0.7245 -3.0645  1.5343
   21MOL    H5122491   2.935   1.836   4.360 -3.0989  0.9880 -0.6885
   21MOL    H5222492   2.946   2.075   4.170  0.0189  1.0733  0.3952
   21MOL    H5322493   2.826   2.030   4.283 -0.6261 -2.2450 -0.5126
   21MOL    H5422494   3.009   2.054   4.471  1.9889  1.1597  0.9137
   21MOL    H5522495   3.117   2.094   4.359 -0.0320 -1.3625 -0.6913
   21MOL    H5622496   3.012   2.303   4.302 -1.1772 -0.1394 -0.7441
   21MOL    H5722497   2.615   2.574   3.642 -0.4725 -1.5540 -0.4798
   21MOL    C5822498   2.881   2.296   4.449  0.1314 -0.7707 -0.1776
   21MOL    O5922499   2.835   2.250   4.555 -0.2992 -0.0891 -0.0652
   21MOL    C6022500   2.834   2.429   4.393  0.9695 -0.2365  0.0833
   21MOL    C6122501   2.792   2.532   4.502 -0.7873  0.4653  0.1348
   21MOL    C6222502   2.770   2.680   4.458  0.5292  0.3544  0.6493
   21MOL    C6322503   2.718   2.767   4.572  0.0199 -0.0373 -0.1564
   21MOL    C6422504   2.734   2.920   4.540 -0.2301  0.0233 -0.0141
   21MOL    C6522505   2.621   2.983   4.454  0.2381  0.2873  0.2889
   21MOL    C6622506   2.650   3.130   4.428 -0.3358  0.2759  0.3522
   21MOL    C6722507   2.720   3.157   4.296  0.0517 -0.5953 -0.2872
   21MOL    C6822508   2.873   3.147   4.287 -0.0060  0.1078 -0.3520
   21MOL    C6922509   2.953   3.270   4.323 -0.3033  0.8813  0.0761
   21MOL    C7022510   2.918   3.392   4.232 -0.4352 -0.4424  0.4320
   21MOL    O7122511   2.886   3.372   4.116 -0.1432 -0.2164 -0.3612
   21MOL    N7222512   2.909   3.515   4.291 -0.2074  0.3362 -0.1086
   21MOL    C7322513   2.875   3.641   4.229 -0.5771 -0.1275  0.1638
   21MOL    C7422514   2.999   3.667   4.148 -0.0452 -0.4733  0.1532
   21MOL    C7522515   3.011   3.813   4.098 -0.4641  0.0156 -0.1989
   21MOL    C7622516   3.139   3.821   4.011  0.1061  1.0489  0.2902
   21MOL    C7722517   3.148   3.732   3.882 -0.1666  0.7895 -0.5208
   21MOL    C7822518   3.258   3.783   3.790 -0.3553  1.0140 -0.1190
   21MOL    N7922519   3.275   3.682   3.678  0.3280  0.8820  0.2308
   21MOL    H8022520   2.758   2.424   4.316  2.7128 -0.5381 -1.6576
   21MOL    H8122521   2.908   2.482   4.334 -1.6188  1.3076 -1.8796
   21MOL    H8222522   2.702   2.489   4.546 -1.1478  0.6174 -0.4529
   21MOL    H8322523   2.862   2.529   4.586  0.0531  0.1746 -0.5700
   21MOL    H8422524   2.706   2.683   4.370  1.0074  2.2951  0.3443
   21MOL    H8522525   2.866   2.713   4.418  0.6930 -2.9978 -1.9527
   21MOL    H8622526   2.766   2.735   4.664  1.2676  0.8619 -0.4724
   21MOL    H8722527   2.612   2.751   4.586 -0.0961 -1.1073 -2.0218
   21MOL    H8822528   2.746   2.965   4.639  0.9722 -1.5678  0.5975
   21MOL    H8922529   2.834   2.940   4.500  1.3254 -2.2902  2.5201
   21MOL    H9022530   2.519   2.969   4.489  0.3569  1.6079  1.2117
   21MOL    H9122531   2.623   2.937   4.356 -1.0259 -1.0965  0.9016
   21MOL    H9222532   2.708   3.174   4.509  2.0092  0.3473 -1.3066
   21MOL    H9322533   2.553   3.180   4.436 -0.2999  0.0956  2.1279
   21MOL    H9422534   2.660   3.106   4.220 -0.7818  0.6917 -0.5261
   21MOL    H9522535   2.705   3.264   4.278  1.1818  0.5413  4.7788
   21MOL    H9622536   2.904   3.117   4.187  0.6126 -0.6022  0.0474
   21MOL    H9722537   2.922   3.063   4.336 -0.9444 -1.7865 -2.5182
   21MOL    H9822538   2.933   3.289   4.429  1.3789 -2.8512  1.1482
   21MOL    H9922539   3.061   3.257   4.327 -0.3797  0.4633  0.9169
   21MOL   H10022540   2.936   3.522   4.388 -1.5786 -2.7384  0.5576
   21MOL   H10122541   2.869   3.718   4.305 -0.3926 -0.2282  0.2793
   21MOL   H10222542   2.781   3.637   4.173  0.5136  1.7487 -1.9118
   21MOL   H10322543   3.088   3.649   4.209  0.5067  0.3854 -0.3887
   21MOL   H10422544   3.001   3.593   4.068 -0.2095  0.0634 -0.3551
   21MOL   H10522545   3.005   3.886   4.178 -0.4497 -1.0404  0.7811
   21MOL   H10622546   2.926   3.829   4.031 -0.0220  0.7629 -0.5803
   21MOL   H10722547   3.165   3.924   3.986  1.3102  0.5967 -0.3911
   21MOL   H10822548   3.228   3.798   4.070  0.1270  0.0933 -0.0959
   21MOL   H10922549   3.054   3.746   3.830  0.0275  2.9771 -0.3082
   21MOL   H11022550   3.152   3.630   3.923  1.1367  0.8627 -0.4466
   21MOL   H11122551   3.358   3.773   3.832 -1.5583  1.0174  2.8717
   21MOL   H11222552   3.254   3.880   3.741 -0.2995  0.1323 -1.9035
   21MOL   H11322553   3.317   3.595   3.708  3.7763  1.5804 -2.1666
   21MOL   C11422554   3.209   3.694   3.562  0.4235  0.4893 -0.1122
   21MOL   O11522555   3.168   3.798   3.521  0.7725 -0.6602  0.0770
   21MOL   C11622556   3.204   3.558   3.484  0.7647 -0.3312 -0.3499
   21MOL   C11722557   3.097   3.576   3.366 -0.1802 -0.8662  1.0718
   21MOL   C11822558   3.069   3.449   3.278 -0.6188 -1.0216 -0.6256
   21MOL   C11922559   3.017   3.330   3.355 -0.7679  0.3997 -0.6888
   21MOL   C12022560   2.958   3.221   3.261  1.5521  0.6141 -0.2751
   21MOL   C12122561   2.896   3.096   3.341 -0.0548  0.4191  0.6268
   21MOL   C12222562   2.828   2.999   3.246  0.4914  0.1154 -0.5711
   21MOL   C12322563   2.910   2.971   3.120 -0.2038 -0.1917 -0.1194
   21MOL   C12422564   2.860   2.852   3.033 -0.8617 -0.4591 -1.0932
   21MOL   C12522565   2.721   2.882   2.989  0.3597 -0.5140 -0.0367
   21MOL   C12622566   2.656   2.764   2.912 -0.4352  0.4137  0.5952
   21MOL   O12722567   2.706   2.648   2.911  0.5201  0.7465 -0.5247
   21MOL   N12822568   2.539   2.793   2.845  0.5963  0.9721 -0.2135
   21MOL   C12922569   2.444   2.706   2.771 -0.3577 -1.0119  0.6501
   21MOL   C13022570   2.304   2.714   2.839  0.1889 -0.0912 -0.0870
   21MOL   C13122571   2.184   2.658   2.761  0.7322  0.1119  0.5745
   21MOL   C13222572   2.075   2.767   2.730  0.6370  0.1796 -0.9402
   21MOL   C13322573   1.972   2.715   2.620 -0.2323  0.0034 -0.3478
   21MOL   C13422574   1.859   2.825   2.614 -0.0666  0.3345 -1.3410
   21MOL   N13522575   1.915   2.947   2.562 -0.2203  0.6670  0.3817
   21MOL   H13622576   3.299   3.537   3.434  1.4701  0.3563  0.6814
   21MOL   H13722577   3.182   3.469   3.542 -3.0475  1.0598  0.4550
   21MOL   H13822578   3.144   3.637   3.288 -0.1165  0.5661  2.2228
   21MOL   H13922579   3.009   3.623   3.408  0.2953  1.0573 -0.0279
   21MOL   H14022580   2.992   3.483   3.209 -0.6105  0.4684  0.0975
   21MOL   H14122581   3.153   3.416   3.217  0.3863  0.2061  0.0879
   21MOL   H14222582   3.090   3.278   3.417  1.3042  3.1590 -0.7006
   21MOL   H14322583   2.944   3.378   3.420 -0.0272 -1.1644  1.3430
   21MOL   H14422584   2.876   3.274   3.213 -0.3009 -0.1762  1.9064
   21MOL   H14522585   3.026   3.197   3.180 -0.8973 -3.4183 -1.2458
   21MOL   H14622586   2.832   3.121   3.425  0.0718 -2.3406  1.5588
   21MOL   H14722587   2.981   3.038   3.376  0.8422  2.4005  1.8681
   21MOL   H14822588   2.793   2.907   3.294  1.4157 -0.4443 -0.9685
   21MOL   H14922589   2.734   3.041   3.211  0.9965  1.4971 -0.2836
   21MOL   H15022590   3.014   2.960   3.151  0.0614  1.9533 -0.1729
   21MOL   H15122591   2.913   3.063   3.062 -0.3168 -0.1792 -0.1056
   21MOL   H15222592   2.856   2.766   3.099 -1.2606  1.0048  0.8255
   21MOL   H15322593   2.929   2.838   2.950 -0.2724 -0.0531 -0.6811
   21MOL   H15422594   2.699   2.976   2.937 -0.0630 -1.2193 -1.1648
   21MOL   H15522595   2.650   2.881   3.072 -0.1337 -0.2933 -0.4482
   21MOL   H15622596   2.509   2.889   2.837  0.3289  0.9868  0.8579
   21MOL   H15722597   2.487   2.606   2.779  0.1806 -0.9369 -1.0248
   21MOL   H15822598   2.442   2.736   2.666  1.8453 -0.0527  0.8520
   21MOL   H15922599   2.279   2.820   2.850 -1.8029 -0.3498 -1.8706
   21MOL   H16022600   2.311   2.676   2.941  0.8632  1.9785  0.6735
   21MOL   H16122601   2.218   2.603   2.673  1.5178  0.8161  0.4234
   21MOL   H16222602   2.135   2.586   2.825  0.3210  1.4004  1.7440
   21MOL   H16322603   2.022   2.800   2.819  2.2110  1.0593 -0.2926
   21MOL   H16422604   2.123   2.861   2.701  0.3667  1.2855  1.9767
   21MOL   H16522605   1.923   2.619   2.638  0.6061  0.0522  2.2746
   21MOL   H16622606   2.022   2.714   2.523 -1.3763  2.3687 -1.0158
   21MOL   H16722607   1.779   2.791   2.548 -0.9078 -2.5738  0.9955
   21MOL   H16822608   1.809   2.850   2.708 -0.8765  1.1304 -1.9750
   21MOL   H16922609   2.013   2.939   2.541 -0.0813  0.2857  1.1445
   21MOL   C17022610   1.851   3.064   2.544 -0.6903  0.3414 -0.1868
   21MOL   O17122611   1.738   3.080   2.592  0.2653  0.3474 -0.2859
   21MOL   C17222612   1.923   3.169   2.459  0.9966  0.2538  0.3714
   21MOL   C17322613   1.845   3.248   2.358 -0.2335 -0.4712  0.1194
   21MOL   C17422614   1.796   3.164   2.237 -0.0552 -0.4889  0.8180
   21MOL   C17522615   1.683   3.241   2.166  0.3028 -0.6456  0.8319
   21MOL   C17622616   1.649   3.175   2.031 -0.0987 -0.0637 -0.1420
   21MOL   C17722617   1.548   3.256   1.942  0.3222  0.2462 -0.6121
   21MOL   C17822618   1.410   3.284   2.000 -0.0465  0.3584  0.1131
   21MOL   C17922619   1.307   3.325   1.892  0.0976 -0.4115 -0.1192
   21MOL   C18022620   1.234   3.201   1.832  0.0068  0.1057  0.5632
   21MOL   C18122621   1.099   3.234   1.768  0.1544 -0.4246 -0.4666
   21MOL   C18222622   1.098   3.353   1.669  0.6999  0.2534 -0.4223
   21MOL   O18322623   1.053   3.464   1.699 -0.9882  0.5970  0.2135
   21MOL   N18422624   1.161   3.318   1.549 -0.6737 -0.4401 -0.2618
   21MOL   C18522625   1.215   3.432   1.468  0.6385  0.8740  0.0302
   21MOL   C18622626   1.138   3.432   1.340 -0.4403 -0.2798  0.2910
   21MOL   C18722627   1.155   3.559   1.249  0.0338 -0.6981  1.1379
   21MOL   C18822628   1.295   3.562   1.195  0.2343 -1.1837 -0.2222
   21MOL   C18922629   1.323   3.695   1.116  0.5396 -0.2527 -0.3615
   21MOL   C19022630   1.479   3.708   1.083 -0.1026 -0.1285  0.2933
   21MOL   N19122631   1.558   3.741   1.203  0.1502  0.1528 -0.4320
   21MOL   H19222632   1.946   3.246   2.533 -0.5965  0.1988  0.9458
   21MOL   H19322633   2.007   3.113   2.418  1.2752  1.5920 -0.9448
   21MOL   H19422634   1.895   3.339   2.324  0.2426  0.0101  2.0354
   21MOL   H19522635   1.754   3.280   2.409  1.0347  1.9459  0.9433
   21MOL   H19622636   1.753   3.073   2.278 -2.5489  0.8737  1.3408
   21MOL   H19722637   1.879   3.146   2.169 -1.0931 -0.8693 -0.3497
   21MOL   H19822638   1.598   3.264   2.230  0.0709 -1.6758  0.9038
   21MOL   H19922639   1.725   3.338   2.139  0.6710 -1.3416 -1.1534
   21MOL   H20022640   1.740   3.173   1.972 -1.5671 -1.9924 -2.4367
   21MOL   H20122641   1.615   3.071   2.034  0.7531 -0.3274  0.4197
   21MOL   H20222642   1.542   3.201   1.849  3.0765 -0.1607 -0.5793
   21MOL   H20322643   1.586   3.355   1.918  1.0371 -0.0302 -0.6332
   21MOL   H20422644   1.370   3.198   2.054  1.2543 -1.4063 -1.6783
   21MOL   H20522645   1.419   3.359   2.078  1.7682 -0.4333  0.7032
   21MOL   H20622646   1.230   3.388   1.937 -0.3521 -0.4366 -0.8511
   21MOL   H20722647   1.358   3.381   1.815 -0.1441 -1.5005 -1.0935
   21MOL   H20822648   1.230   3.128   1.912  2.8145 -1.5248 -0.7036
   21MOL   H20922649   1.302   3.148   1.765 -0.7765 -0.4571  0.2106
   21MOL   H21022650   1.052   3.153   1.714 -0.3400 -0.1230 -0.4894
   21MOL   H21122651   1.034   3.248   1.854  0.5343 -0.9880 -0.0842
   21MOL   H21222652   1.193   3.225   1.529 -0.8414 -0.5326 -0.1036
   21MOL   H21322653   1.317   3.393   1.460  0.0136 -1.7438  3.7405
   21MOL   H21422654   1.215   3.532   1.511 -4.2202  0.6218  0.8536
   21MOL   H21522655   1.146   3.344   1.277 -1.7218 -1.9701  2.4015
   21MOL   H21622656   1.030   3.440   1.350 -0.4436 -1.5317  1.3547
   21MOL   H21722657   1.088   3.551   1.164  0.0435  1.2426  0.9224
   21MOL   H21822658   1.126   3.651   1.299  0.9909  0.0273  0.3963
   21MOL   H21922659   1.305   3.477   1.127  0.4659 -1.5536  0.2707
   21MOL   H22022660   1.368   3.548   1.275 -0.6223  2.7648  1.3846
   21MOL   H22122661   1.285   3.772   1.183  0.7375 -1.1053  0.7358
   21MOL   H22222662   1.264   3.704   1.024  1.5631 -3.9799 -1.4488
   21MOL   H22322663   1.497   3.793   1.018 -0.6756 -0.6175 -0.5262
   21MOL   H22422664   1.514   3.618   1.032  0.4960  1.2207 -1.7267
   21MOL   H22522665   1.521   3.815   1.260 -0.1261 -0.1503 -0.2147
   21MOL   C22622666   1.670   3.685   1.248 -0.4312 -0.2336 -0.0473
   21MOL   O22722667   1.724   3.595   1.183 -0.4397 -0.0010  0.2303
   21MOL   C22822668   1.736   3.753   1.371  0.0380 -0.1367 -0.0363
   21MOL   C22922669   1.701   3.683   1.500 -0.8942 -0.0391  0.1586
   21MOL   C23022670   1.554   3.706   1.547 -0.5499  0.2056 -0.5294
   21MOL   C23122671   1.517   3.666   1.688 -0.3837 -0.4960  0.3936
   21MOL   C23222672   1.609   3.700   1.802  0.2162  0.2422  0.2057
   21MOL   C23322673   1.553   3.669   1.941 -0.1021 -0.1021 -0.2533
   21MOL   C23422674   1.661   3.702   2.050  0.0046  0.3029 -0.6700
   21MOL   C23522675   1.600   3.678   2.185 -0.6408  0.0232 -0.1646
   21MOL   C23622676   1.697   3.700   2.300  0.3181  0.2571  0.3791
   21MOL   C23722677   1.638   3.663   2.439 -0.0846 -0.7723 -0.3321
   21MOL   C23822678   1.585   3.791   2.518  0.0092 -0.1015  0.4095
   21MOL   O23922679   1.611   3.905   2.486  0.0177  0.1096 -0.1366
   21MOL   N24022680   1.503   3.760   2.617  0.6480 -0.1379 -0.1186
   21MOL   C24122681   1.469   3.841   2.734  0.1937  0.0002  0.4548
   21MOL   C24222682   1.399   3.762   2.839 -0.1103  0.3265  0.3337
   21MOL   C24322683   1.252   3.731   2.801 -0.0393 -0.8678  0.1616
   21MOL   C24422684   1.179   3.659   2.916  0.4236 -0.6064  0.7792
   21MOL   C24522685   1.222   3.511   2.935 -1.1410 -1.1913  0.1549
   21MOL   C24622686   1.131   3.433   3.025  0.7235 -0.0648 -0.1496
   21MOL   N24722687   1.154   3.289   3.036 -0.3433 -0.4525  0.2218
   21MOL   H24822688   1.691   3.850   1.390  2.1360  0.7868  0.3505
   21MOL   H24922689   1.842   3.774   1.360  0.5760 -1.8686  1.5366
   21MOL   H25022690   1.713   3.575   1.496 -0.4927  0.0077  0.0542
   21MOL   H25122691   1.778   3.714   1.572 -1.4758 -0.3458  0.9242
   21MOL   H25222692   1.529   3.812   1.540  0.1642  0.3981 -0.2167
   21MOL   H25322693   1.488   3.662   1.472 -2.4677 -0.6352  1.5879
   21MOL   H25422694   1.511   3.557   1.691  1.2334 -0.6817 -2.4218
   21MOL   H25522695   1.418   3.705   1.715 -0.6919 -1.8057  1.2411
   21MOL   H25622696   1.631   3.807   1.797  1.3216  0.1129  1.9938
   21MOL   H25722697   1.702   3.644   1.788  0.0502 -0.2041  0.9017
   21MOL   H25822698   1.466   3.732   1.953 -0.6598 -0.9308  0.1045
   21MOL   H25922699   1.517   3.567   1.950  0.4466 -0.5882 -2.9984
   21MOL   H26022700   1.693   3.806   2.039  1.3802 -0.3077 -2.7123
   21MOL   H26122701   1.755   3.648   2.045 -0.2760 -0.1311 -1.4017
   21MOL   H26222702   1.514   3.742   2.204 -1.5365 -0.7569 -1.5700
   21MOL   H26322703   1.554   3.579   2.184  0.2232 -0.4029  1.3081
   21MOL   H26422704   1.778   3.628   2.291 -0.5043 -0.7961  1.2207
   21MOL   H26522705   1.740   3.800   2.299  1.9385 -0.3980 -3.3070
   21MOL   H26622706   1.557   3.590   2.425 -1.1459  1.1504 -5.1160
   21MOL   H26722707   1.716   3.616   2.499  0.4039  0.5494  0.0801
   21MOL   H26822708   1.507   3.660   2.635  0.3304  0.1317  1.5182
   21MOL   H26922709   1.397   3.914   2.696 -0.2105 -0.8638 -0.4593
   21MOL   H27022710   1.551   3.887   2.789  2.6573 -0.3578 -2.7677
   21MOL   H27122711   1.389   3.829   2.924 -0.9939  0.6392 -0.0152
   21MOL   H27222712   1.456   3.679   2.882 -1.6906 -1.3850 -0.8599
   21MOL   H27322713   1.196   3.824   2.793  2.9654  1.0328  0.3175
   21MOL   H27422714   1.235   3.668   2.714 -0.6306  0.8344 -0.9810
   21MOL   H27522715   1.073   3.663   2.891  0.7623 -0.8333 -0.7111
   21MOL   H27622716   1.193   3.720   3.006 -3.1193 -1.3881  1.9332
   21MOL   H27722717   1.330   3.503   2.951 -0.5998  0.7559 -2.2807
   21MOL   H27822718   1.215   3.462   2.838  2.2938  1.2823 -1.4425
   21MOL   H27922719   1.027   3.456   3.003  1.7510  1.3256 -3.9556
   21MOL   H28022720   1.140   3.470   3.127  0.1005  0.8493 -0.4171
   21MOL   H28122721   1.114   3.233   2.963 -0.0345 -1.3578  0.7485
   21MOL   C28222722   1.224   3.220   3.128  0.3147 -0.6101 -1.0442
   21MOL   O28322723   1.303   3.279   3.209 -0.3236 -0.3991  0.1051
   21MOL   C28422724   1.213   3.067   3.123 -0.0186 -0.3283  0.3995
   21MOL   C28522725   1.353   3.002   3.147  0.7185 -0.0830 -0.0466
   21MOL   C28622726   1.459   3.024   3.040  0.6252 -0.5517 -0.8248
   21MOL   C28722727   1.597   2.968   3.075 -0.4125  0.2205 -0.3004
   21MOL   C28822728   1.710   2.995   2.973  0.1207 -0.0676 -0.4354
   21MOL   C28922729   1.847   2.968   3.024  0.3736 -0.0106 -0.1170
   21MOL   C29022730   1.961   3.036   2.947  0.0700  0.4065 -0.2238
   21MOL   C29122731   2.100   3.014   3.011  0.0982  0.3390  0.3068
   21MOL   C29222732   2.140   3.094   3.136  0.0985 -0.5769  0.5021
   21MOL   C29322733   2.291   3.086   3.190  0.6095  0.1389 -0.1872
   21MOL   C29422734   2.397   3.119   3.091  0.6117 -0.2078  0.3761
   21MOL   O29522735   2.420   3.037   2.996 -0.3176  0.2310 -0.4285
   21MOL   N29622736   2.477   3.224   3.110  0.3386 -0.1554 -0.1941
   21MOL   C29722737   2.576   3.279   3.027  0.2295 -0.6302  0.7369
   21MOL   C29822738   2.522   3.416   2.975 -0.1427  0.3663  0.3823
   21MOL   C29922739   2.606   3.475   2.862 -0.3317  0.5286  0.1050
   21MOL   C30022740   2.536   3.605   2.815 -0.6080 -0.5216 -0.5342
   21MOL   C30122741   2.624   3.680   2.714 -0.1411 -0.1787 -0.1636
   21MOL   C30222742   2.585   3.825   2.674 -0.0271 -0.1393  0.6808
   21MOL   N30322743   2.668   3.876   2.558  0.1868 -0.4714  0.0251
   21MOL   H30422744   1.151   3.031   3.206 -1.1095 -0.0825 -0.2982
   21MOL   H30522745   1.170   3.035   3.028 -0.8197 -1.7113  1.2108
   21MOL   H30622746   1.343   2.894   3.158 -0.0399  0.0990  1.0728
   21MOL   H30722747   1.396   3.039   3.240 -2.4669  1.1686  1.0371
   21MOL   H30822748   1.420   2.973   2.951  0.6101 -2.7144  0.3721
   21MOL   H30922749   1.467   3.130   3.017 -0.1472 -0.3348 -0.0954
   21MOL   H31022750   1.582   2.863   3.102  1.4113 -0.7129 -2.6416
   21MOL   H31122751   1.632   3.021   3.164 -0.8078  1.7816 -1.0565
   21MOL   H31222752   1.691   2.937   2.882  1.0208  0.0253 -0.6881
   21MOL   H31322753   1.704   3.100   2.943 -0.3404  0.4170  1.3124
   21MOL   H31422754   1.865   3.004   3.126 -1.2142 -0.8707  0.4874
   21MOL   H31522755   1.859   2.859   3.023 -0.4857 -0.1027 -0.2059
   21MOL   H31622756   1.953   3.144   2.955  1.8865  0.4599  1.2033
   21MOL   H31722757   1.954   3.015   2.841  0.1309  1.4696 -0.4443
   21MOL   H31822758   2.171   3.036   2.932 -1.7122  0.8270 -1.2027
   21MOL   H31922759   2.113   2.908   3.031  2.8997  0.6836  0.4654
   21MOL   H32022760   2.121   3.198   3.112  0.4027 -0.5340  0.4372
   21MOL   H32122761   2.085   3.063   3.225  1.1584  2.3658  2.2694
   21MOL   H32222762   2.287   3.139   3.285 -0.3263 -0.3963  0.0805
   21MOL   H32322763   2.305   2.982   3.219 -0.4113  0.2418  0.7000
   21MOL   H32422764   2.462   3.277   3.195  0.6867  1.3189 -1.0303
   21MOL   H32522765   2.604   3.203   2.954  1.2776 -0.2732  0.7599
   21MOL   H32622766   2.666   3.295   3.086  0.1526  0.6797  0.5113
   21MOL   H32722767   2.506   3.492   3.051 -0.0963 -0.9601  1.7450
   21MOL   H32822768   2.417   3.402   2.949 -0.0413 -2.1573  1.1976
   21MOL   H32922769   2.619   3.405   2.779  0.1164  1.4639 -0.6239
   21MOL   H33022770   2.707   3.491   2.900  0.2385  2.6697 -2.2159
   21MOL   H33122771   2.435   3.581   2.780 -0.8435 -0.3398  0.0179
   21MOL   H33222772   2.520   3.670   2.901  0.5158 -2.0749  0.8639
   21MOL   H33322773   2.595   3.625   2.624  0.3619 -1.2487  0.3175
   21MOL   H33422774   2.731   3.673   2.735 -0.1214  1.0159  0.1264
   21MOL   H33522775   2.479   3.815   2.652  0.3343 -0.8711 -0.7957
   21MOL   H33622776   2.602   3.887   2.763 -1.3404  1.3998 -0.1174
   21MOL   H33722777   2.721   3.811   2.502 -2.7912 -0.6751 -2.6778
   21MOL   C33822778   2.654   4.007   2.524  0.3077  0.3406 -0.6799
   21MOL   O33922779   2.727   4.056   2.437  0.0568 -0.7611  0.7946
   21MOL   C34022780   2.556   4.097   2.598 -0.1418 -0.2025 -0.3714
   21MOL   C34122781   2.518   4.218   2.512  0.6520  0.3176  0.0617
   21MOL   C34222782   2.393   4.300   2.575 -0.5005 -0.8872 -0.3392
   21MOL   C34322783   2.257   4.223   2.573  0.4950  0.1670  0.2987
   21MOL   C34422784   2.131   4.321   2.595  0.7104 -0.2786  0.1043
   21MOL   C34522785   2.062   4.298   2.734 -0.1530  0.0065 -1.3450
   21MOL   C34622786   2.134   4.359   2.850  0.2047  0.2224  0.3595
   21MOL   C34722787   2.128   4.517   2.852  0.4459  0.7039 -0.2787
   21MOL   C34822788   2.171   4.582   2.991  0.8186  0.4964 -0.0557
   21MOL   C34922789   2.317   4.554   3.031 -0.0381 -0.4118 -0.0924
   21MOL   C35022790   2.417   4.629   2.947 -0.4619 -0.1950 -0.2894
   21MOL   O35122791   2.419   4.748   2.935  0.2148 -0.0304 -0.2350
   21MOL   N35222792   2.515   4.559   2.889 -0.2380  0.0742 -0.1525
   21MOL   C35322793   2.628   4.607   2.809 -0.3309 -0.4129 -0.4732
   21MOL   C35422794   2.647   4.520   2.681  0.8141 -0.2994  0.1972
   21MOL   C35522795   2.762   4.574   2.592 -0.4990 -0.9424 -0.5023
   21MOL   C35622796   2.728   4.709   2.520 -0.4445  0.6204  0.1603
   21MOL   C35722797   2.819   4.741   2.394 -0.3356  0.0925  0.2866
   21MOL   C35822798   2.768   4.871   2.338 -0.0009 -0.3643  0.0004
   21MOL   N35922799   2.833   4.896   2.209 -0.0964 -0.3038  0.1249
   21MOL   H36022800   2.580   4.128   2.700 -0.6489 -2.9914  0.6096
   21MOL   H36122801   2.466   4.039   2.614 -0.0689  0.3193  2.0920
   21MOL   H36222802   2.602   4.286   2.498  0.4115  0.6061  0.0265
   21MOL   H36322803   2.483   4.184   2.415 -0.7152  0.6833  0.4157
   21MOL   H36422804   2.402   4.394   2.520  0.0127 -1.4847 -1.2974
   21MOL   H36522805   2.411   4.326   2.679  1.7015 -0.9417 -0.6726
   21MOL   H36622806   2.244   4.158   2.486 -1.9642  0.8942  0.1037
   21MOL   H36722807   2.260   4.157   2.659 -0.9956 -2.4616 -1.5946
   21MOL   H36822808   2.145   4.424   2.561 -0.9523 -0.4572 -1.2204
   21MOL   H36922809   2.054   4.285   2.526 -1.1711  2.2739  0.7642
   21MOL   H37022810   1.966   4.349   2.742  0.7223  1.3062  1.3675
   21MOL   H37122811   2.046   4.193   2.758  0.1703  0.5005  1.1091
   21MOL   H37222812   2.097   4.305   2.937 -2.0374 -0.3013 -0.8735
   21MOL   H37322813   2.238   4.327   2.843  0.5199  1.5482 -1.4139
   21MOL   H37422814   2.187   4.547   2.765 -1.2239  0.4278 -1.5307
   21MOL   H37522815   2.028   4.551   2.827  0.8777  0.9100 -1.8076
   21MOL   H37622816   2.104   4.544   3.068  1.3104 -2.0101 -0.8128
   21MOL   H37722817   2.148   4.688   2.996 -1.8497  0.0304 -1.4079
   21MOL   H37822818   2.328   4.580   3.137  0.0923  0.9138 -0.4316
   21MOL   H37922819   2.347   4.451   3.012  1.0082 -0.1627  0.1556
   21MOL   H38022820   2.505   4.459   2.900 -1.2345 -0.0104 -1.5998
   21MOL   H38122821   2.724   4.597   2.860  0.0714 -1.6561 -1.4419
   21MOL   H38222822   2.611   4.713   2.793 -0.0246 -0.4529 -1.0618
   21MOL   H38322823   2.563   4.515   2.613 -1.5384 -0.5290  3.0215
   21MOL   H38422824   2.674   4.416   2.704 -0.4972 -0.9589 -1.2184
   21MOL   H38522825   2.852   4.583   2.653 -0.2917 -1.4835 -0.7279
   21MOL   H38622826   2.785   4.502   2.514 -2.7528 -0.2819 -1.8350
   21MOL   H38722827   2.623   4.717   2.490 -0.4071 -2.1403 -0.8304
   21MOL   H38822828   2.748   4.789   2.591  2.2931  2.1721 -2.2381
   21MOL   H38922829   2.802   4.670   2.313 -1.7435  1.0261 -0.2509
   21MOL   H39022830   2.926   4.728   2.410 -0.4944 -3.6682 -1.2160
   21MOL   H39122831   2.660   4.861   2.325 -0.2784  1.4073  0.8173
   21MOL   H39222832   2.784   4.950   2.411  1.0569 -2.4244  2.0391
   21MOL   H39322833   2.924   4.938   2.199  0.1637 -0.9508 -0.2705
   21MOL   C39422834   2.769   4.891   2.095  1.0055 -0.2709 -0.3137
   21MOL   O39522835   2.654   4.859   2.084  0.2027  0.6168  0.1342
   21MOL   C39622836   2.850   4.907   1.970 -0.2423 -0.2318  0.1406
   21MOL   C39722837   2.845   4.792   1.867 -0.4202 -0.2019 -0.1452
   21MOL   C39822838   2.765   4.827   1.741  0.2843 -0.5126 -0.3942
   21MOL   C39922839   2.793   4.726   1.627 -0.9179 -0.5496 -0.0226
   21MOL   C40022840   2.752   4.584   1.650 -0.1038  0.5539 -0.5855
   21MOL   C40122841   2.614   4.560   1.697 -0.6684  0.2396 -0.1084
   21MOL   C40222842   2.577   4.407   1.698 -0.1324 -0.3933  0.0881
   21MOL   C40322843   2.427   4.381   1.680 -0.1050 -0.3317 -0.0887
   21MOL   C40422844   2.356   4.435   1.552 -0.1009  0.2942 -0.2286
   21MOL   C40522845   2.410   4.372   1.420  0.0109 -0.1286 -0.0600
   21MOL   C40622846   2.372   4.225   1.404 -0.0919 -0.2358 -0.1185
   21MOL   O40722847   2.254   4.195   1.387 -0.1826  0.0693  0.1317
   21MOL   N40822848   2.468   4.134   1.412 -0.3090 -0.0066 -0.1533
   21MOL   C40922849   2.442   3.995   1.416 -0.0870  0.0538 -0.2259
   21MOL   C41022850   2.444   3.930   1.556  0.3808  0.7735  0.4833
   21MOL   C41122851   2.448   3.771   1.562  1.5591  0.5745  0.0646
   21MOL   C41222852   2.582   3.717   1.519 -0.1031 -0.1496 -0.8470
   21MOL   C41322853   2.609   3.562   1.554 -0.0388 -0.0914  0.6048
   21MOL   C41422854   2.746   3.524   1.505  0.3441 -0.5017  0.5943
   21MOL   N41522855   2.727   3.474   1.369  0.3781 -0.1346 -0.3494
   21MOL   H41622856   2.956   4.914   1.993  0.1297 -0.9845 -1.2368
   21MOL   H41722857   2.819   5.004   1.930 -1.6860 -1.0778 -0.8450
   21MOL   H41822858   2.804   4.697   1.903 -1.3546  0.0451 -0.5357
   21MOL   H41922859   2.949   4.767   1.844 -0.5174  0.9237 -1.8827
   21MOL   H42022860   2.772   4.934   1.726  0.0925 -0.4431  0.0079
   21MOL   H42122861   2.658   4.824   1.763  0.7619  1.1990  2.2825
   21MOL   H42222862   2.901   4.721   1.611 -1.2280 -0.8153 -2.0509
   21MOL   H42322863   2.743   4.756   1.536  1.2909 -0.7240 -1.3257
   21MOL   H42422864   2.763   4.523   1.561 -0.0997 -0.7897  0.3275
   21MOL   H42522865   2.816   4.551   1.732  0.4969  1.0276 -0.8613
   21MOL   H42622866   2.594   4.597   1.798 -0.4371  0.3667 -0.1114
   21MOL   H42722867   2.547   4.610   1.626 -0.7357  0.0501 -0.1788
   21MOL   H42822868   2.632   4.351   1.622  0.4340  0.4785 -0.1560
   21MOL   H42922869   2.613   4.365   1.792  1.9386 -1.2078 -1.0146
   21MOL   H43022870   2.407   4.275   1.696 -4.2377  0.4599  0.5002
   21MOL   H43122871   2.394   4.433   1.771 -0.4053 -0.0230 -0.3743
   21MOL   H43222872   2.353   4.543   1.537 -0.6101  0.1799 -0.9973
   21MOL   H43322873   2.254   4.401   1.570  0.3530 -2.3970 -2.3282
   21MOL   H43422874   2.351   4.418   1.340  0.6157 -2.0627 -1.6786
   21MOL   H43522875   2.518   4.388   1.415  0.3073 -2.2747 -1.0079
   21MOL   H43622876   2.564   4.162   1.426 -0.0348 -1.1117  0.2007
   21MOL   H43722877   2.513   3.940   1.353 -0.8635 -0.0420 -1.0332
   21MOL   H43822878   2.342   3.965   1.384  0.0833 -0.5255 -0.2316
   21MOL   H43922879   2.355   3.960   1.610  0.7028  1.3271  0.7077
   21MOL   H44022880   2.532   3.965   1.611  0.2553 -0.6516  1.6365
   21MOL   H44122881   2.433   3.732   1.663 -1.0360  0.9473 -0.1590
   21MOL   H44222882   2.371   3.726   1.499 -0.2969  0.6939  2.1686
   21MOL   H44322883   2.605   3.746   1.416  0.2771  1.9461 -0.2041
   21MOL   H44422884   2.654   3.770   1.582  0.4054  1.4827 -2.7411
   21MOL   H44522885   2.597   3.544   1.661  1.6275 -2.8247  0.3687
   21MOL   H44622886   2.530   3.503   1.508  0.3092  0.3311 -0.5672
   21MOL   H44722887   2.824   3.600   1.505  0.9733 -1.1281 -0.7895
   21MOL   H44822888   2.796   3.446   1.562  1.3590 -0.9025 -0.8264
   21MOL   H44922889   2.630   3.475   1.341  0.7158  0.9945 -1.5597
   21MOL   C45022890   2.822   3.418   1.291 -0.0405  0.1812 -0.2984
   21MOL   O45122891   2.936   3.408   1.338 -0.7525 -0.4024  0.5208
   21MOL   C45222892   2.790   3.368   1.152  0.2225  0.4914  0.1142
   21MOL   C45322893   2.875   3.249   1.111 -0.4590  0.0196  0.4746
   21MOL   C45422894   2.818   3.134   1.026 -0.2335 -0.8643  0.5769
   21MOL   C45522895   2.926   3.041   1.009  0.6654 -1.0368 -0.5837
   21MOL   C45622896   2.865   2.909   0.954  0.1095 -0.5002  0.5946
   21MOL   C45722897   2.954   2.783   0.968 -0.6705 -0.5905 -0.0959
   21MOL   C45822898   2.881   2.647   0.951  0.4218 -0.2685  0.0017
   21MOL   C45922899   2.824   2.610   1.089 -0.3072 -0.7674 -0.0125
   21MOL   C46022900   2.926   2.536   1.184 -0.3532 -0.1374 -0.1592
   21MOL   C46122901   2.862   2.509   1.327  0.2695  0.0928  0.8126
   21MOL   C46222902   2.859   2.635   1.414  0.1187  1.0155 -0.6520
   21MOL   O46322903   2.955   2.664   1.485  0.0101 -0.0202  0.6147
   21MOL   N46422904   2.755   2.712   1.399  0.5060 -0.0166 -0.3642
   21MOL   C46522905   2.731   2.839   1.456 -0.1719 -0.1198 -0.0387
   21MOL   C46622906   2.775   2.953   1.362 -0.4569 -0.0363 -0.1872
   21MOL   C46722907   2.743   3.085   1.425  0.2124 -0.3563 -0.1194
   21MOL   C46822908   2.842   3.132   1.538  0.1602 -1.0556  0.6567
   21MOL   C46922909   2.994   3.144   1.501 -0.3193  0.3621  0.8601
   21MOL   C47022910   3.069   3.209   1.609 -0.0673  0.1921  0.6657
   21MOL   N47122911   3.075   3.352   1.586 -0.2069 -0.2846 -0.0299
   21MOL   H47222912   2.688   3.329   1.147 -0.4359  2.1327  0.4605
   21MOL   H47322913   2.789   3.443   1.074 -0.4559  2.2439  1.7836
   21MOL   H47422914   2.926   3.213   1.200 -1.0470 -1.7650  0.1090
   21MOL   H47522915   2.959   3.284   1.051 -1.0772  0.2823 -0.2443
   21MOL   H47622916   2.790   3.175   0.929 -1.7410  0.4568  1.5459
   21MOL   H47722917   2.726   3.097   1.071 -0.5336 -0.5304  0.2447
   21MOL   H47822918   2.979   3.024   1.103 -0.1551 -0.4802 -0.0143
   21MOL   H47922919   2.994   3.088   0.938 -1.8269  1.9642 -1.0884
   21MOL   H48022920   2.832   2.919   0.851  0.5172 -2.6516  0.2403
   21MOL   H48122921   2.768   2.886   0.998 -0.6169  2.6872  0.7811
   21MOL   H48222922   3.009   2.796   1.062  1.5924 -0.2954 -1.4337
   21MOL   H48322923   3.030   2.783   0.890  0.5226  0.4365  1.0278
   21MOL   H48422924   2.796   2.657   0.884 -0.0405 -0.3355  0.5788
   21MOL   H48522925   2.932   2.565   0.900  2.4820  2.4936 -2.5447
   21MOL   H48622926   2.781   2.700   1.134 -1.2778 -1.2480  0.0244
   21MOL   H48722927   2.745   2.538   1.070  1.2544 -2.3073 -0.7648
   21MOL   H48822928   3.008   2.606   1.204 -1.3175  0.7165  0.8857
   21MOL   H48922929   2.970   2.444   1.145  0.7974  0.2878  0.0914
   21MOL   H49022930   2.771   2.451   1.310  0.0916  1.3640 -3.1767
   21MOL   H49122931   2.936   2.450   1.380  1.8102  1.1883 -0.0782
   21MOL   H49222932   2.690   2.674   1.331  2.4526 -1.1564 -1.6536
   21MOL   H49322933   2.761   2.839   1.560  1.7261 -1.3302 -0.5526
   21MOL   H49422934   2.622   2.846   1.449 -0.0085  0.3160 -3.0558
   21MOL   H49522935   2.879   2.949   1.330 -0.9169 -0.5297 -1.6593
   21MOL   H49622936   2.730   2.949   1.263 -0.8166  0.9753 -0.0679
   21MOL   H49722937   2.647   3.071   1.474 -0.1923 -0.7752 -1.0213
   21MOL   H49822938   2.722   3.169   1.358  2.3312  0.3691  0.1072
   21MOL   H49922939   2.837   3.073   1.630 -0.7649  1.9562  2.6093
   21MOL   H50022940   2.821   3.228   1.584 -0.3524 -0.3214 -1.0864
   21MOL   H50122941   3.038   3.045   1.503 -1.1410 -0.0778 -1.2207
   21MOL   H50222942   3.012   3.188   1.402 -1.2607  0.3359  0.6674
   21MOL   H50322943   3.025   3.196   1.707  0.8288 -0.4041  1.0006
   21MOL   H50422944   3.173   3.177   1.613 -0.3932 -1.0228 -0.1344
   21MOL   H50522945   3.026   3.376   1.501 -1.8059  3.3195  1.7691
   21MOL   C50622946   3.134   3.445   1.664  0.0791  0.4083  0.1478
   21MOL   O50722947   3.194   3.411   1.766 -0.8588  0.1698  0.2390
   21MOL   C50822948   3.146   3.593   1.616  0.0856 -0.1685  0.6420
   21MOL   C50922949   3.095   3.681   1.731  0.4208 -0.0344 -0.2949
   21MOL   C51022950   2.950   3.693   1.739  0.3768 -0.2601  0.2227
   21MOL   C51122951   2.899   3.748   1.870 -0.0304 -0.4210 -0.3128
   21MOL   C51222952   2.748   3.740   1.896 -0.1578  0.3849  0.2153
   21MOL   C51322953   2.717   3.809   2.033 -0.1882  0.6842 -0.0238
   21MOL   C51422954   2.567   3.842   2.050  0.0127  0.0541 -0.1490
   21MOL   C51522955   2.544   3.908   2.193  0.3354  0.0589 -0.1617
   21MOL   C51622956   2.396   3.943   2.217  0.5115 -0.3996  0.3686
   21MOL   C51722957   2.311   3.825   2.252 -0.5666  0.7249  0.0232
   21MOL   C51822958   2.266   3.816   2.395 -0.3469  0.2659  0.4269
   21MOL   O51922959   2.311   3.889   2.483 -0.2521 -0.2927 -0.3687
   21MOL   N52022960   2.173   3.721   2.416 -0.3779 -0.3964 -0.3982
   21MOL   C52122961   2.093   3.719   2.534  0.6695  0.2967  0.3457
   21MOL   C52222962   2.026   3.589   2.562 -0.4296 -0.0701 -0.2797
   21MOL   C52322963   1.953   3.601   2.694  0.0218 -0.0566 -0.6552
   21MOL   C52422964   1.868   3.481   2.744  0.5731 -0.1082  0.3218
   21MOL   C52522965   1.734   3.517   2.807 -0.2298 -0.3102 -0.1736
   21MOL   C52622966   1.650   3.388   2.827  0.7308  0.4085 -0.3858
   21MOL   N52722967   1.600   3.330   2.702  1.6246  0.5838 -0.2749
   21MOL   H52822968   3.112   3.604   1.513 -0.8402 -0.3698  0.9230
   21MOL   H52922969   3.253   3.601   1.600 -0.5063  2.4843 -2.5580
   21MOL   H53022970   3.143   3.775   1.704 -0.1174  0.2908 -0.1209
   21MOL   H53122971   3.137   3.655   1.829  0.5862  1.5251  0.0588
   21MOL   H53222972   2.914   3.593   1.715  2.0792 -1.3118  1.9408
   21MOL   H53322973   2.919   3.762   1.661 -0.1217  0.5004  1.0837
   21MOL   H53422974   2.948   3.691   1.950 -0.8989 -1.2405 -0.3574
   21MOL   H53522975   2.948   3.846   1.870  0.6644 -0.7631  0.2282
   21MOL   H53622976   2.689   3.778   1.813 -2.2242  0.1236  1.4998
   21MOL   H53722977   2.717   3.636   1.896  2.8967 -0.5687  0.6135
   21MOL   H53822978   2.756   3.744   2.112 -1.8696 -0.4029 -0.0647
   21MOL   H53922979   2.768   3.905   2.032  0.0709  0.5398 -1.2886
   21MOL   H54022980   2.526   3.903   1.968 -3.6011  2.1198  3.0072
   21MOL   H54122981   2.503   3.754   2.041  0.0696 -0.0375  0.3399
   21MOL   H54222982   2.602   3.853   2.267 -0.2024 -3.7978 -2.5007
   21MOL   H54322983   2.610   3.993   2.180  2.9311 -1.8532  0.1538
   21MOL   H54422984   2.356   3.981   2.123 -0.0633  0.6174  1.0233
   21MOL   H54522985   2.382   4.017   2.295  0.1670 -2.1990  2.0575
   21MOL   H54622986   2.220   3.824   2.192 -2.0047  1.0368  2.1508
   21MOL   H54722987   2.353   3.728   2.227 -1.1897  0.6358 -0.6935
   21MOL   H54822988   2.165   3.647   2.348 -0.3611  1.2580 -2.2483
   21MOL   H54922989   2.014   3.793   2.542 -1.0499 -1.4198 -0.3216
   21MOL   H55022990   2.154   3.749   2.619 -0.0136  0.7086  0.6887
   21MOL   H55122991   2.100   3.509   2.555  0.1037  0.6051 -3.7232
   21MOL   H55222992   1.958   3.567   2.480 -0.9343 -2.5485  0.7622
   21MOL   H55322993   1.871   3.670   2.670 -0.4453 -0.3410  0.1016
   21MOL   H55422994   2.007   3.647   2.777 -0.2566  0.1017 -0.5572
   21MOL   H55522995   1.914   3.416   2.818  1.0762  0.6230  0.6633
   21MOL   H55622996   1.845   3.432   2.649  2.5391  0.9368 -0.7328
   21MOL   H55722997   1.749   3.581   2.893 -0.2652  0.5494 -0.7959
   21MOL   H55822998   1.684   3.586   2.739 -1.7054 -0.5110  0.6811
   21MOL   H55922999   1.713   3.319   2.882 -1.7681 -0.3766  1.6106
   21MOL   H56023000   1.566   3.399   2.897  0.1030  2.4158 -1.4213
   21MOL   H56123001   1.619   3.236   2.671  1.5981  0.2677  0.6469
   21MOL   C56223002   1.498   3.374   2.628  0.5348  0.7337 -0.0692
   21MOL   O56323003   1.446   3.482   2.650 -0.3385 -0.0489 -0.1179
   21MOL   C56423004   1.449   3.277   2.515  0.3111  0.0439 -0.4413
   21MOL   C56523005   1.314   3.316   2.456  0.1742 -0.5489 -0.0591
   21MOL   C56623006   1.331   3.426   2.345 -1.1199  0.8593 -0.4837
   21MOL   C56723007   1.214   3.454   2.249 -0.5113 -0.0431  0.5607
   21MOL   C56823008   1.249   3.580   2.162 -0.5408  0.5615 -0.1916
   21MOL   C56923009   1.133   3.621   2.071 -0.1114  0.2001 -0.4548
   21MOL   C57023010   1.153   3.736   1.970 -0.3060  0.0996 -0.1202
   21MOL   C57123011   1.185   3.866   2.034  0.2658  0.5515  0.5598
   21MOL   C57223012   1.234   3.973   1.922 -0.4081 -0.4002  0.1066
   21MOL   C57323013   1.327   4.083   1.985 -0.6126 -0.1793  0.0459
   21MOL   C57423014   1.356   4.200   1.892  0.2900  0.1812 -0.3034
   21MOL   O57523015   1.311   4.189   1.776 -0.3579 -0.0147 -0.2070
   21MOL   N57623016   1.418   4.310   1.939  0.6056  0.2220  0.0816
   21MOL   C57723017   1.487   4.406   1.850 -0.4630  0.3755 -0.9526
   21MOL   C57823018   1.420   4.542   1.854  0.1081  0.4600  0.4301
   21MOL   C57923019   1.432   4.622   1.981  0.3432 -0.0076 -0.5217
   21MOL   C58023020   1.338   4.745   1.983  0.3894 -0.6655 -0.1855
   21MOL   C58123021   1.330   4.811   2.121 -0.0453 -0.1943  0.0232
   21MOL   C58223022   1.249   4.943   2.116  0.8729  0.2376 -0.5857
   21MOL   N58323023   1.220   4.993   2.253  0.0041  0.0336 -0.4639
   21MOL   H58423024   1.529   3.252   2.445  2.2523  2.1104  0.9681
   21MOL   H58523025   1.430   3.182   2.566 -1.0316  0.0060 -1.0175
   21MOL   H58623026   1.271   3.226   2.413 -1.4694 -0.5747  1.5988
   21MOL   H58723027   1.243   3.344   2.534  0.7294  2.1462 -0.4838
   21MOL   H58823028   1.425   3.401   2.296  0.3446  1.5964  1.8632
   21MOL   H58923029   1.377   3.515   2.389  0.4566  0.1155 -0.5904
   21MOL   H59023030   1.187   3.367   2.189 -1.4812  0.4714  0.2399
   21MOL   H59123031   1.123   3.482   2.302 -0.9623  0.9202 -0.6818
   21MOL   H59223032   1.267   3.650   2.243 -0.9281  0.6020 -0.1382
   21MOL   H59323033   1.342   3.566   2.106 -0.8165 -0.4016 -0.4143
   21MOL   H59423034   1.092   3.543   2.008  0.0225  1.1221 -1.7043
   21MOL   H59523035   1.051   3.646   2.138 -1.3539 -0.0093 -1.8730
   21MOL   H59623036   1.228   3.701   1.898 -0.2127 -1.1606  0.5741
   21MOL   H59723037   1.066   3.749   1.905 -0.2176  0.1435 -0.2300
   21MOL   H59823038   1.274   3.858   2.096  0.6531  0.3980 -0.0175
   21MOL   H59923039   1.102   3.892   2.100  0.4938  3.7447 -0.3359
   21MOL   H60023040   1.143   4.010   1.873 -0.2285  0.1902  0.2142
   21MOL   H60123041   1.284   3.927   1.837  0.6102  2.5522 -0.9765
   21MOL   H60223042   1.271   4.118   2.072  0.9068  1.6284  0.3382
   21MOL   H60323043   1.422   4.046   2.025  0.6097  0.9493 -1.7565
   21MOL   H60423044   1.450   4.321   2.034  2.3660 -0.8444 -0.3456
   21MOL   H60523045   1.499   4.372   1.747 -2.3098  0.2237 -1.1369
   21MOL   H60623046   1.586   4.419   1.894  0.5123 -2.6622 -2.1190
   21MOL   H60723047   1.315   4.528   1.830  0.4009 -0.7974 -0.1861
   21MOL   H60823048   1.451   4.610   1.774  1.0672 -1.4947 -0.9047
   21MOL   H60923049   1.540   4.633   1.994  0.4058  0.1120 -1.1340
   21MOL   H61023050   1.402   4.558   2.063  2.2841  0.6578  0.7274
   21MOL   H61123051   1.356   4.818   1.904 -1.5838 -0.0723 -0.1074
   21MOL   H61223052   1.235   4.714   1.967  0.7160 -1.6438 -0.4387
   21MOL   H61323053   1.428   4.845   2.153 -0.9190  1.2545  1.1767
   21MOL   H61423054   1.297   4.741   2.197  0.8004 -1.1041 -0.4245
   21MOL   H61523055   1.305   5.027   2.077  0.4958  0.9064  0.3108
   21MOL   H61623056   1.160   4.930   2.055  0.1810 -2.0687  0.8283
   21MOL   H61723057   1.263   5.083   2.268  1.1446 -0.7865  1.3363
   21MOL   C61823058   1.099   4.966   2.308 -0.6173  0.5059 -0.2591
   21MOL   O61923059   1.035   4.869   2.275  0.1562  0.3938 -0.4397
   21MOL   C62023060   1.045   5.060   2.421  0.2491 -0.3432 -0.5708
   21MOL   C62123061   0.908   5.009   2.479 -0.5077  0.2092 -0.2755
   21MOL   C62223062   0.835   5.113   2.568  0.3966  0.4779 -0.1335
   21MOL   C62323063   0.897   5.121   2.704 -0.1473  0.0450 -0.7905
   21MOL   C62423064   0.858   5.008   2.798  0.8366  0.0414  0.2835
   21MOL   C62523065   0.937   5.001   2.925 -0.2631  0.2334  0.2944
   21MOL   C62623066   0.902   4.882   3.012  0.3061 -0.4001  0.7482
   21MOL   C62723067   0.981   4.880   3.147  0.3729  0.8980  0.3606
   21MOL   C62823068   0.989   4.742   3.209 -0.1378 -0.1720 -0.0489
   21MOL   C62923069   1.099   4.728   3.312 -0.9952  1.1191 -0.3698
   21MOL   C63023070   1.239   4.726   3.254  0.0975 -0.4148  0.0389
   21MOL   O63123071   1.317   4.817   3.279 -0.0888  0.0330  0.0888
   21MOL   N63223072   1.277   4.616   3.182 -0.2681 -0.2754 -0.0627
   21MOL   C63323073   1.406   4.602   3.109 -0.0164  0.0271  0.3608
   21MOL   C63423074   1.383   4.626   2.959 -0.3446  0.4184  0.5727
   21MOL   C63523075   1.246   4.630   2.898  0.3735  0.0737 -0.0209
   21MOL   C63623076   1.253   4.640   2.739  0.9314 -0.1456 -0.6629
   21MOL   C63723077   1.118   4.640   2.669 -0.0991  0.1491 -0.2274
   21MOL   C63823078   1.130   4.608   2.522 -0.1742 -0.3012 -0.3462
   21MOL   N63923079   1.019   4.654   2.442  0.3309  0.2295 -0.1033
   21MOL   H64023080   1.038   5.166   2.398  1.4928  0.0877  0.9314
   21MOL   H64123081   1.113   5.069   2.506 -0.3396 -0.6835 -0.0657
   21MOL   H64223082   0.930   4.914   2.527 -0.8353 -0.4168 -1.3409
   21MOL   H64323083   0.845   4.988   2.392 -1.5866  0.8143  0.3542
   21MOL   H64423084   0.728   5.097   2.579  0.6535  0.0019  1.9682
   21MOL   H64523085   0.850   5.211   2.523  0.2843  0.3949 -0.3501
   21MOL   H64623086   1.005   5.128   2.706 -0.0730 -1.3082  0.8550
   21MOL   H64723087   0.860   5.208   2.759  1.7767 -0.4250  1.3080
   21MOL   H64823088   0.754   5.018   2.831  1.1952  0.3111  1.3586
   21MOL   H64923089   0.869   4.908   2.754  1.1334  1.0659 -2.0454
   21MOL   H65023090   0.915   5.096   2.973  1.0686  1.0899 -0.7631
   21MOL   H65123091   1.045   4.997   2.915 -0.2341  1.5777  0.0118
   21MOL   H65223092   0.796   4.873   3.034  0.3555 -1.5809  0.5815
   21MOL   H65323093   0.950   4.802   2.955 -0.0278 -0.0532 -0.0123
   21MOL   H65423094   1.080   4.912   3.114  0.8331 -0.5091  0.3504
   21MOL   H65523095   0.935   4.954   3.212 -2.1067  0.3152 -0.6940
   21MOL   H65623096   1.008   4.677   3.123 -0.8170  0.7764 -0.9286
   21MOL   H65723097   0.897   4.709   3.256 -0.6384  2.2319  0.7252
   21MOL   H65823098   1.090   4.812   3.381  2.2435  2.1332 -1.0846
   21MOL   H65923099   1.085   4.635   3.367  1.2052 -0.0110 -1.6512
   21MOL   H66023100   1.214   4.537   3.175 -0.0485 -0.4531 -0.0628
   21MOL   H66123101   1.486   4.664   3.149 -1.4149  2.1666 -0.1055
   21MOL   H66223102   1.447   4.501   3.121  1.2639  0.3799 -0.8772
   21MOL   H66323103   1.449   4.559   2.904 -1.7546  0.0842 -0.7441
   21MOL   H66423104   1.437   4.720   2.947  0.3119  0.0769  0.8163
   21MOL   H66523105   1.191   4.540   2.923  0.8250 -0.3125 -0.4202
   21MOL   H66623106   1.201   4.719   2.943  2.0929  0.2017  1.5180
   21MOL   H66723107   1.319   4.559   2.710  2.6177  0.8963  0.2023
   21MOL   H66823108   1.301   4.736   2.717  0.4572  0.1941 -0.2443
   21MOL   H66923109   1.043   4.579   2.720  0.5997  0.3306  1.0189
   21MOL   H67023110   1.080   4.742   2.672  3.5902  1.5137  2.4717
   21MOL   H67123111   1.221   4.649   2.478  0.5595 -0.5336  0.9225
   21MOL   H67223112   1.144   4.501   2.505 -0.6297 -0.1588 -1.6130
   21MOL   H67323113   1.025   4.744   2.395 -0.6535  0.2662 -0.1868
   21MOL   C67423114   0.909   4.579   2.425 -1.1150  0.7216 -0.6405
   21MOL   O67523115   0.896   4.475   2.491 -0.2598 -0.1888  0.1980
   21MOL   C67623116   0.812   4.636   2.323 -0.0327 -0.3078 -0.0188
   21MOL   C67723117   0.813   4.559   2.188  0.5648 -0.4042 -0.2017
   21MOL   C67823118   0.950   4.581   2.110  0.9472  0.7985 -0.1852
   21MOL   C67923119   1.068   4.481   2.139 -0.3848 -0.3652  0.1743
   21MOL   C68023120   1.033   4.334   2.141  0.2660  0.0305  0.5795
   21MOL   C68123121   0.973   4.283   2.010  0.1522 -0.3541 -0.1028
   21MOL   C68223122   0.907   4.146   2.026  0.0109  0.1134 -0.8915
   21MOL   C68323123   0.798   4.119   1.916  0.3840 -0.0857  0.7496
   21MOL   C68423124   0.653   4.135   1.965 -0.5211 -0.0002 -0.3587
   21MOL   C68523125   0.552   4.112   1.853  0.3662 -0.1751 -0.1177
   21MOL   C68623126   0.574   3.980   1.781  0.0766  0.2633  0.0352
   21MOL   O68723127   0.545   3.877   1.838 -0.1799  0.1915  0.1244
   21MOL   N68823128   0.628   3.991   1.660 -0.6136 -0.7307  0.1793
   21MOL   C68923129   0.651   3.874   1.572 -0.8793 -0.3440 -0.2442
   21MOL   C69023130   0.794   3.884   1.514 -0.3609 -0.3892  0.1728
   21MOL   C69123131   0.913   3.827   1.600  0.1308 -1.3607  0.0383
   21MOL   C69223132   1.047   3.824   1.521  0.5796  0.7174  0.5456
   21MOL   C69323133   1.142   3.936   1.543 -0.1925 -0.6616 -0.6163
   21MOL   C69423134   1.270   3.925   1.464 -0.6447  0.0313 -0.2703
   21MOL   N69523135   1.356   4.040   1.511 -0.3328  0.0801  0.3413
   21MOL   H69623136   0.822   4.744   2.313  1.2149 -0.4167 -0.0666
   21MOL   H69723137   0.717   4.620   2.373 -0.4390 -1.8262 -1.2438
   21MOL   H69823138   0.740   4.613   2.128  1.2359  0.2915 -0.3921
   21MOL   H69923139   0.765   4.461   2.188 -0.1598 -0.0579  1.2082
   21MOL   H70023140   0.922   4.568   2.005  1.0934  2.1133 -0.3963
   21MOL   H70123141   0.985   4.683   2.121  0.0908  1.0160  0.5929
   21MOL   H70223142   1.113   4.516   2.232 -1.6225 -0.4480  0.8183
   21MOL   H70323143   1.145   4.505   2.066  0.2809  1.0600  1.3168
   21MOL   H70423144   0.965   4.322   2.226 -0.5771 -0.6897 -0.1769
   21MOL   H70523145   1.118   4.271   2.168  0.6585  1.0503  1.7290
   21MOL   H70623146   0.883   4.341   1.987 -0.1896 -1.2290 -1.0136
   21MOL   H70723147   1.048   4.272   1.932 -1.1676  0.2018 -1.4645
   21MOL   H70823148   0.988   4.073   2.025  0.7595  0.8573  2.3403
   21MOL   H70923149   0.864   4.143   2.126  0.7884  0.7209 -0.5377
   21MOL   H71023150   0.822   4.175   1.826 -0.1477  2.3199  2.0628
   21MOL   H71123151   0.810   4.014   1.890  0.2665 -0.1020  0.7570
   21MOL   H71223152   0.623   4.217   2.029  1.0884 -0.4058  0.9696
   21MOL   H71323153   0.634   4.061   2.043  2.6841 -0.8742 -0.3453
   21MOL   H71423154   0.459   4.103   1.910 -0.4145 -2.1796 -1.6550
   21MOL   H71523155   0.547   4.196   1.783 -1.4242  0.7301  1.0622
   21MOL   H71623156   0.663   4.083   1.637 -0.1436 -0.7036  0.9806
   21MOL   H71723157   0.629   3.778   1.618  0.2203 -0.1755  0.6553
   21MOL   H71823158   0.586   3.868   1.484  2.1469  2.1730 -2.7724
   21MOL   H71923159   0.808   3.989   1.486 -0.8330 -0.0745  1.0838
   21MOL   H72023160   0.794   3.834   1.417 -1.8907 -0.0152 -0.0410
   21MOL   H72123161   0.920   3.891   1.688  0.1806 -1.2140 -0.0730
   21MOL   H72223162   0.895   3.728   1.643 -1.0065 -1.9247 -1.6716
   21MOL   H72323163   1.023   3.812   1.415  1.8718 -1.4966  0.4655
   21MOL   H72423164   1.091   3.728   1.549 -3.1034 -0.9504  0.8552
   21MOL   H72523165   1.148   3.951   1.651  0.0243 -0.7655 -0.6122
   21MOL   H72623166   1.087   4.022   1.505 -0.4907 -0.4661  0.2423
   21MOL   H72723167   1.314   3.829   1.490 -1.6286 -1.1554 -2.8821
   21MOL   H72823168   1.250   3.933   1.358 -0.7802  2.0815 -0.1206
   21MOL   H72923169   1.328   4.094   1.591 -1.3079 -0.6448  0.4973
   21MOL   C73023170   1.467   4.065   1.440 -0.0913 -0.3783 -0.7440
   21MOL   O73123171   1.509   3.994   1.353  0.4980  0.0918  0.5326
   21MOL   C73223172   1.544   4.195   1.478  0.7380 -0.4429 -0.3810
   21MOL   C73323173   1.694   4.184   1.494 -0.4341  0.1014 -0.3867
   21MOL   C73423174   1.747   4.100   1.599  0.6330 -0.0572  0.0574
   21MOL   C73523175   1.887   4.061   1.590  1.0592  0.4175  0.1717
   21MOL   C73623176   1.923   3.968   1.710  1.1794 -0.5994  0.0220
   21MOL   C73723177   2.067   3.931   1.723 -0.4945 -0.4455 -0.3288
   21MOL   C73823178   2.104   3.887   1.863 -0.1885 -0.6166  0.0954
   21MOL   C73923179   2.051   3.751   1.922 -0.5640  0.7586  0.4568
   21MOL   C74023180   2.129   3.628   1.882  0.7946  0.4003 -0.0055
   21MOL   C74123181   2.061   3.507   1.946  0.3446  0.0232 -0.6247
   21MOL   C74223182   2.108   3.486   2.092 -0.1689  0.2565  0.2713
   21MOL   O74323183   2.045   3.530   2.189  0.0887 -0.1871 -0.2407
   21MOL   N74423184   2.212   3.409   2.105 -0.4492 -1.1501 -0.2444
   21MOL   C74523185   2.267   3.340   2.225 -0.0309 -0.1191 -0.0544
   21MOL   C74623186   2.366   3.418   2.318  0.0714 -0.0109  0.3872
   21MOL   C74723187   2.426   3.348   2.440  0.7320  0.0852  0.5145
   21MOL   C74823188   2.335   3.314   2.560 -0.0419 -0.0454 -0.8551
   21MOL   C74923189   2.394   3.218   2.659 -0.0153 -0.0061  0.2831
   21MOL   C75023190   2.345   3.069   2.655  0.0936  0.1715  0.3857
   21MOL   N75123191   2.386   3.007   2.523 -0.0146 -0.1315 -0.3378
   21MOL   H75223192   1.489   4.239   1.561  1.3216 -0.5490  0.0605
   21MOL   H75323193   1.518   4.252   1.389 -1.2821 -0.1705  0.3461
   21MOL   H75423194   1.729   4.287   1.506  0.8375 -0.4888  1.1953
   21MOL   H75523195   1.727   4.139   1.400 -0.2954  1.0861 -0.8181
   21MOL   H75623196   1.693   4.006   1.612  3.7818 -1.8809  0.3522
   21MOL   H75723197   1.741   4.152   1.695 -0.5425 -1.4404  0.7703
   21MOL   H75823198   1.954   4.146   1.582 -0.6468  1.7506 -0.1756
   21MOL   H75923199   1.910   4.008   1.497 -0.5653  1.1429 -0.6536
   21MOL   H76023200   1.863   3.878   1.699 -0.3171  0.4042 -0.0966
   21MOL   H76123201   1.885   4.010   1.803  1.2152 -0.3923 -0.0570
   21MOL   H76223202   2.077   3.851   1.650 -0.0479 -0.4851 -0.2224
   21MOL   H76323203   2.137   4.005   1.686 -1.0358  1.1942  1.8704
   21MOL   H76423204   2.212   3.878   1.862 -0.0556  0.8967 -0.9184
   21MOL   H76523205   2.079   3.965   1.935  2.2970  0.6289 -0.3634
   21MOL   H76623206   2.043   3.758   2.030  1.2428  0.4768  0.6305
   21MOL   H76723207   1.947   3.738   1.891  0.2727 -3.3543 -0.8303
   21MOL   H76823208   2.230   3.644   1.919  0.9569  0.2531 -0.3792
   21MOL   H76923209   2.141   3.603   1.777  0.4351 -0.7480  0.2208
   21MOL   H77023210   1.953   3.517   1.950  0.3800 -0.1412  1.6133
   21MOL   H77123211   2.080   3.418   1.886  0.1043 -0.5358  0.1181
   21MOL   H77223212   2.249   3.365   2.022  0.8594 -0.2489 -0.1560
   21MOL   H77323213   2.323   3.259   2.179 -0.5167 -0.4851 -0.0060
   21MOL   H77423214   2.177   3.305   2.275 -0.6907  0.0704 -1.0950
   21MOL   H77523215   2.318   3.510   2.352  0.4366 -0.0070  0.9003
   21MOL   H77623216   2.454   3.448   2.261 -1.9549  1.0966 -2.2482
   21MOL   H77723217   2.516   3.402   2.469  1.6691 -0.7268 -0.8471
   21MOL   H77823218   2.469   3.255   2.404  0.8809 -0.3187  1.7159
   21MOL   H77923219   2.301   3.411   2.597 -0.6738 -0.4372 -0.3954
   21MOL   H78023220   2.248   3.266   2.513 -0.7505  1.2079 -0.8421
   21MOL   H78123221   2.362   3.251   2.758  1.1522  0.1858  0.6046
   21MOL   H78223222   2.503   3.226   2.657 -0.0223  0.1456  0.4713
   21MOL   H78323223   2.395   3.028   2.744 -0.3135 -0.5933  0.2664
   21MOL   H78423224   2.238   3.073   2.671 -0.1542 -1.4715 -0.7953
   21MOL   H78523225   2.483   3.008   2.496  0.6850 -0.3285  1.9998
   21MOL   C78623226   2.302   2.943   2.442  0.2976  0.6355  0.8727
   21MOL   O78723227   2.178   2.939   2.451 -0.3410  1.0657  0.0446
   21MOL   C78823228   2.368   2.864   2.326  0.4229  0.2721  0.1852
   21MOL   C78923229   2.347   2.946   2.191  0.0575  0.9361  0.0442
   21MOL   C79023230   2.323   2.843   2.075  0.1405  0.2258  0.2838
   21MOL   C79123231   2.176   2.793   2.086  0.1897  0.7483 -0.3113
   21MOL   C79223232   2.155   2.679   1.982 -0.3567 -0.1856 -0.5352
   21MOL   C79323233   2.012   2.622   1.995 -0.1933 -0.0950  0.5213
   21MOL   C79423234   1.988   2.503   1.905  0.3568 -0.2245 -0.4662
   21MOL   C79523235   1.867   2.418   1.928 -0.1588 -0.7165 -1.0681
   21MOL   C79623236   1.854   2.296   1.838 -0.5410  0.0571 -0.5633
   21MOL   C79723237   1.720   2.225   1.855  0.6838 -0.4283 -0.6313
   21MOL   C79823238   1.609   2.291   1.772  0.3381  0.0173  0.2357
   21MOL   O79923239   1.623   2.403   1.715  0.0764  0.0919 -0.4250
   21MOL   N80023240   1.495   2.215   1.755 -0.9405 -0.0470  0.2586
   21MOL   C80123241   1.388   2.239   1.663  0.4365 -0.5252  0.3887
   21MOL   C80223242   1.273   2.144   1.688  0.3650 -0.7797  0.7684
   21MOL   C80323243   1.145   2.174   1.615 -1.0214 -0.0138 -0.0438
   21MOL   C80423244   1.050   2.275   1.691 -0.0300 -0.4724  0.0607
   21MOL   C80523245   0.936   2.339   1.598  0.5911 -1.0520 -0.0543
   21MOL   C80623246   0.839   2.436   1.665 -0.1148 -0.5361 -0.2988
   21MOL   N80723247   0.738   2.496   1.579  0.1244 -0.3186 -0.0707
   21MOL   H80823248   2.308   2.773   2.325 -0.3751  0.7969 -0.5510
   21MOL   H80923249   2.463   2.822   2.360 -0.0080 -0.0266  1.0321
   21MOL   H81023250   2.257   3.009   2.185  0.1154  1.0230  0.0767
   21MOL   H81123251   2.431   3.009   2.164  0.7185  0.1330  0.2195
   21MOL   H81223252   2.398   2.764   2.074 -1.8690 -1.7619  1.1039
   21MOL   H81323253   2.327   2.916   1.994  1.3200  1.0028  1.0367
   21MOL   H81423254   2.149   2.746   2.181  1.6966 -1.4633 -0.9205
   21MOL   H81523255   2.101   2.870   2.070 -0.4521  0.7300  2.3270
   21MOL   H81623256   2.160   2.715   1.880  1.3989  0.4537 -0.2315
   21MOL   H81723257   2.232   2.603   1.992  1.7969  2.1393  1.1250
   21MOL   H81823258   1.992   2.591   2.097 -1.1407  0.7485  0.6024
   21MOL   H81923259   1.937   2.698   1.972 -0.3578 -0.3069  0.3517
   21MOL   H82023260   1.987   2.555   1.809  2.9665  1.5886  0.4161
   21MOL   H82123261   2.074   2.437   1.915  1.4954  1.1887 -0.7739
   21MOL   H82223262   1.879   2.382   2.030 -0.7777  0.3834 -0.6055
   21MOL   H82323263   1.782   2.484   1.913  0.7462  0.6556 -0.3456
   21MOL   H82423264   1.931   2.224   1.868 -1.9418 -0.5297  1.7838
   21MOL   H82523265   1.869   2.328   1.735  1.3772  1.2159  0.0522
   21MOL   H82623266   1.747   2.122   1.832 -0.2998 -0.9391  0.4891
   21MOL   H82723267   1.692   2.224   1.960 -0.1488  0.7471 -0.8347
   21MOL   H82823268   1.509   2.117   1.774 -0.1416 -0.0811 -0.4844
   21MOL   H82923269   1.421   2.214   1.562 -2.5166 -0.8678 -0.5265
   21MOL   H83023270   1.361   2.345   1.666  3.8857  0.4138  0.4917
   21MOL   H83123271   1.252   2.134   1.794 -0.3200 -0.2128  0.6845
   21MOL   H83223272   1.293   2.043   1.650 -0.8300  0.2598 -2.8425
   21MOL   H83323273   1.167   2.208   1.514  0.7820  1.5927  0.8510
   21MOL   H83423274   1.081   2.089   1.594 -2.7685  0.8427  1.7209
   21MOL   H83523275   1.118   2.354   1.722  0.2460 -0.4249 -0.6483
   21MOL   H83623276   1.006   2.227   1.779 -0.1713 -0.0056  0.2443
   21MOL   H83723277   0.876   2.270   1.539 -0.8460  0.1125  0.0379
   21MOL   H83823278   0.987   2.406   1.528 -0.6361 -0.8537 -0.7608
   21MOL   H83923279   0.892   2.517   1.714 -0.3378  0.3320 -1.4780
   21MOL   H84023280   0.790   2.389   1.750 -0.1611  1.4627  0.8012
   21MOL   H84123281   0.724   2.454   1.489  2.9896 -1.7168  0.1011
   21MOL   C84223282   0.691   2.623   1.584  0.4434  0.5880  0.2136
   21MOL   O84323283   0.732   2.702   1.674 -0.3494  0.0071  0.3454
   21MOL   C84423284   0.595   2.677   1.477  0.4341 -0.1603  0.1842
   21MOL   C84523285   0.552   2.817   1.493  0.9643 -0.0933 -0.0909
   21MOL   C84623286   0.430   2.851   1.406 -0.2200 -0.6194 -0.3139
   21MOL   C84723287   0.314   2.926   1.479 -0.3692  0.1282  0.2003
   21MOL   C84823288   0.176   2.865   1.434  0.3562 -0.0754 -0.0071
   21MOL   C84923289   0.045   2.911   1.501 -0.6846  0.4932  0.2010
   21MOL   C85023290   0.029   2.885   1.649  0.8649  0.1136  0.8833
   21MOL   C85123291   7.579   2.867   1.701  0.3147  0.5137  0.0471
   21MOL   C85223292   7.575   2.809   1.844  0.2698 -1.0847 -0.2883
   21MOL   C85323293   7.430   2.810   1.888 -0.0354  0.4784  0.0009
   21MOL   C85423294   7.362   2.942   1.898 -0.7059 -0.3127 -0.3859
   21MOL   O85523295   7.427   3.045   1.915 -0.0901 -0.0472  0.3008
   21MOL   N85623296   7.231   2.939   1.897  0.4728  0.6524 -0.5094
   21MOL   C85723297   7.149   3.054   1.892 -0.3126  0.2054  0.6311
   21MOL   C85823298   7.108   3.088   1.747 -0.6911  0.3788 -0.4981
   21MOL   C85923299   7.039   3.224   1.736  0.3168 -0.8174  0.6368
   21MOL   C86023300   7.008   3.273   1.589  0.2271 -0.4193  0.3918
   21MOL   C86123301   6.903   3.180   1.533 -0.4023 -0.6672  0.5762
   21MOL   C86223302   6.846   3.228   1.401  0.2420 -0.1572  0.3663
   21MOL   N86323303   6.753   3.125   1.356 -0.2586  0.3157  0.0969
   21MOL   H86423304   0.515   2.604   1.460  1.5119 -1.2920 -0.0808
   21MOL   H86523305   0.642   2.676   1.379 -2.3671  1.7573 -1.2729
   21MOL   H86623306   0.629   2.892   1.479 -0.0530  0.8183 -0.8876
   21MOL   H86723307   0.534   2.828   1.600  0.2118 -1.8391 -0.0217
   21MOL   H86823308   0.472   2.915   1.329  1.4319  2.4754  3.0226
   21MOL   H86923309   0.386   2.763   1.358 -0.5030 -0.0750 -1.0560
   21MOL   H87023310   0.318   3.032   1.454  0.8058  0.0823  0.1721
   21MOL   H87123311   0.334   2.917   1.586  1.9988 -1.4681 -0.3298
   21MOL   H87223312   0.177   2.874   1.325 -1.1817 -1.1418 -0.1171
   21MOL   H87323313   0.190   2.758   1.446  2.8704  0.0988 -1.1629
   21MOL   H87423314   0.014   3.013   1.477 -0.0849  0.4610 -0.7247
   21MOL   H87523315   7.648   2.861   1.461 -1.3360  1.8683 -0.1328
   21MOL   H87623316   0.078   2.792   1.679 -0.6545 -0.0832  2.8840
   21MOL   H87723317   0.074   2.966   1.706  1.6056 -0.8566  1.6924
   21MOL   H87823318   7.518   2.803   1.637 -0.0782  2.7884 -1.9370
   21MOL   H87923319   7.528   2.963   1.705 -3.3130 -1.2798 -1.0435
   21MOL   H88023320   7.640   2.878   1.898  0.3824  0.7882 -2.7503
   21MOL   H88123321   7.619   2.710   1.857  0.9400 -1.1214 -2.5886
   21MOL   H88223322   7.374   2.741   1.824  0.6110 -1.2525  1.2674
   21MOL   H88323323   7.412   2.764   1.985  0.0569  1.3726  0.4488
   21MOL   H88423324   7.191   2.849   1.916  3.1360  0.2241  3.6053
   21MOL   H88523325   7.200   3.143   1.930  0.5661 -0.7695  1.7549
   21MOL   H88623326   7.061   3.029   1.951 -1.6022  0.9070 -0.9476
   21MOL   H88723327   7.037   3.014   1.708 -1.2954 -0.0787  1.4442
   21MOL   H88823328   7.190   3.085   1.675  0.1142 -1.3585  0.4567
   21MOL   H88923329   7.102   3.301   1.780 -0.1073 -1.3653  2.2356
   21MOL   H89023330   6.943   3.229   1.786 -0.1852 -0.6153 -0.3330
   21MOL   H89123331   7.101   3.262   1.534 -0.2185 -0.9296 -0.2664
   21MOL   H89223332   6.984   3.377   1.566 -0.3607 -0.8827 -1.1623
   21MOL   H89323333   6.948   3.082   1.520  1.4210  0.2286 -0.1013
   21MOL   H89423334   6.824   3.165   1.606  0.2393 -0.6486  1.2800
   21MOL   H89523335   6.799   3.326   1.401  0.4724 -0.0409  1.9860
   21MOL   H89623336   6.935   3.238   1.338  0.9670  1.6309  1.6323
   21MOL   H89723337   6.739   3.044   1.415  1.3318 -0.4139 -0.5184
   21MOL   C89823338   6.701   3.111   1.235 -0.1585  0.0567 -0.0198
   21MOL   O89923339   6.720   3.188   1.147  0.0446  0.3590  0.0652
   21MOL   C90023340   6.631   2.978   1.216 -0.3926  0.1032  0.4117
   21MOL   C90123341   6.575   2.964   1.074  1.1505  0.0001  0.2001
   21MOL   C90223342   6.659   2.895   0.968  0.0990 -0.4704  0.1874
   21MOL   C90323343   6.607   2.924   0.824 -0.2144  0.3537  0.5453
   21MOL   C90423344   6.602   3.069   0.780  0.8681 -0.7493 -0.3586
   21MOL   C90523345   6.595   3.072   0.625  0.2847  0.3075  0.6494
   21MOL   C90623346   6.641   3.208   0.560  0.1053 -0.0749 -0.2864
   21MOL   C90723347   6.603   3.211   0.410 -0.1697  0.1370 -0.7762
   21MOL   C90823348   6.696   3.123   0.325 -0.5151 -0.3001  0.5745
   21MOL   C90923349   6.655   3.113   0.175  0.1615 -0.2589  0.1712
   21MOL   C91023350   6.634   3.247   0.109  0.7255 -0.1091 -0.1435
   21MOL   O91123351   6.736   3.323   0.108 -0.2591  0.4685 -0.1936
   21MOL   N91223352   6.513   3.285   0.064 -0.6054  0.4298  0.0284
   21MOL   C91323353   6.484   3.407   7.679  0.2728  0.9199  0.3485
   21MOL   C91423354   6.416   3.516   0.066 -0.6893  0.0028 -0.0194
   21MOL   C91523355   6.271   3.485   0.098 -0.5492  0.1375  0.3732
   21MOL   C91623356   6.200   3.586   0.191 -0.1397  0.1176  0.9709
   21MOL   C91723357   6.053   3.556   0.173 -0.1303  0.3141 -0.4536
   21MOL   C91823358   5.961   3.640   0.256  0.5402 -0.3094 -0.2632
   21MOL   N91923359   5.824   3.638   0.210 -0.6045 -0.3801 -0.0294
   21MOL   H92023360   6.694   2.892   1.241  1.8679  1.8138  0.8593
   21MOL   H92123361   6.549   2.973   1.288 -1.4022  0.2437 -0.7136
   21MOL   H92223362   6.534   3.059   1.038 -0.6192 -0.1284  1.8753
   21MOL   H92323363   6.484   2.906   1.075  1.0723 -0.1678 -4.4620
   21MOL   H92423364   6.667   2.789   0.993 -1.2412 -0.2640  1.5518
   21MOL   H92523365   6.766   2.918   0.971 -0.1328  0.5868  0.7150
   21MOL   H92623366   6.671   2.868   0.756  0.7472  0.9268  0.9776
   21MOL   H92723367   6.505   2.888   0.810 -1.0010  2.2902  1.0433
   21MOL   H92823368   6.683   3.120   0.832  0.1767  0.1176 -0.1068
   21MOL   H92923369   6.513   3.117   0.820  1.8622  2.3385 -1.7291
   21MOL   H93023370   6.665   3.001   0.581 -1.0584 -0.1702 -0.7985
   21MOL   H93123371   6.494   3.043   0.594  1.6210 -0.2988 -3.4930
   21MOL   H93223372   6.747   3.222   0.582 -0.5175  2.2637  1.5182
   21MOL   H93323373   6.583   3.286   0.610 -0.9430 -0.8134 -0.3438
   21MOL   H93423374   6.605   3.314   0.373 -0.9084  1.2949  2.2752
   21MOL   H93523375   6.495   3.200   0.404 -0.1381  0.1626 -1.3912
   21MOL   H93623376   6.797   3.161   0.338  0.1396 -1.3378 -1.1892
   21MOL   H93723377   6.697   3.021   0.365 -1.6822 -1.3152 -1.8817
   21MOL   H93823378   6.736   3.061   0.125  0.6164  0.7949 -0.2010
   21MOL   H93923379   6.563   3.055   0.176 -0.5267  0.8196  0.4356
   21MOL   H94023380   6.435   3.223   0.080  2.5886 -3.2383  2.2608
   21MOL   H94123381   6.431   3.376   7.589 -1.4795  2.5347  0.7720
   21MOL   H94223382   6.576   3.442   7.633  0.3598  0.0051 -0.1910
   21MOL   H94323383   6.471   3.541   0.157 -0.5152  1.4320 -0.4978
   21MOL   H94423384   6.407   3.607   0.007 -1.4482  1.4921  2.3038
   21MOL   H94523385   6.220   3.488   0.001  0.4265  1.5114 -0.1144
   21MOL   H94623386   6.259   3.389   0.147  1.2386  0.1446  0.8558
   21MOL   H94723387   6.219   3.692   0.172 -1.1222  0.4116  1.6147
   21MOL   H94823388   6.237   3.577   0.293  0.0961 -2.1996  0.7029
   21MOL   H94923389   6.016   3.575   0.072 -2.5663  0.8832  0.5178
   21MOL   H95023390   6.013   3.458   0.195 -1.4818  1.5505  2.9129
   21MOL   H95123391   5.994   3.744   0.260  0.8496 -0.3648 -1.2556
   21MOL   H95223392   5.960   3.616   0.363 -0.5925 -0.3244 -0.2713
   21MOL   H95323393   5.806   3.619   0.113  0.2391 -0.9330 -0.0825
   21MOL   C95423394   5.717   3.678   0.283 -0.8215 -0.1478  0.8205
   21MOL   O95523395   5.722   3.707   0.397 -0.6070 -0.2811 -0.4754
   21MOL   C95623396   5.592   3.682   0.202 -0.0197  0.1309  0.5579
   21MOL   C95723397   5.525   3.823   0.208  0.0858 -0.6889 -0.0048
   21MOL   C95823398   5.612   3.945   0.161  0.4450  0.0169  0.2412
   21MOL   C95923399   5.526   4.077   0.152  0.2157  0.1046 -0.0952
   21MOL   C96023400   5.612   4.197   0.105  0.3196 -0.2008 -0.5194
   21MOL   C96123401   5.511   4.310   0.078  0.4540  0.5024  0.0170
   21MOL   C96223402   5.571   4.418   7.677 -0.0413 -0.4030  0.1839
   21MOL   C96323403   5.476   4.542   7.651  0.4945 -0.3103 -0.2819
   21MOL   C96423404   5.451   4.639   0.070  0.4938  0.4586  0.2761
   21MOL   C96523405   5.302   4.649   0.100  0.0774  0.3501 -0.6156
   21MOL   C96623406   5.236   4.525   0.156 -0.5793 -0.4600 -0.1097
   21MOL   O96723407   5.251   4.486   0.273  0.2771 -0.2410  0.0051
   21MOL   N96823408   5.164   4.458   0.072  0.4698  0.4798  0.2203
   21MOL   C96923409   5.127   4.320   0.092 -0.0647  0.4408 -0.0198
   21MOL   C97023410   5.060   4.255   7.659 -0.6442 -0.5913  0.2550
   21MOL   C97123411   4.946   4.156   0.007  0.1284 -0.3913  0.2598
   21MOL   C97223412   4.887   4.105   7.566 -0.8557 -0.1987 -0.7283
   21MOL   C97323413   4.742   4.065   7.593 -0.4225 -0.0973  0.4475
   21MOL   C97423414   4.721   3.932   7.670 -0.0790  0.1172 -0.4326
   21MOL   N97523415   4.588   3.931   0.040  0.3346  0.0099 -0.4513
   21MOL   H97623416   5.598   3.646   0.099 -1.1870  3.1660 -0.6324
   21MOL   H97723417   5.515   3.613   0.238 -0.8740  1.2969  1.0032
   21MOL   H97823418   5.496   3.837   0.313  2.7458 -0.2976  0.7193
   21MOL   H97923419   5.440   3.808   0.142  1.0151  1.2237 -1.7037
   21MOL   H98023420   5.689   3.969   0.234 -1.1277  1.7843  1.3763
   21MOL   H98123421   5.659   3.927   0.065 -1.7512 -0.8908 -0.6937
   21MOL   H98223422   5.449   4.068   0.075  1.4706 -0.8027 -1.2664
   21MOL   H98323423   5.475   4.097   0.247 -3.7777 -0.6623 -1.9571
   21MOL   H98423424   5.676   4.227   0.188 -0.5758 -1.2179  0.5559
   21MOL   H98523425   5.663   4.161   0.015 -0.4825 -2.1198 -0.2294
   21MOL   H98623426   5.426   4.272   0.021 -0.3493 -0.4988  1.8644
   21MOL   H98723427   5.480   4.342   0.177  1.1594  1.3753 -0.0319
   21MOL   H98823428   5.664   4.457   0.028 -0.3668 -0.8385  1.3034
   21MOL   H98923429   5.600   4.381   7.578  1.9114  0.8657  0.2450
   21MOL   H99023430   5.541   4.596   7.583  1.1372  0.6633  1.0679
   21MOL   H99123431   5.385   4.522   7.595  2.2201  0.0750 -3.3084
   21MOL   H99223432   5.491   4.734   0.036  1.0975  0.2588  0.4184
   21MOL   H99323433   5.497   4.600   0.161  0.5121  0.2425  0.1758
   21MOL   H99423434   5.285   4.734   0.166  0.9674 -1.7184  2.3455
   21MOL   H99523435   5.253   4.679   0.007  0.7599 -0.6766 -1.3109
   21MOL   H99623436   5.157   4.495   7.670 -3.1933 -2.3727 -0.7615
   21MOL   H99723437   5.041   4.337   0.158  0.9964  1.2136  1.1805
   21MOL   H99823438   5.201   4.253   0.136  1.2557  0.0791 -2.6748
   21MOL   H99923439   5.137   4.206   7.600  1.8310 -0.2258  3.0337
   21MOL     H123440   5.021   4.337   7.600 -0.0178 -1.0557 -0.8137
   21MOL     H223441   4.869   4.212   0.059  0.6457  0.0770  0.5261
   21MOL     H323442   4.981   4.083   0.080  2.1458  0.7662  0.5042
   21MOL     H423443   4.892   4.178   7.485 -0.4346 -0.6722 -1.1251
   21MOL     H523444   4.931   4.015   7.526  0.7876  0.1331  0.2735
   21MOL     H623445   4.704   4.044   7.493  0.5586 -1.2315  0.3065
   21MOL     H723446   4.680   4.142   7.638 -0.5935 -1.2108  2.1260
   21MOL     H823447   4.740   3.849   7.602 -0.9009 -0.1396 -0.3616
   21MOL     H923448   4.797   3.916   0.055  0.1293 -0.9308 -0.8491
   21MOL    H1023449   4.513   3.887   7.680  0.9337 -1.7300  0.1307
   21MOL    C1123450   4.547   4.001   0.150  0.1967  0.1230 -0.1120
   21MOL    O1223451   4.632   4.060   0.222  0.1629  0.0575 -0.3998
   21MOL    C1323452   4.395   3.992   0.166 -0.5494  0.2322  0.3029
   21MOL    C1423453   4.328   4.107   0.093  0.4925  0.9357  0.4723
   21MOL    C1523454   4.173   4.116   0.101  0.0790 -0.0491 -0.2605
   21MOL    C1623455   4.098   4.006   0.022 -0.0675 -0.8317  0.2342
   21MOL    C1723456   3.953   4.044   7.677  0.2748 -0.1887  0.1090
   21MOL    C1823457   3.884   3.940   7.589 -0.2489  0.1857 -0.6420
   21MOL    C1923458   3.737   3.987   7.554  0.2216 -0.0356 -0.2845
   21MOL    C2023459   3.671   3.888   7.460  0.1271  0.0878  0.1344
   21MOL    C2123460   3.527   3.921   7.430 -0.2708 -0.2324  1.0270
   21MOL    C2223461   3.470   3.835   7.311 -0.5753  0.2523  0.0500
   21MOL    C2323462   3.344   3.879   7.238 -0.1795  0.1157  0.1661
   21MOL    O2423463   3.338   3.978   7.162  0.2392 -0.2460 -0.7152
   21MOL    N2523464   3.234   3.800   7.251  0.7520  0.3806 -0.2006
   21MOL    C2623465   3.107   3.827   7.180 -0.1588  0.2770 -0.3376
   21MOL    C2723466   3.018   3.708   7.157 -0.2950 -0.6498  0.3586
   21MOL    C2823467   3.083   3.597   7.067  0.4701 -0.3833 -0.3925
   21MOL    C2923468   2.986   3.476   7.032 -0.1569 -0.8008  0.1308
   21MOL    C3023469   3.049   3.383   6.932 -0.0182 -0.0118  0.4681
   21MOL    C3123470   2.944   3.273   6.897 -0.1594 -0.3194  0.1642
   21MOL    N3223471   2.998   3.192   6.788 -0.0644  0.3342  0.3979
   21MOL    H3323472   4.371   3.981   0.272  1.5587  2.0801  1.0111
   21MOL    H3423473   4.356   3.899   0.125 -0.9650  0.3359  0.4603
   21MOL    H3523474   4.366   4.118   7.684  0.2971  0.1086  0.3023
   21MOL    H3623475   4.353   4.190   0.159  1.5603  0.7588  0.2992
   21MOL    H3723476   4.155   4.215   0.058  1.9587  0.8165  0.8836
   21MOL    H3823477   4.144   4.121   0.206 -1.3584  0.5401 -0.6734
   21MOL    H3923478   4.146   3.997   7.616 -2.3198 -1.0983 -0.8674
   21MOL    H4023479   4.101   3.908   0.069 -1.1643  0.1979  2.4921
   21MOL    H4123480   3.888   4.079   0.066  1.2907 -0.5213  1.0856
   21MOL    H4223481   3.967   4.130   7.611 -1.5984  0.4727  0.5205
   21MOL    H4323482   3.942   3.916   7.500 -0.7820  3.3103 -1.8966
   21MOL    H4423483   3.888   3.848   7.648 -0.7559  1.1136  0.8543
   21MOL    H4523484   3.697   3.985   7.655  1.6552 -2.9170  0.2989
   21MOL    H4623485   3.729   4.086   7.510 -0.1319 -0.6944 -1.7567
   21MOL    H4723486   3.731   3.900   7.370 -1.8907  3.4413 -0.8788
   21MOL    H4823487   3.690   3.785   7.491  0.1588  0.0360 -0.0624
   21MOL    H4923488   3.515   4.018   7.383  0.2696 -0.2107  0.9259
   21MOL    H5023489   3.468   3.914   7.521  0.6131 -1.6367  1.5236
   21MOL    H5123490   3.544   3.822   7.231 -1.9546 -3.2886 -0.7621
   21MOL    H5223491   3.455   3.736   7.355 -0.4858  0.3918  0.3973
   21MOL    H5323492   3.239   3.719   7.312 -0.8947 -0.6615 -1.4104
   21MOL    H5423493   3.130   3.887   7.092 -1.9350 -1.0084 -1.7375
   21MOL    H5523494   3.062   3.908   7.237  2.1981  1.3759 -0.0111
   21MOL    H5623495   2.926   3.737   7.106  0.4238  2.6200  0.7745
   21MOL    H5723496   2.978   3.668   7.250 -0.6686  2.1266  1.4418
   21MOL    H5823497   3.171   3.561   7.120  0.8146 -0.5467 -1.0709
   21MOL    H5923498   3.118   3.644   6.975 -0.4989  0.2096 -0.4668
   21MOL    H6023499   2.897   3.527   6.994 -0.8038 -1.4373  0.7826
   21MOL    H6123500   2.949   3.422   7.119 -1.0555 -0.8342 -0.2682
   21MOL    H6223501   3.138   3.327   6.960 -1.7355 -2.8890  0.4885
   21MOL    H6323502   3.085   3.438   6.846 -2.7921  0.3613 -0.4967
   21MOL    H6423503   2.852   3.326   6.872  1.7206  1.6603 -2.7730
   21MOL    H6523504   2.932   3.214   6.988  0.0816  0.4128  0.6733
   21MOL    H6623505   2.976   3.230   6.697 -0.5493  0.9553  0.7724
   21MOL    C6723506   3.052   3.068   6.796  0.0518 -0.1428 -0.3211
   21MOL    O6823507   3.054   3.006   6.898 -0.1384  0.3696 -0.0520
   21MOL    C6923508   3.122   3.009   6.678  0.2294  0.3602 -0.0880
   21MOL    C7023509   3.273   3.025   6.678 -0.1949  0.0050 -0.4984
   21MOL    C7123510   3.321   3.169   6.681 -0.4007  0.0086  0.2273
   21MOL    C7223511   3.375   3.207   6.822  0.2394  0.5448 -1.2289
   21MOL    C7323512   3.411   3.362   6.846  0.2764 -0.0523  0.3795
   21MOL    C7423513   3.452   3.380   6.998  0.0751  0.1192  0.2220
   21MOL    C7523514   3.539   3.502   7.029  0.3170 -0.6527 -0.0212
   21MOL    C7623515   3.621   3.488   7.155 -0.6492  0.0616 -0.3895
   21MOL    C7723516   3.746   3.569   7.155  0.6938  0.4665  0.1413
   21MOL    C7823517   3.825   3.551   7.283  0.1921  0.1679  0.3742
   21MOL    C7923518   3.968   3.578   7.258  0.6174 -0.4361 -0.0136
   21MOL    O8023519   4.019   3.689   7.278 -0.1844  0.1842 -0.2265
   21MOL    N8123520   4.042   3.467   7.221 -0.6779 -0.9521 -0.6741
   21MOL    C8223521   4.185   3.461   7.232  0.0503 -0.1806 -0.3141
   21MOL    C8323522   4.236   3.354   7.135 -0.9610 -0.7801  0.1135
   21MOL    C8423523   4.388   3.344   7.119 -0.0611 -0.0844  0.1091
   21MOL    C8523524   4.434   3.233   7.029 -0.1522  0.2042  0.6153
   21MOL    C8623525   4.586   3.235   7.040 -0.6860 -0.2385  0.0025
   21MOL    C8723526   4.641   3.149   6.932 -0.0172 -0.8050 -0.0845
   21MOL    N8823527   4.627   3.008   6.970  0.5414  0.6474  0.0743
   21MOL    H8923528   3.083   3.052   6.586  0.3818 -0.1396 -0.3869
   21MOL    H9023529   3.103   2.902   6.677  0.4716  0.3007  0.8710
   21MOL    H9123530   3.316   2.978   6.767 -3.3662 -0.8222  0.6403
   21MOL    H9223531   3.307   2.978   6.586  1.6848  2.1695 -0.9653
   21MOL    H9323532   3.406   3.177   6.612  1.7089 -1.5847  2.5403
   21MOL    H9423533   3.248   3.241   6.645  0.4566  0.5731 -0.3924
   21MOL    H9523534   3.308   3.173   6.901  4.0694 -1.3326  1.3613
   21MOL    H9623535   3.456   3.136   6.841 -0.9267 -1.0540 -2.0371
   21MOL    H9723536   3.493   3.384   6.779 -0.1017  1.2328  0.3303
   21MOL    H9823537   3.326   3.427   6.825  0.2936  0.2610  1.2678
   21MOL    H9923538   3.362   3.399   7.056 -1.7122 -0.2532 -2.3500
   21MOL   H10023539   3.507   3.298   7.045 -0.8376  0.4863  1.9767
   21MOL   H10123540   3.478   3.592   7.023  2.5036  0.9056  0.6260
   21MOL   H10223541   3.612   3.513   6.948  0.3262 -1.9432 -0.2060
   21MOL   H10323542   3.551   3.513   7.234  0.8967 -0.9065  1.3228
   21MOL   H10423543   3.650   3.384   7.173  1.1379  0.5322 -0.4506
   21MOL   H10523544   3.735   3.672   7.120 -1.0775 -0.2264 -1.4338
   21MOL   H10623545   3.811   3.538   7.072 -0.7267 -1.6032 -0.2214
   21MOL   H10723546   3.788   3.600   7.373  0.8094  0.8413  0.2605
   21MOL   H10823547   3.820   3.444   7.305 -3.4920  0.2236  0.1759
   21MOL   H10923548   3.988   3.383   7.205  1.4544 -2.4447 -0.2357
   21MOL   H11023549   4.207   3.437   7.336  1.9127  0.5779 -0.5136
   21MOL   H11123550   4.232   3.557   7.211 -0.3434  0.4884  1.7647
   21MOL   H11223551   4.196   3.356   7.034 -2.2773  1.5328  0.6474
   21MOL   H11323552   4.200   3.262   7.181  0.1724  0.0377  2.7513
   21MOL   H11423553   4.437   3.324   7.214  0.6822  3.4593  0.5510
   21MOL   H11523554   4.421   3.442   7.085  0.4549 -1.5735 -3.9589
   21MOL   H11623555   4.397   3.138   7.067 -0.0333 -0.5996 -1.2274
   21MOL   H11723556   4.397   3.245   6.927  3.1818 -0.2806 -0.7280
   21MOL   H11823557   4.640   3.330   7.038 -0.9518 -0.0827  0.2700
   21MOL   H11923558   4.622   3.195   7.135 -0.2037 -2.0944 -0.9305
   21MOL   H12023559   4.586   3.164   6.839 -0.7646  0.8468  0.6039
   21MOL   H12123560   4.748   3.171   6.936 -0.6306  2.7098 -1.1926
   21MOL   H12223561   4.686   2.958   6.904 -1.1498 -1.0200 -0.2104
   21MOL   H12323562   4.645   2.989   7.068  0.3716 -1.5736 -0.2987
   22MOL     C123563   5.394   4.380   5.707 -0.3462 -0.5775  0.5959
   22MOL     O223564   5.387   4.423   5.593  0.2757  0.1905  0.1794
   22MOL     C323565   5.528   4.321   5.749  0.1680  0.5125 -0.4153
   22MOL     C423566   5.590   4.227   5.651  1.0304 -0.3642  0.9941
   22MOL     C523567   5.710   4.153   5.710 -0.3723  0.1270 -0.0248
   22MOL     C623568   5.799   4.093   5.600  0.1628 -0.3310 -0.3614
   22MOL     C723569   5.872   3.975   5.645 -0.7996 -0.5245  0.4460
   22MOL     C823570   5.808   3.838   5.611 -0.3866  1.0477  0.2115
   22MOL     C923571   5.904   3.718   5.642 -0.1072  0.4645  0.0074
   22MOL    C1023572   5.855   3.578   5.610 -0.4873  0.0224 -0.0366
   22MOL    C1123573   5.718   3.540   5.665 -0.3690 -0.4207 -0.1381
   22MOL    C1223574   5.680   3.399   5.616 -0.3755  0.3806  0.8551
   22MOL    C1323575   5.538   3.353   5.655  0.2052 -0.3336 -0.0442
   22MOL    O1423576   5.456   3.442   5.686 -0.4764  0.8369 -0.3611
   22MOL    N1523577   5.503   3.224   5.647 -0.4205 -0.6127 -0.1242
   22MOL    C1623578   5.370   3.175   5.703  0.4868  0.3600  0.2615
   22MOL    C1723579   5.396   3.026   5.737  0.2917 -0.4712 -0.8796
   22MOL    C1823580   5.281   2.946   5.804 -0.3213  0.6953 -0.4590
   22MOL    C1923581   5.149   2.956   5.728 -0.4398  0.0387 -0.0139
   22MOL    C2023582   5.032   2.869   5.783  0.1191 -1.0381 -0.2991
   22MOL    C2123583   4.897   2.902   5.736 -0.3108  0.0607 -0.7473
   22MOL    N2223584   4.795   2.815   5.800 -0.1551  0.0980  0.2416
   22MOL    H2323585   5.509   4.279   5.848 -0.0813  1.2486 -0.1536
   22MOL    H2423586   5.606   4.393   5.775  0.7363 -1.1024  2.6200
   22MOL    H2523587   5.630   4.288   5.569  0.1490  0.2869  1.0367
   22MOL    H2623588   5.523   4.151   5.612  1.6789 -1.4650  1.9685
   22MOL    H2723589   5.672   4.083   5.784  0.6766  0.8852  1.2561
   22MOL    H2823590   5.778   4.217   5.766 -1.5686  0.1596  1.4249
   22MOL    H2923591   5.760   4.067   5.502 -1.8786  0.5043  0.1958
   22MOL    H3023592   5.869   4.175   5.583  1.4577 -1.2127  0.5856
   22MOL    H3123593   5.886   3.981   5.753  1.9285  0.0838  0.0997
   22MOL    H3223594   5.975   3.984   5.610 -0.6954  1.3425  1.1845
   22MOL    H3323595   5.724   3.830   5.680 -0.1756  0.8706  0.4490
   22MOL    H3423596   5.776   3.826   5.508  0.6146  1.8223 -0.2026
   22MOL    H3523597   5.997   3.736   5.587  0.1254 -3.1005 -0.9525
   22MOL    H3623598   5.934   3.723   5.747  1.8086 -0.9044 -0.4242
   22MOL    H3723599   5.845   3.577   5.502  0.3579  0.2591 -0.1232
   22MOL    H3823600   5.932   3.501   5.614 -0.5601 -0.0821 -0.6470
   22MOL    H3923601   5.640   3.612   5.638 -0.6096 -0.5691  0.1562
   22MOL    H4023602   5.729   3.538   5.774  2.1355 -0.5922 -0.3697
   22MOL    H4123603   5.685   3.391   5.508 -2.2069  1.8065  0.6224
   22MOL    H4223604   5.752   3.324   5.645  0.2552 -0.0069 -1.6629
   22MOL    H4323605   5.562   3.151   5.610 -0.4781 -0.3378 -0.7732
   22MOL    H4423606   5.292   3.194   5.629  0.1552  1.8089  0.9586
   22MOL    H4523607   5.336   3.225   5.793 -0.7305  1.6425 -0.8824
   22MOL    H4623608   5.473   3.014   5.813  0.0266 -1.0341 -0.6944
   22MOL    H4723609   5.437   2.968   5.654  1.3411  0.1896 -0.8339
   22MOL    H4823610   5.315   2.844   5.823 -0.9855  0.7455  1.0386
   22MOL    H4923611   5.266   2.995   5.900  0.5170  0.6168 -0.2913
   22MOL    H5023612   5.173   2.934   5.624  3.3194 -0.3836  0.8941
   22MOL    H5123613   5.116   3.060   5.733  0.9715  0.6170 -2.0521
   22MOL    H5223614   5.047   2.762   5.765  1.9576 -0.7977 -0.3493
   22MOL    H5323615   5.040   2.876   5.892 -3.6022  1.2895 -0.0847
   22MOL    H5423616   4.883   3.007   5.763  0.8392 -0.4752  2.0944
   22MOL    H5523617   4.894   2.889   5.628  0.1745  1.5028 -0.9402
   22MOL    H5623618   4.838   2.737   5.847  4.6466  2.7672  0.6650
   22MOL    H5723619   5.316   4.367   5.782  0.3381  1.4949  1.6888
   22MOL    C5823620   4.663   2.822   5.782 -0.4089  0.5286 -0.4736
   22MOL    O5923621   4.614   2.906   5.710  0.4117 -0.2226  0.4601
   22MOL    C6023622   4.596   2.708   5.859 -0.8295  0.3430 -0.8697
   22MOL    C6123623   4.494   2.626   5.778 -0.4137  0.3239 -0.1715
   22MOL    C6223624   4.447   2.502   5.858 -0.0164  0.0343 -0.5398
   22MOL    C6323625   4.315   2.442   5.801  0.8361 -0.1926  0.5277
   22MOL    C6423626   4.265   2.329   5.890 -0.4930 -0.2816  0.1283
   22MOL    C6523627   4.127   2.275   5.848 -0.7813  0.4780 -0.4407
   22MOL    C6623628   4.122   2.214   5.706 -0.2747  0.4095  0.2306
   22MOL    C6723629   4.060   2.296   5.598 -0.4648 -0.7829  0.6376
   22MOL    C6823630   3.922   2.348   5.616 -0.2873 -0.4587  0.5100
   22MOL    C6923631   3.856   2.430   5.508  0.0088  0.0779 -0.1958
   22MOL    C7023632   3.836   2.342   5.388  0.1752  0.2500 -0.3980
   22MOL    O7123633   3.751   2.252   5.392  0.0567  0.5602 -0.1895
   22MOL    N7223634   3.922   2.363   5.286  0.3806 -0.3642  0.0168
   22MOL    C7323635   3.912   2.303   5.155  0.2941 -1.0436 -0.8713
   22MOL    C7423636   3.813   2.390   5.076  0.0505  0.3284  0.1649
   22MOL    C7523637   3.790   2.343   4.930  0.5841  0.2321 -0.1562
   22MOL    C7623638   3.699   2.431   4.837 -0.7093 -0.8272 -0.0691
   22MOL    C7723639   3.549   2.424   4.881 -1.0129 -0.0479  0.5037
   22MOL    C7823640   3.452   2.510   4.799 -0.8221 -0.2159 -0.1776
   22MOL    N7923641   3.325   2.531   4.860  0.0254 -0.1223 -0.1400
   22MOL    H8023642   4.534   2.756   5.935  0.2406 -1.9986  1.5436
   22MOL    H8123643   4.662   2.650   5.922 -2.1772  0.3916  0.6110
   22MOL    H8223644   4.407   2.686   5.751 -0.4105  0.4323  0.0632
   22MOL    H8323645   4.532   2.592   5.681 -0.5232 -1.0031  0.2410
   22MOL    H8423646   4.415   2.537   5.956 -1.5556 -2.4600 -0.1145
   22MOL    H8523647   4.529   2.433   5.881 -0.4958  0.2528  1.9747
   22MOL    H8623648   4.333   2.400   5.702 -1.8665  2.6108 -1.2440
   22MOL    H8723649   4.234   2.513   5.787  1.1259  0.2084  0.9036
   22MOL    H8823650   4.337   2.248   5.874 -1.1940 -0.6063 -1.4318
   22MOL    H8923651   4.257   2.361   5.994 -2.6569 -1.1729  0.2685
   22MOL    H9023652   4.055   2.355   5.861 -0.4304  0.8081 -0.5313
   22MOL    H9123653   4.087   2.198   5.914  2.5674 -0.7295  0.3207
   22MOL    H9223654   4.039   2.143   5.709 -0.6154  0.8443  1.7847
   22MOL    H9323655   4.210   2.152   5.689  0.5859  1.4850  0.7091
   22MOL    H9423656   4.113   2.390   5.582 -0.7893 -0.7693 -0.4074
   22MOL    H9523657   4.076   2.248   5.501 -1.0140  0.9057 -0.3026
   22MOL    H9623658   3.925   2.414   5.703  2.2253  1.9141 -1.2717
   22MOL    H9723659   3.858   2.262   5.635 -0.6967 -0.3920 -0.4997
   22MOL    H9823660   3.756   2.469   5.529  0.3095 -0.2788  2.0717
   22MOL    H9923661   3.910   2.519   5.478 -1.0559  0.1220 -2.0306
   22MOL   H10023662   3.985   2.442   5.293 -1.0499  0.8627 -0.7138
   22MOL   H10123663   3.881   2.199   5.158  1.2258 -1.2718  1.0585
   22MOL   H10223664   4.011   2.284   5.115  0.1544 -0.3296 -1.6021
   22MOL   H10323665   3.721   2.399   5.134  1.5252  2.0315  2.3516
   22MOL   H10423666   3.848   2.493   5.074  1.4275 -0.1491 -2.7674
   22MOL   H10523667   3.746   2.243   4.930  2.4349 -0.5955 -1.4387
   22MOL   H10623668   3.891   2.339   4.889  1.0686  0.2825  1.0198
   22MOL   H10723669   3.747   2.529   4.833 -0.7216 -0.7696  1.0502
   22MOL   H10823670   3.706   2.376   4.743 -0.6634 -1.8038  0.5111
   22MOL   H10923671   3.536   2.455   4.984  0.3494 -0.5659  0.8496
   22MOL   H11023672   3.529   2.317   4.874  3.1360 -0.8516 -0.3955
   22MOL   H11123673   3.436   2.468   4.699  0.8102 -0.0836 -0.5124
   22MOL   H11223674   3.501   2.606   4.787 -0.7729 -0.0395  1.3208
   22MOL   H11323675   3.314   2.618   4.910  1.0959 -0.4097  0.6186
   22MOL   C11423676   3.208   2.468   4.823 -0.2128 -0.0412  0.2940
   22MOL   O11523677   3.212   2.371   4.751  0.2120  0.3356  0.3561
   22MOL   C11623678   3.082   2.532   4.890  0.9384  0.2228 -0.0055
   22MOL   C11723679   2.972   2.436   4.937  0.4289 -0.2971 -0.4283
   22MOL   C11823680   2.857   2.416   4.841  1.0059  0.2985  0.0158
   22MOL   C11923681   2.748   2.318   4.889  0.0088  0.2585  0.4352
   22MOL   C12023682   2.601   2.376   4.890 -0.3636  0.5394 -0.5564
   22MOL   C12123683   2.505   2.278   4.947  0.2796 -0.0853  0.7417
   22MOL   C12223684   2.375   2.351   4.984 -0.0687  0.1305  0.6473
   22MOL   C12323685   2.268   2.251   5.025  0.9940  0.3407 -0.0620
   22MOL   C12423686   2.140   2.307   5.091 -0.4611 -0.2276  0.0570
   22MOL   C12523687   2.060   2.198   5.154 -0.6040  0.3076 -0.2058
   22MOL   C12623688   1.940   2.244   5.234 -0.1237 -0.4919 -0.4837
   22MOL   O12723689   1.858   2.316   5.183 -0.4676 -0.8997 -0.5120
   22MOL   N12823690   1.936   2.203   5.362 -0.1949 -0.2794 -0.5676
   22MOL   C12923691   1.836   2.236   5.469  0.1045  0.1058  0.3779
   22MOL   C13023692   1.899   2.311   5.587 -0.7144  0.3886  0.2910
   22MOL   C13123693   1.811   2.307   5.714 -0.1899  0.7802 -0.4438
   22MOL   C13223694   1.885   2.366   5.839 -0.1396  0.1849 -0.9426
   22MOL   C13323695   1.807   2.317   5.970 -0.7053 -0.1021  0.7821
   22MOL   C13423696   1.670   2.389   5.975  0.5655  0.5337  0.7260
   22MOL   N13523697   1.592   2.337   6.081  0.1159  0.1495  0.0334
   22MOL   H13623698   3.120   2.575   4.983  1.0310 -2.9182  1.4832
   22MOL   H13723699   3.050   2.614   4.827  1.0075  1.3990  1.4703
   22MOL   H13823700   2.933   2.473   5.032  1.3586 -3.2128  1.1170
   22MOL   H13923701   3.004   2.334   4.955 -1.1526 -0.6319  0.6335
   22MOL   H14023702   2.819   2.515   4.816 -1.9613 -0.5631  0.9290
   22MOL   H14123703   2.911   2.380   4.754  1.2840  0.2141  0.2204
   22MOL   H14223704   2.755   2.219   4.844  1.0698  0.8553 -0.7476
   22MOL   H14323705   2.783   2.279   4.984 -0.7036 -2.7283 -0.4824
   22MOL   H14423706   2.588   2.470   4.944  0.4990  0.3776 -0.0681
   22MOL   H14523707   2.569   2.394   4.787  1.5204 -0.0813 -1.2825
   22MOL   H14623708   2.546   2.218   5.028  1.1133 -0.4211  0.0778
   22MOL   H14723709   2.487   2.200   4.872 -0.1885  1.5592 -0.8872
   22MOL   H14823710   2.388   2.411   5.074 -0.0503  0.3321  0.5109
   22MOL   H14923711   2.343   2.415   4.902 -0.7547 -1.5764 -0.4661
   22MOL   H15023712   2.319   2.176   5.085  0.5711 -2.4472 -3.1103
   22MOL   H15123713   2.237   2.197   4.936 -2.5686 -0.4591  1.6080
   22MOL   H15223714   2.081   2.387   5.047  0.0573  0.3210  0.3435
   22MOL   H15323715   2.167   2.363   5.181  0.0500 -0.1567 -0.1389
   22MOL   H15423716   2.130   2.148   5.221 -0.3628  1.5295  0.4683
   22MOL   H15523717   2.028   2.123   5.081 -0.6867 -0.8502  1.0023
   22MOL   H15623718   2.020   2.156   5.394 -1.8238 -2.1005  1.1730
   22MOL   H15723719   1.785   2.142   5.489  1.3731 -0.9607 -1.2667
   22MOL   H15823720   1.762   2.310   5.439 -0.0653  0.4554  1.6341
   22MOL   H15923721   1.915   2.413   5.552 -1.3831  0.9841  1.6540
   22MOL   H16023722   1.992   2.266   5.621 -1.9081 -0.4731  2.5924
   22MOL   H16123723   1.721   2.362   5.687 -0.3651  0.7262  0.0373
   22MOL   H16223724   1.807   2.199   5.725 -0.8203  0.9999  1.7042
   22MOL   H16323725   1.986   2.324   5.849  0.0615  0.9089  0.2943
   22MOL   H16423726   1.894   2.475   5.831  0.9083  0.2232  0.4168
   22MOL   H16523727   1.867   2.351   6.055 -1.6866  0.2815  1.3308
   22MOL   H16623728   1.795   2.209   5.972 -2.7489  0.0730 -0.9731
   22MOL   H16723729   1.675   2.496   5.995  0.9301  0.6908 -0.1990
   22MOL   H16823730   1.599   2.376   5.895 -0.7648  1.5674  1.7223
   22MOL   H16923731   1.533   2.258   6.060 -0.5654  0.4275  0.8336
   22MOL   C17023732   1.595   2.373   6.212  0.6193 -0.3206 -0.1808
   22MOL   O17123733   1.671   2.462   6.253 -0.0290  0.1022  0.1080
   22MOL   C17223734   1.505   2.301   6.314  0.2022 -0.3296  0.2576
   22MOL   C17323735   1.457   2.385   6.436 -0.0098  0.2155 -0.7620
   22MOL   C17423736   1.387   2.520   6.392  0.0836 -0.1303 -0.1054
   22MOL   C17523737   1.335   2.602   6.511  0.1147 -0.0750  0.1522
   22MOL   C17623738   1.290   2.741   6.456  0.2248  1.2355  0.3115
   22MOL   C17723739   1.217   2.822   6.558 -0.6492 -0.2235 -0.1450
   22MOL   C17823740   1.174   2.961   6.508  0.7404 -0.6304 -0.2459
   22MOL   C17923741   1.099   3.038   6.619  0.0876  0.1336  0.2214
   22MOL   C18023742   1.194   3.087   6.734 -0.1980  0.1961 -0.0972
   22MOL   C18123743   1.124   3.188   6.837  0.2681  0.2321 -0.1095
   22MOL   C18223744   1.041   3.103   6.941  0.5774 -0.2888 -0.2668
   22MOL   O18323745   1.092   3.044   7.038  0.5609  0.0523  0.4858
   22MOL   N18423746   0.911   3.104   6.921  0.7642 -0.0884 -0.6639
   22MOL   C18523747   0.812   3.048   7.012  0.8777  0.3502 -0.5201
   22MOL   C18623748   0.722   2.944   6.942 -0.1325 -0.0755  0.8501
   22MOL   C18723749   0.614   2.894   7.038 -0.6381  0.3810 -0.7402
   22MOL   C18823750   0.533   2.776   6.979  0.5648  0.9365 -0.8684
   22MOL   C18923751   0.448   2.703   7.084 -0.6191  0.5475  0.0953
   22MOL   C19023752   0.368   2.592   7.024 -0.1725  0.0261  0.0883
   22MOL   N19123753   0.258   2.640   6.943  0.7115 -0.2230  0.6861
   22MOL   H19223754   1.424   2.268   6.249  0.5549  2.2008 -1.5506
   22MOL   H19323755   1.565   2.217   6.348  0.9252 -0.4307 -1.2005
   22MOL   H19423756   1.545   2.402   6.498  0.1898  1.4863 -1.3711
   22MOL   H19523757   1.395   2.325   6.503  0.1822  1.0131  0.1325
   22MOL   H19623758   1.303   2.501   6.326 -0.3147 -1.0759  0.6754
   22MOL   H19723759   1.461   2.578   6.336  1.2888  0.1967  1.7526
   22MOL   H19823760   1.242   2.552   6.539 -0.4941  0.6982 -0.4733
   22MOL   H19923761   1.401   2.605   6.597 -1.4618 -0.0621  1.3772
   22MOL   H20023762   1.376   2.799   6.423  0.2820  1.2822  0.5409
   22MOL   H20123763   1.228   2.724   6.368 -1.8928 -0.1503  2.0082
   22MOL   H20223764   1.273   2.830   6.651  0.3735  0.5530 -0.8241
   22MOL   H20323765   1.134   2.765   6.599  1.7309 -3.2973  0.6360
   22MOL   H20423766   1.254   3.022   6.467  0.1721 -0.0912 -0.5594
   22MOL   H20523767   1.108   2.946   6.422 -0.4140 -1.0024  0.6849
   22MOL   H20623768   1.053   3.127   6.576 -1.0974  0.5208  2.2414
   22MOL   H20723769   1.011   2.979   6.643 -0.8648 -0.4242 -4.1671
   22MOL   H20823770   1.281   3.139   6.694 -0.2801  4.1267  4.4209
   22MOL   H20923771   1.223   2.996   6.786 -1.3617  0.0641  0.3317
   22MOL   H21023772   1.196   3.246   6.895 -1.3019  1.4050  0.6999
   22MOL   H21123773   1.057   3.258   6.788 -0.2069  0.5177  0.9307
   22MOL   H21223774   0.872   3.145   6.837  0.6733 -0.1569 -0.6554
   22MOL   H21323775   0.744   3.129   7.041  1.2890  0.0204  1.4201
   22MOL   H21423776   0.845   3.025   7.113 -1.9518 -0.5091  0.2588
   22MOL   H21523777   0.689   2.973   6.842  0.0184 -0.6443  0.6311
   22MOL   H21623778   0.783   2.858   6.914  0.0527  1.0883 -2.5608
   22MOL   H21723779   0.671   2.858   7.124  1.0947  0.9828 -1.6140
   22MOL   H21823780   0.556   2.979   7.073  0.7955  1.5265 -1.0925
   22MOL   H21923781   0.591   2.703   6.922  0.6279  0.2280  0.0997
   22MOL   H22023782   0.469   2.819   6.902 -0.6219 -0.9014 -0.9252
   22MOL   H22123783   0.377   2.777   7.123  1.2007  1.6831  1.3439
   22MOL   H22223784   0.500   2.664   7.172 -1.9654  0.0108  0.6715
   22MOL   H22323785   0.325   2.539   7.109  0.9598 -1.6418 -0.3550
   22MOL   H22423786   0.431   2.530   6.961 -1.4056  0.2901 -1.4443
   22MOL   H22523787   0.236   2.739   6.943  1.3745 -0.0663 -0.1697
   22MOL   C22623788   0.184   2.565   6.854  0.1843 -0.0916 -0.1906
   22MOL   O22723789   0.188   2.445   6.858 -0.2100  0.2081 -0.8505
   22MOL   C22823790   0.092   2.640   6.761 -0.0877 -0.4650 -0.2654
   22MOL   C22923791   0.151   2.667   6.616 -0.3871 -0.7690 -0.9207
   22MOL   C23023792   0.267   2.774   6.610 -0.0083  0.0285  0.3906
   22MOL   C23123793   0.370   2.751   6.497  0.0730  0.3941 -1.3490
   22MOL   C23223794   0.318   2.785   6.358  0.1774  0.6388  0.2248
   22MOL   C23323795   0.423   2.748   6.255  1.0733  0.1144  0.2186
   22MOL   C23423796   0.382   2.795   6.117  0.1132  0.9190  0.7239
   22MOL   C23523797   0.245   2.737   6.072  0.2510  0.2172  0.1626
   22MOL   C23623798   0.250   2.580   6.067 -0.5438 -0.3055  0.5067
   22MOL   C23723799   0.163   2.518   5.955 -0.0952  0.5873  0.3057
   22MOL   C23823800   0.016   2.534   5.988 -0.1999 -0.2095 -0.3430
   22MOL   O23923801   7.652   2.442   6.054 -0.2035  0.2521 -0.1631
   22MOL   N24023802   7.643   2.635   5.934 -0.6627  0.2554 -0.1079
   22MOL   C24123803   7.500   2.662   5.942  0.3344 -0.0777  0.1849
   22MOL   C24223804   7.459   2.798   5.888  0.1615 -0.5751 -0.0763
   22MOL   C24323805   7.447   2.787   5.738 -0.1086  0.4806 -0.2148
   22MOL   C24423806   7.370   2.905   5.670  0.3926  0.2954 -0.5631
   22MOL   C24523807   7.385   2.905   5.522  0.1924 -0.1343  0.5575
   22MOL   C24623808   7.305   3.020   5.460  0.2071  0.0216  0.7082
   22MOL   N24723809   7.160   3.032   5.488  0.1601 -0.4098 -0.0185
   22MOL   H24823810   0.072   2.736   6.808 -1.4004  0.2965 -2.3098
   22MOL   H24923811   0.002   2.578   6.766  0.2821 -1.0297 -0.5689
   22MOL   H25023812   0.192   2.571   6.585  0.4092 -0.5565 -0.5196
   22MOL   H25123813   0.070   2.694   6.548  0.3277  0.7735 -1.1769
   22MOL   H25223814   0.218   2.871   6.616 -1.4130 -0.6958  1.1799
   22MOL   H25323815   0.325   2.772   6.702 -1.4317  2.1118  1.3704
   22MOL   H25423816   0.413   2.651   6.500  2.2196  1.3462  1.4910
   22MOL   H25523817   0.457   2.811   6.522  0.5721 -0.2298 -1.5581
   22MOL   H25623818   0.306   2.892   6.350 -0.0146  0.5710 -0.3691
   22MOL   H25723819   0.217   2.746   6.345 -0.1263  0.7796  2.0807
   22MOL   H25823820   0.517   2.796   6.283  0.3580  0.7145  1.5922
   22MOL   H25923821   0.443   2.641   6.267  3.0997  0.4953  0.4812
   22MOL   H26023822   0.459   2.747   6.057 -1.7565  1.2769 -2.0633
   22MOL   H26123823   0.386   2.903   6.102 -1.7739  0.9177  0.0031
   22MOL   H26223824   0.159   2.788   6.116 -0.0737  0.3486 -0.6158
   22MOL   H26323825   0.228   2.772   5.970  0.7236 -0.0415 -0.0060
   22MOL   H26423826   0.353   2.553   6.044 -1.5908 -1.9162 -2.6602
   22MOL   H26523827   0.215   2.537   6.162  1.2721 -1.7860  0.5282
   22MOL   H26623828   0.190   2.556   5.856  1.3211 -0.6186  0.2264
   22MOL   H26723829   0.186   2.412   5.946  0.6774  0.8416 -0.7853
   22MOL   H26823830   0.005   2.695   5.873  0.4642 -0.1486  0.4879
   22MOL   H26923831   7.463   2.657   6.044 -2.5829  1.1472 -0.7326
   22MOL   H27023832   7.447   2.581   5.892  1.4821  1.1802 -3.2141
   22MOL   H27123833   7.536   2.869   5.917 -0.5854  0.9138 -1.6414
   22MOL   H27223834   7.361   2.830   5.926  0.5793  2.5719 -1.4835
   22MOL   H27323835   7.544   2.773   5.692 -1.0918 -2.9191 -1.3979
   22MOL   H27423836   7.394   2.694   5.718  1.7924 -0.8090  0.6218
   22MOL   H27523837   7.397   3.001   5.714  0.3139  0.1090 -0.1122
   22MOL   H27623838   7.265   2.889   5.692  0.6502 -1.1377 -0.3433
   22MOL   H27723839   7.345   2.812   5.483 -0.4420  0.3624  0.0040
   22MOL   H27823840   7.492   2.922   5.513  0.2755  0.3892  2.4153
   22MOL   H27923841   7.319   3.003   5.353  1.9214  0.1670  0.8901
   22MOL   H28023842   7.345   3.119   5.484 -0.8247  0.5144  0.4280
   22MOL   H28123843   7.101   3.001   5.412 -2.5148  0.3871  1.6715
   22MOL   C28223844   7.091   3.086   5.589 -0.1545 -0.2887  0.1655
   22MOL   O28323845   7.146   3.131   5.689 -0.5614  0.3792  0.0110
   22MOL   C28423846   6.939   3.096   5.578 -0.4765 -0.0378 -0.1787
   22MOL   C28523847   6.864   3.097   5.712  0.5618 -0.8919  0.1318
   22MOL   C28623848   6.822   2.955   5.762 -1.0446 -0.2033 -0.1495
   22MOL   C28723849   6.728   2.974   5.875 -0.1456 -0.2376  0.2515
   22MOL   C28823850   6.681   2.845   5.945  0.3941  0.1840 -0.0466
   22MOL   C28923851   6.596   2.868   6.070  0.4270  0.3427 -0.3091
   22MOL   C29023852   6.452   2.906   6.034 -0.6806  0.6904 -0.6931
   22MOL   C29123853   6.378   2.965   6.161 -0.0739 -0.5402 -0.2081
   22MOL   C29223854   6.240   3.024   6.126  0.2910  0.1125  0.5262
   22MOL   C29323855   6.129   2.926   6.074  0.2306  0.4961 -0.2850
   22MOL   C29423856   6.087   2.824   6.183 -0.0617  0.3753 -0.1950
   22MOL   O29523857   6.096   2.703   6.156  0.5725  0.6629 -0.4433
   22MOL   N29623858   6.039   2.872   6.301  0.1364  0.4336  0.1585
   22MOL   C29723859   5.970   2.803   6.408  0.3755  0.1782  0.0376
   22MOL   C29823860   6.058   2.801   6.534 -0.4021 -0.1829  0.0945
   22MOL   C29923861   5.997   2.775   6.673 -0.4994 -0.5840 -0.4215
   22MOL   C30023862   5.959   2.631   6.710  0.4509  0.6549  0.2921
   22MOL   C30123863   5.905   2.609   6.852 -0.5205  0.3516  0.1310
   22MOL   C30223864   5.905   2.457   6.884  0.5197  0.0657  0.0984
   22MOL   N30323865   6.041   2.406   6.893  0.2904  0.4020  0.2114
   22MOL   H30423866   6.920   3.186   5.520 -2.6827  0.0752  0.6833
   22MOL   H30523867   6.906   3.013   5.517  1.0451 -0.6893 -0.1468
   22MOL   H30623868   6.778   3.156   5.681  0.2842 -0.4805  1.6503
   22MOL   H30723869   6.906   3.148   5.799 -1.4235 -0.9550  1.1691
   22MOL   H30823870   6.769   2.918   5.674  0.0271  0.0431 -0.9105
   22MOL   H30923871   6.910   2.893   5.776  0.6531  2.0067 -0.8424
   22MOL   H31023872   6.642   3.032   5.841 -0.2382  0.3948  1.5170
   22MOL   H31123873   6.780   3.029   5.953  2.2068 -0.1464 -1.3705
   22MOL   H31223874   6.625   2.775   5.883 -1.8134  1.1535  0.8058
   22MOL   H31323875   6.770   2.787   5.969  1.0454  1.5237  0.8672
   22MOL   H31423876   6.584   2.772   6.122  1.3258 -0.2977 -1.2632
   22MOL   H31523877   6.641   2.930   6.147  1.5215 -1.2394  0.3473
   22MOL   H31623878   6.397   2.821   5.995 -0.2095  0.8042 -1.6158
   22MOL   H31723879   6.450   2.972   5.948 -0.1662  0.0169 -1.2215
   22MOL   H31823880   6.438   3.033   6.221  0.4692 -1.9338  0.8415
   22MOL   H31923881   6.367   2.877   6.224  1.1180 -0.3931  0.2117
   22MOL   H32023882   6.196   3.078   6.210 -2.2205 -1.0782  0.0312
   22MOL   H32123883   6.248   3.101   6.049 -3.2088 -0.0953 -0.1339
   22MOL   H32223884   6.049   2.991   6.039 -1.8542 -2.8367 -1.9416
   22MOL   H32323885   6.152   2.876   5.980 -1.4722  3.7811 -2.5540
   22MOL   H32423886   6.038   2.973   6.310  1.4570  0.3819  1.0366
   22MOL   H32523887   5.931   2.705   6.379 -0.6401  0.6547 -0.2478
   22MOL   H32623888   5.869   2.834   6.434 -0.3003 -2.1178  0.3301
   22MOL   H32723889   6.109   2.896   6.550 -1.0271 -0.1051  1.6815
   22MOL   H32823890   6.138   2.728   6.521 -0.7398 -0.8575  1.7419
   22MOL   H32923891   5.916   2.846   6.689 -0.5572 -0.7454  0.0115
   22MOL   H33023892   6.063   2.811   6.751  0.1408  1.9232 -2.0889
   22MOL   H33123893   5.877   2.592   6.649 -0.1129  0.1863  1.3391
   22MOL   H33223894   6.043   2.565   6.684  0.3058  0.3845  0.5078
   22MOL   H33323895   5.813   2.662   6.874 -0.3776  1.0612 -0.9869
   22MOL   H33423896   5.971   2.653   6.927 -1.1171 -0.8319  1.3857
   22MOL   H33523897   5.860   2.452   6.983  0.8639 -0.4068  0.2294
   22MOL   H33623898   5.844   2.404   6.811 -0.6763  0.4318  0.8242
   22MOL   H33723899   6.119   2.471   6.890 -0.7282  1.6893  0.9202
   22MOL   C33823900   6.087   2.280   6.888  1.3304 -0.0909  0.4104
   22MOL   O33923901   6.013   2.181   6.882 -0.0055  0.0699  0.1651
   22MOL   C34023902   6.238   2.252   6.906 -0.5772 -0.8733 -0.4397
   22MOL   C34123903   6.280   2.154   6.801  0.6224 -0.1647 -0.1954
   22MOL   C34223904   6.426   2.161   6.748 -0.6650 -0.0510 -0.3488
   22MOL   C34323905   6.467   2.041   6.657  0.7667  0.9255 -0.3894
   22MOL   C34423906   6.557   2.090   6.543  0.2156  0.0712  0.2003
   22MOL   C34523907   6.543   2.004   6.415  0.2847 -0.0821 -0.1067
   22MOL   C34623908   6.641   2.038   6.305 -0.5465 -0.5055  0.1075
   22MOL   C34723909   6.614   1.952   6.184  0.6501 -0.9158 -0.2249
   22MOL   C34823910   6.647   1.807   6.211 -0.5790 -0.0997  0.3206
   22MOL   C34923911   6.800   1.782   6.257 -0.2080 -0.2105 -0.7215
   22MOL   C35023912   6.859   1.638   6.214  0.2061 -0.6868  0.9887
   22MOL   O35123913   6.786   1.537   6.208 -0.1859  0.0262  0.4968
   22MOL   N35223914   6.989   1.635   6.179 -0.3684  0.5135  0.5679
   22MOL   C35323915   7.073   1.518   6.140 -0.4817 -0.1586  0.1549
   22MOL   C35423916   7.227   1.539   6.143  0.0559  0.3570 -0.0540
   22MOL   C35523917   7.269   1.647   6.039 -0.3770  0.5393 -0.2121
   22MOL   C35623918   7.425   1.657   6.025  0.7448 -0.2217  0.5494
   22MOL   C35723919   7.494   1.532   5.975  0.8138  0.8527 -0.5506
   22MOL   C35823920   7.634   1.556   5.931 -0.0882  0.5978 -0.1731
   22MOL   N35923921   0.008   1.431   5.881 -0.6462  0.2907 -0.3092
   22MOL   H36023922   6.241   2.191   6.997 -3.7536 -0.4865 -0.0062
   22MOL   H36123923   6.303   2.339   6.910 -1.1505 -0.5026  1.9461
   22MOL   H36223924   6.253   2.054   6.836 -1.2793  0.4277  0.0938
   22MOL   H36323925   6.221   2.166   6.710 -3.3019 -3.3043  1.7755
   22MOL   H36423926   6.488   2.145   6.837  2.1719 -1.0662 -2.4431
   22MOL   H36523927   6.456   2.265   6.733  0.9038 -0.5593 -0.7788
   22MOL   H36623928   6.519   1.965   6.716 -0.1113  0.2961 -0.4147
   22MOL   H36723929   6.378   2.014   6.600 -0.3519  2.1127  0.7657
   22MOL   H36823930   6.536   2.194   6.519 -0.3829 -0.7024 -2.8316
   22MOL   H36923931   6.658   2.087   6.584  0.0295  0.2692  0.6737
   22MOL   H37023932   6.541   1.899   6.445  1.5414  0.8276  3.3791
   22MOL   H37123933   6.444   2.038   6.385  0.2114  0.4176  0.7048
   22MOL   H37223934   6.628   2.139   6.267 -1.2172 -0.8093 -0.4794
   22MOL   H37323935   6.739   2.026   6.351  0.4066 -0.3522 -1.8836
   22MOL   H37423936   6.513   1.959   6.145  0.8008  1.3200 -0.2555
   22MOL   H37523937   6.679   1.974   6.100  1.5426 -3.5036 -0.2615
   22MOL   H37623938   6.628   1.739   6.128  2.7242 -2.3126  1.2734
   22MOL   H37723939   6.581   1.769   6.289 -0.4295 -1.2664 -0.1092
   22MOL   H37823940   6.870   1.862   6.233 -0.3127 -0.3233 -1.4124
   22MOL   H37923941   6.807   1.784   6.366  0.1128  0.2496 -0.7499
   22MOL   H38023942   7.032   1.726   6.177  1.4624 -0.3310  0.3962
   22MOL   H38123943   7.036   1.489   6.041 -2.3177  0.8153  0.5203
   22MOL   H38223944   7.046   1.436   6.206  0.8158  0.5550  1.5920
   22MOL   H38323945   7.270   1.445   6.107  1.1289  0.7653  0.1669
   22MOL   H38423946   7.264   1.562   6.242 -1.2818  1.5608  0.1789
   22MOL   H38523947   7.223   1.631   5.941  0.6307 -1.0526 -0.4518
   22MOL   H38623948   7.222   1.744   6.052  0.5864  0.8359  1.0944
   22MOL   H38723949   7.432   1.729   5.943  1.0989 -0.8369  0.0310
   22MOL   H38823950   7.459   1.700   6.119  0.1300  0.4927  0.4487
   22MOL   H38923951   7.426   1.496   5.897 -0.2031  2.0020 -0.2132
   22MOL   H39023952   7.492   1.456   6.054 -0.7834  0.9920 -0.4432
   22MOL   H39123953   7.638   1.632   5.853  1.7135 -0.7607 -1.4789
   22MOL   H39223954   0.005   1.586   6.015  1.6975 -1.0273 -0.8751
   22MOL   H39323955   0.016   1.418   5.781  1.0174  3.0920 -0.5891
   22MOL   C39423956   0.057   1.325   5.949  0.4840  0.0296  0.5538
   22MOL   O39523957   0.060   1.318   6.070 -0.2835  0.3229 -0.5035
   22MOL   C39623958   0.106   1.208   5.865 -0.4043  0.0346  0.0909
   22MOL   C39723959   0.135   1.083   5.954  0.8660  0.3957 -0.2547
   22MOL   C39823960   0.202   0.972   5.885 -1.0981  0.5343 -0.1805
   22MOL   C39923961   0.237   0.864   5.985  0.0911  0.0083 -0.2718
   22MOL   C40023962   0.322   0.744   5.924 -0.0690 -0.1617 -0.2274
   22MOL   C40123963   0.367   0.645   6.037 -0.1632  0.2583 -0.0777
   22MOL   C40223964   0.470   0.546   5.991 -0.6915  0.0212  0.5435
   22MOL   C40323965   0.476   0.437   6.098 -0.6059  0.2509  0.9842
   22MOL   C40423966   0.375   0.331   6.065 -0.3379 -0.7380 -0.2594
   22MOL   C40523967   0.352   0.213   6.161 -0.2398 -1.1924 -0.2404
   22MOL   C40623968   0.308   0.253   6.301  0.4184 -0.2835 -0.8059
   22MOL   O40723969   0.234   0.346   6.326 -0.1538  0.0485 -0.4198
   22MOL   N40823970   0.359   0.177   6.398 -0.4167  0.5996 -0.4795
   22MOL   C40923971   0.318   0.184   6.538  0.0687  0.2405  0.6136
   22MOL   C41023972   0.399   0.084   6.622 -0.5464  0.9193 -0.6760
   22MOL   C41123973   0.362   0.086   6.773  0.2120  0.8350 -0.1806
   22MOL   C41223974   0.449   7.675   6.848  0.4795  0.8708  0.1402
   22MOL   C41323975   0.414   7.689   6.997 -0.8925  0.1162  0.5441
   22MOL   C41423976   0.484   0.108   7.083  0.5496 -0.2721 -0.1819
   22MOL   N41523977   0.435   0.120   7.225 -0.2085 -1.2409 -0.2466
   22MOL   H41623978   0.204   1.227   5.819 -1.0478  0.9448 -0.9345
   22MOL   H41723979   0.026   1.181   5.796 -0.1366 -0.3913 -0.0512
   22MOL   H41823980   0.049   1.059   6.017  0.5135  0.7057 -0.6170
   22MOL   H41923981   0.201   1.118   6.034 -0.0045  1.1834  0.1274
   22MOL   H42023982   0.290   1.012   5.833 -2.5274  2.0957 -1.4581
   22MOL   H42123983   0.133   0.934   5.810  0.0450  0.3061 -1.1426
   22MOL   H42223984   0.145   0.828   6.031  0.2649  0.3708  0.3745
   22MOL   H42323985   0.297   0.898   6.069 -0.7961 -0.6319  0.6298
   22MOL   H42423986   0.269   0.697   5.841  0.9306 -1.0380 -0.3776
   22MOL   H42523987   0.411   0.792   5.883  0.4086 -0.2461  0.6943
   22MOL   H42623988   0.407   0.698   6.123 -1.1603 -0.4454  0.8228
   22MOL   H42723989   0.284   0.596   6.088  1.2384 -1.4901  0.5806
   22MOL   H42823990   0.434   0.520   5.891 -2.1359  1.0573  0.7896
   22MOL   H42923991   0.564   0.596   5.969 -0.0549 -1.5749 -0.5280
   22MOL   H43023992   0.574   0.391   6.087 -1.0422 -0.6432  0.8099
   22MOL   H43123993   0.482   0.474   6.200  2.5222 -1.6480  1.5445
   22MOL   H43223994   0.383   0.306   5.959 -1.3210  0.3404 -0.5959
   22MOL   H43323995   0.274   0.372   6.054 -0.3461 -0.2421  1.4777
   22MOL   H43423996   0.269   0.156   6.119 -1.1883  0.1565 -0.2069
   22MOL   H43523997   0.432   0.139   6.169  0.5647 -0.2840  0.3060
   22MOL   H43623998   0.431   0.111   6.369 -0.1340  0.4693  0.4997
   22MOL   H43723999   0.213   0.161   6.556 -0.2959  0.9846 -0.5077
   22MOL   H43824000   0.327   0.286   6.577 -0.8400  0.8351 -0.6902
   22MOL   H43924001   0.504   0.110   6.613 -0.5265  0.7066 -1.0755
   22MOL   H44024002   0.387   7.677   6.578  0.2856  0.8231 -0.6838
   22MOL   H44124003   0.373   0.190   6.804 -0.7520  0.5688  1.0937
   22MOL   H44224004   0.257   0.060   6.786  0.3884  1.1252  2.1134
   22MOL   H44324005   0.428   7.574   6.812  2.0950  1.2149 -1.8639
   22MOL   H44424006   0.554   0.011   6.836 -0.2015  2.1533 -3.3232
   22MOL   H44524007   0.306   0.006   7.008 -1.0137 -0.9537  0.2418
   22MOL   H44624008   0.442   7.594   7.041  0.7494  0.4869  0.3400
   22MOL   H44724009   0.592   0.090   7.077  0.9437  2.0430 -0.7175
   22MOL   H44824010   0.465   0.201   7.031 -0.3878 -0.6439 -0.4981
   22MOL   H44924011   0.512   0.108   7.289  0.1865  0.1107 -0.4601
   22MOL   C45024012   0.312   0.151   7.271 -0.4411  0.2760  0.0439
   22MOL   O45124013   0.213   0.156   7.203  0.1558  0.5034 -0.0126
   22MOL   C45224014   0.298   0.166   7.421 -0.3861  0.1383  0.0977
   22MOL   C45324015   0.223   0.055   7.488 -0.5829  0.0817  0.1014
   22MOL   C45424016   0.286   7.604   7.472  0.1578 -0.1583 -0.5217
   22MOL   C45524017   0.198   7.494   7.534 -0.4337  0.1285 -0.0541
   22MOL   C45624018   0.246   7.353   7.481 -0.4873 -0.1107  0.2488
   22MOL   C45724019   0.380   7.295   7.541  0.0724 -0.8388 -0.0005
   22MOL   C45824020   0.362   7.256   7.682 -0.2826  0.1995 -0.3815
   22MOL   C45924021   0.486   7.200   0.057 -0.5784 -0.5505 -0.2223
   22MOL   C46024022   0.596   7.301   0.077 -0.6050 -0.3437  0.2531
   22MOL   C46124023   0.730   7.228   0.097 -0.3223 -0.5583 -0.5259
   22MOL   C46224024   0.802   7.180   7.669 -0.2496  0.6908 -0.4172
   22MOL   O46324025   0.793   7.243   7.565 -0.4391 -0.1208 -0.1485
   22MOL   N46424026   0.855   7.052   7.670 -0.0681  0.0653  0.4891
   22MOL   C46524027   0.898   6.972   7.554 -0.6530 -0.2068  0.5131
   22MOL   C46624028   0.820   6.844   7.569 -0.5081  0.5521  0.2773
   22MOL   C46724029   0.862   6.748   7.459  0.6338 -0.0533  0.5033
   22MOL   C46824030   0.805   6.610   7.491  0.7192 -0.5788  0.3319
   22MOL   C46924031   0.857   6.492   7.402 -0.4119 -0.6169  0.0365
   22MOL   C47024032   0.777   6.367   7.432 -1.0113  0.7954  0.2412
   22MOL   N47124033   0.839   6.238   7.402 -0.1155 -0.4973 -0.1979
   22MOL   H47224034   0.396   0.179   7.468 -1.0074  1.2522  1.0913
   22MOL   H47324035   0.240   0.253   7.451  0.3408  0.0176  1.9104
   22MOL   H47424036   0.128   0.049   7.434  0.2392  0.0262 -1.3755
   22MOL   H47524037   0.216   0.077   7.594 -0.6741  0.2531  0.0589
   22MOL   H47624038   0.388   7.596   7.510 -0.1321 -0.6582  0.1565
   22MOL   H47724039   0.300   7.583   7.366  2.4564  1.0348 -0.4745
   22MOL   H47824040   0.091   7.498   7.517 -0.8924  2.8477  3.0144
   22MOL   H47924041   0.197   7.504   7.642  1.3912  3.1951 -0.2595
   22MOL   H48024042   0.239   7.353   7.373 -3.6928 -0.6269  0.4055
   22MOL   H48124043   0.163   7.285   7.505  0.6227 -0.9021  2.0038
   22MOL   H48224044   0.453   7.373   7.520 -1.1745 -0.0712 -1.7271
   22MOL   H48324045   0.413   7.201   7.497 -1.1019 -2.3527  2.2781
   22MOL   H48424046   0.332   7.342   0.049 -0.7749  0.7532 -1.4215
   22MOL   H48524047   0.285   7.180   7.688  0.6599 -0.7233  0.1776
   22MOL   H48624048   0.461   7.143   0.146 -2.0273  1.4032  0.6369
   22MOL   H48724049   0.523   7.120   7.684  1.8656  0.3375  0.0429
   22MOL   H48824050   0.573   7.365   0.162  0.3472  0.1996  0.1026
   22MOL   H48924051   0.603   7.366   7.682  1.1817 -0.4180  0.3206
   22MOL   H49024052   0.800   7.298   0.142 -1.8191  0.7587 -0.1608
   22MOL   H49124053   0.722   7.141   0.162 -0.0166  1.1069  1.7811
   22MOL   H49224054   0.845   7.000   0.064  1.9944  0.7841  1.1953
   22MOL   H49324055   1.004   6.956   7.536 -0.3034 -0.7135  2.7902
   22MOL   H49424056   0.867   7.023   7.464 -1.0395  0.1407  0.8410
   22MOL   H49524057   0.843   6.800   7.666  1.6519  2.4624  0.6694
   22MOL   H49624058   0.714   6.861   7.553 -0.6674 -0.9177 -0.3493
   22MOL   H49724059   0.969   6.732   7.453  0.3797 -0.6963 -3.6932
   22MOL   H49824060   0.829   6.784   7.362 -0.4270 -4.8373 -1.0177
   22MOL   H49924061   0.697   6.621   7.484  0.5695 -2.6446 -0.9888
   22MOL   H50024062   0.826   6.589   7.596 -1.1475 -0.3650  0.7577
   22MOL   H50124063   0.842   6.517   7.297  1.3031  0.1567 -0.0504
   22MOL   H50224064   0.965   6.478   7.410 -0.0094  1.4270 -1.2553
   22MOL   H50324065   0.748   6.369   7.537  2.4644 -1.0756  1.3346
   22MOL   H50424066   0.690   6.372   7.367  0.2083  3.6233 -1.2466
   22MOL   H50524067   0.898   6.232   7.320 -0.8725  0.3134 -0.8044
   22MOL   C50624068   0.847   6.133   7.489  0.0110 -0.1040  0.6668
   22MOL   O50724069   0.798   6.141   7.599  0.5054  0.1355  0.8064
   22MOL   C50824070   0.912   6.005   7.436  0.0749 -0.1384  0.7564
   22MOL   C50924071   0.840   5.878   7.468 -0.1180 -0.4107  0.5468
   22MOL   C51024072   0.691   5.867   7.437  0.7162  0.1666  0.4122
   22MOL   C51124073   0.645   5.715   7.454  0.5662 -0.1898 -0.0338
   22MOL   C51224074   0.537   5.666   7.351 -0.1127 -0.3941  0.0179
   22MOL   C51324075   0.406   5.639   7.416  0.5902 -0.0840  0.0863
   22MOL   C51424076   0.335   5.774   7.451 -0.4744 -0.9099  0.3903
   22MOL   C51524077   0.188   5.749   7.493 -0.4368 -0.6346 -0.0100
   22MOL   C51624078   0.188   5.667   7.629 -0.4038 -0.2609 -0.5774
   22MOL   C51724079   0.274   5.736   0.050 -0.0226 -0.3631 -0.7032
   22MOL   C51824080   0.261   5.661   0.183 -0.3758  0.2501  0.3801
   22MOL   O51924081   0.221   5.543   0.188 -0.4064  0.2322 -0.1168
   22MOL   N52024082   0.303   5.727   0.287  0.1917  0.2282 -0.6848
   22MOL   C52124083   0.334   5.670   0.420 -0.0094  0.0911 -0.0118
   22MOL   C52224084   0.485   5.643   0.431  0.0847 -0.2454 -0.1080
   22MOL   C52324085   0.562   5.540   0.345  0.3256  0.1196 -0.3539
   22MOL   C52424086   0.495   5.401   0.360  0.1403 -0.7651  0.8679
   22MOL   C52524087   0.584   5.292   0.292 -0.3355 -0.5870  0.8890
   22MOL   C52624088   0.584   5.304   0.135 -0.1448 -0.1231 -0.2350
   22MOL   N52724089   0.456   5.320   0.074 -0.4253  0.3749  0.5438
   22MOL   H52824090   1.017   6.004   7.467  1.1077 -1.6764 -2.6293
   22MOL   H52924091   0.909   5.998   7.328 -0.5515 -2.2307  0.8920
   22MOL   H53024092   0.859   5.840   7.569  0.2259  0.3609  0.7854
   22MOL   H53124093   0.879   5.804   7.399  0.6882  0.7013 -0.2114
   22MOL   H53224094   0.671   5.893   7.333  0.1226 -0.6379  0.3217
   22MOL   H53324095   0.637   5.933   7.504 -1.0271  0.0226 -0.7887
   22MOL   H53424096   0.728   5.646   7.440  1.3798  1.2709 -2.7662
   22MOL   H53524097   0.602   5.707   7.554  1.3975  2.3314  0.5583
   22MOL   H53624098   0.518   5.740   7.273 -2.8364 -1.8725 -0.7808
   22MOL   H53724099   0.573   5.577   7.299 -0.3746  1.3808 -3.3349
   22MOL   H53824100   0.344   5.587   7.343 -0.4907  1.5650 -0.2017
   22MOL   H53924101   0.418   5.566   7.496  0.5361 -1.3723 -1.0639
   22MOL   H54024102   0.388   5.830   7.527  3.3076 -0.7994 -2.2046
   22MOL   H54124103   0.325   5.850   7.374 -1.5965 -1.2166  0.2115
   22MOL   H54224104   0.134   5.844   7.497  0.5249 -0.1031  0.4800
   22MOL   H54324105   0.127   5.683   7.431 -2.7704  2.0898 -0.7146
   22MOL   H54424106   0.210   5.564   7.601  1.4259  0.1986 -0.9285
   22MOL   H54524107   0.082   5.672   7.652  0.3111 -0.0391  3.0556
   22MOL   H54624108   0.381   5.744   0.029  0.0130 -0.7393 -0.6695
   22MOL   H54724109   0.228   5.832   0.073 -0.4695 -0.6778 -0.2672
   22MOL   H54824110   0.338   5.820   0.270 -0.7419  0.9288  1.1451
   22MOL   H54924111   0.263   5.591   0.447 -1.4973  1.2137 -0.5741
   22MOL   H55024112   0.301   5.742   0.495 -0.5921 -0.0130 -0.1606
   22MOL   H55124113   0.514   5.617   0.533 -0.0201  1.4873  0.3724
   22MOL   H55224114   0.546   5.731   0.410 -0.5887 -0.1841 -1.8273
   22MOL   H55324115   0.670   5.532   0.358  0.1253  0.7535  1.8418
   22MOL   H55424116   0.541   5.560   0.240 -0.8161  0.8909  0.0082
   22MOL   H55524117   0.402   5.410   0.305  0.9706  2.0209 -0.1316
   22MOL   H55624118   0.471   5.365   0.460  0.7734 -2.9613  0.2781
   22MOL   H55724119   0.689   5.299   0.320 -0.1932 -0.6916  0.3931
   22MOL   H55824120   0.549   5.194   0.323 -0.7011 -1.0174 -0.8185
   22MOL   H55924121   0.659   5.377   0.106 -0.0961 -0.1022 -0.0579
   22MOL   H56024122   0.620   5.206   0.105  1.0284  0.2284  0.0202
   22MOL   H56124123   0.384   5.361   0.131  0.3049  0.8129  1.1537
   22MOL   C56224124   0.426   5.280   7.645  0.7968  0.1733 -0.0113
   22MOL   O56324125   0.511   5.228   7.572 -0.3676 -0.4166 -0.1755
   22MOL   C56424126   0.288   5.304   7.593 -0.8668  0.3494  0.3351
   22MOL   C56524127   0.217   5.177   7.548  0.1452  0.2192 -0.3585
   22MOL   C56624128   0.076   5.209   7.504 -0.8784 -0.1874 -0.4739
   22MOL   C56724129   0.057   5.341   7.422  0.0582 -0.6156 -0.0437
   22MOL   C56824130   7.615   5.356   7.355  0.3746  0.1149 -0.1581
   22MOL   C56924131   7.592   5.490   7.293  0.5323  0.7779 -0.7255
   22MOL   C57024132   7.467   5.497   7.205  0.4945  0.4318 -0.6102
   22MOL   C57124133   7.449   5.637   7.142 -0.4742  0.9862 -0.3966
   22MOL   C57224134   7.323   5.663   7.064 -0.3552  0.6396  0.0045
   22MOL   C57324135   7.332   5.794   6.988 -0.0508 -1.0280 -0.3800
   22MOL   C57424136   7.399   5.778   6.850  0.4268  0.0538  0.4642
   22MOL   O57524137   7.340   5.717   6.759 -0.1538  0.2964 -0.2565
   22MOL   N57624138   7.529   5.824   6.842  0.0257  0.8229  0.0111
   22MOL   C57724139   7.588   5.841   6.712  0.5269  0.1450 -0.0623
   22MOL   C57824140   0.008   5.727   6.689  0.3043  0.0452 -0.1635
   22MOL   C57924141   0.080   5.705   6.551 -0.6146  0.2819 -0.0358
   22MOL   C58024142   0.180   5.591   6.562 -0.5919 -0.1528 -0.0969
   22MOL   C58124143   0.317   5.622   6.627  0.5011 -0.2042 -0.1916
   22MOL   C58224144   0.397   5.512   6.691 -0.1698  0.4674  0.1799
   22MOL   N58324145   0.502   5.572   6.777 -0.8956 -0.1802 -0.0610
   22MOL   H58424146   0.214   5.353   7.656  0.1566 -0.2664  2.0555
   22MOL   H58524147   0.299   5.372   7.509  0.1127 -2.2308 -1.6961
   22MOL   H58624148   0.261   5.126   7.462 -3.4266 -1.4940 -1.2319
   22MOL   H58724149   0.216   5.112   7.636  1.1507  1.6056  0.7102
   22MOL   H58824150   0.004   5.217   7.585 -0.8960  2.8081 -0.7051
   22MOL   H58924151   0.037   5.121   7.454 -0.6329  0.4850 -1.8802
   22MOL   H59024152   0.067   5.423   7.493 -0.8632  0.1755 -0.8212
   22MOL   H59124153   0.137   5.340   7.347  1.3134  0.2109  1.2522
   22MOL   H59224154   7.610   5.285   7.273 -1.7765  1.3401 -1.1184
   22MOL   H59324155   7.535   5.326   7.422 -0.7105 -0.9561 -1.8797
   22MOL   H59424156   7.585   5.567   7.370  0.5741  1.2937 -1.2360
   22MOL   H59524157   7.681   5.515   7.234  1.4807 -2.3741 -0.7577
   22MOL   H59624158   7.478   5.429   7.120 -1.1513 -0.5400 -0.0706
   22MOL   H59724159   7.383   5.469   7.268  1.0478 -1.9458 -0.8913
   22MOL   H59824160   7.537   5.633   7.079 -1.3968 -0.7755 -1.6159
   22MOL   H59924161   7.467   5.715   7.216 -1.1284 -1.6288  2.6015
   22MOL   H60024162   7.237   5.666   7.131  1.5632  0.9724  2.5463
   22MOL   H60124163   7.307   5.588   6.987 -0.4944 -0.2280  0.8750
   22MOL   H60224164   7.234   5.825   6.951  0.0906  0.5036  0.4839
   22MOL   H60324165   7.362   5.886   7.038  0.4432 -0.2725 -2.0113
   22MOL   H60424166   7.572   5.862   6.925  0.8150 -0.0352  0.0062
   22MOL   H60524167   7.626   5.943   6.708  1.6767 -0.2107  1.4801
   22MOL   H60624168   7.512   5.827   6.635  1.5271 -0.6251 -0.9397
   22MOL   H60724169   7.664   5.633   6.731  0.1486  0.7475  1.3179
   22MOL   H60824170   0.085   5.764   6.756 -0.0684  1.6928 -0.6154
   22MOL   H60924171   0.120   5.802   6.519 -0.0713  0.0217 -0.1394
   22MOL   H61024172   0.005   5.675   6.478 -0.8346  0.8431 -0.0454
   22MOL   H61124173   0.145   5.503   6.615 -2.1493  0.5734  0.1085
   22MOL   H61224174   0.203   5.551   6.463 -0.6924  1.2712 -0.7026
   22MOL   H61324175   0.288   5.698   6.699 -0.6507  0.2068 -1.0716
   22MOL   H61424176   0.372   5.675   6.550  1.0146 -1.8491 -0.9784
   22MOL   H61524177   0.345   5.444   6.757 -1.4143  1.0182 -0.2165
   22MOL   H61624178   0.452   5.455   6.616 -2.9500 -1.2689 -0.6136
   22MOL   H61724179   0.472   5.662   6.812  1.9485  0.3465  1.1939
   22MOL   C61824180   0.606   5.509   6.832  0.1960 -0.4598 -0.3331
   22MOL   O61924181   0.634   5.391   6.815  0.7325  0.2560 -0.3551
   22MOL   C62024182   0.683   5.583   6.944 -0.5762 -0.2357  0.7720
   22MOL   C62124183   0.840   5.564   6.934 -0.1205 -0.1518  0.6767
   22MOL   C62224184   0.908   5.642   7.050  0.3959  0.2716 -0.0358
   22MOL   C62324185   1.060   5.605   7.051  0.1962 -0.1618  0.4085
   22MOL   C62424186   1.150   5.689   7.150  0.5325 -0.0929 -0.0162
   22MOL   C62524187   1.176   5.839   7.123 -0.8802  0.3999 -0.1408
   22MOL   C62624188   1.233   5.929   7.237 -0.3183 -0.0092  0.7497
   22MOL   C62724189   1.216   6.077   7.206  0.2816 -0.3772 -0.0589
   22MOL   C62824190   1.261   6.171   7.316 -0.0854 -0.4755  0.0459
   22MOL   C62924191   1.291   6.322   7.279  1.0744  0.0926  0.1790
   22MOL   C63024192   1.178   6.392   7.207 -0.9720 -0.0167 -0.6588
   22MOL   O63124193   1.065   6.344   7.194  0.0045  0.1040 -0.7735
   22MOL   N63224194   1.212   6.502   7.146  0.0215  0.6893 -0.4505
   22MOL   C63324195   1.129   6.575   7.049 -0.0216  0.1729  0.6788
   22MOL   C63424196   1.067   6.691   7.123 -0.4236 -0.5370 -0.2528
   22MOL   C63524197   1.026   6.801   7.019 -0.3968 -0.1476  0.1919
   22MOL   C63624198   0.938   6.911   7.082  0.1720  0.1944  0.2917
   22MOL   C63724199   1.015   6.999   7.181  0.1920  0.6527 -0.6090
   22MOL   C63824200   0.943   7.130   7.195 -0.2420 -0.2190 -0.1181
   22MOL   N63924201   0.988   7.204   7.314  0.6790  0.2264 -0.3322
   22MOL   H64024202   0.652   5.543   7.040 -0.2535 -0.4596  0.7811
   22MOL   H64124203   0.661   5.690   6.940  1.2598  0.1514  0.9000
   22MOL   H64224204   0.888   5.578   6.837  0.0799  1.1749  0.9615
   22MOL   H64324205   0.860   5.459   6.956 -0.4328 -0.0621  1.4239
   22MOL   H64424206   0.869   5.618   7.149  0.6331  2.1760  0.5499
   22MOL   H64524207   0.896   5.749   7.035 -1.6466  0.2609  1.3364
   22MOL   H64624208   1.059   5.499   7.076  0.2012 -0.9906 -2.8776
   22MOL   H64724209   1.104   5.606   6.952  2.3584 -3.7794  1.2312
   22MOL   H64824210   1.110   5.691   7.252  0.4198 -0.6709 -0.0466
   22MOL   H64924211   1.254   5.660   7.167  0.9535  2.5097  2.2720
   22MOL   H65024212   1.082   5.881   7.089 -0.9318 -0.6342 -1.2672
   22MOL   H65124213   1.247   5.831   7.041  0.9097 -2.0640  1.5851
   22MOL   H65224214   1.187   5.910   7.334  0.4565 -3.5877  0.4859
   22MOL   H65324215   1.337   5.903   7.258 -0.6355 -1.3931  0.6838
   22MOL   H65424216   1.268   6.116   7.119  2.2754 -2.1320  0.3041
   22MOL   H65524217   1.112   6.100   7.185  0.4621  1.5883  1.0598
   22MOL   H65624218   1.357   6.121   7.332 -0.5778 -1.8385 -1.0584
   22MOL   H65724219   1.200   6.173   7.406 -0.8536  0.2954 -0.4876
   22MOL   H65824220   1.316   6.380   7.367  1.7300 -2.4367  1.6947
   22MOL   H65924221   1.375   6.335   7.211  0.5584  1.0011 -0.3108
   22MOL   H66024222   1.306   6.533   7.167 -0.7628  0.8176  3.2310
   22MOL   H66124223   1.202   6.615   6.978 -2.3691  2.0103 -0.7428
   22MOL   H66224224   1.058   6.509   6.999  1.6647 -1.8144  0.8045
   22MOL   H66324225   1.145   6.735   7.184 -1.2882  1.1729 -0.3355
   22MOL   H66424226   0.983   6.662   7.185 -0.6895 -0.1201 -0.4194
   22MOL   H66524227   1.117   6.844   6.978  0.2126 -0.7962  0.8493
   22MOL   H66624228   0.973   6.762   6.932  2.1188  2.2125 -2.5284
   22MOL   H66724229   0.848   6.869   7.126 -0.4076  0.2372 -0.8434
   22MOL   H66824230   0.891   6.963   6.998 -1.2526  1.2537  1.7253
   22MOL   H66924231   1.020   6.968   7.285 -0.3159  1.4496 -0.3377
   22MOL   H67024232   1.120   7.019   7.156 -0.0192  2.6575  0.0036
   22MOL   H67124233   0.957   7.195   7.109  1.2450 -2.4108 -1.5651
   22MOL   H67224234   0.836   7.116   7.209  0.0238 -4.0982 -1.4069
   22MOL   H67324235   0.925   7.194   7.393 -1.4659  1.2762 -1.8482
   22MOL   C67424236   1.079   7.298   7.322  0.7048  0.5756 -0.2201
   22MOL   O67524237   1.151   7.330   7.232  0.1864  0.2180  0.3614
   22MOL   C67624238   1.087   7.365   7.458  0.0556 -0.3830  0.4147
   22MOL   C67724239   1.070   7.514   7.455 -0.1471 -0.0295  0.0934
   22MOL   C67824240   1.203   7.593   7.479  0.2250  1.3345  0.0194
   22MOL   C67924241   1.200   0.057   7.488  0.3429 -0.6958 -0.0328
   22MOL   C68024242   1.335   0.111   7.535  0.1821 -0.2322 -0.3405
   22MOL   C68124243   1.342   0.259   7.520 -0.3046  0.2021 -0.4646
   22MOL   C68224244   1.468   0.313   7.595 -0.4145  0.4638  0.3014
   22MOL   C68324245   1.590   0.321   7.503 -0.6456 -0.4460  0.1427
   22MOL   C68424246   1.689   0.422   7.567  0.6127  1.0079  0.4541
   22MOL   C68524247   1.654   0.571   7.564  0.5189  0.1728 -0.0408
   22MOL   C68624248   1.657   0.640   7.431  0.5480 -0.3396 -0.2533
   22MOL   O68724249   1.763   0.643   7.364  0.1633  0.1528  0.1660
   22MOL   N68824250   1.540   0.696   7.386 -0.6758 -0.2238 -0.3374
   22MOL   C68924251   1.512   0.741   7.254 -0.0538 -0.8589 -0.1894
   22MOL   C69024252   1.542   0.890   7.246  0.7389  0.7862 -0.3262
   22MOL   C69124253   1.509   0.960   7.112  0.1750  0.2198 -0.2714
   22MOL   C69224254   1.550   1.108   7.092 -0.1431  0.4029 -0.7379
   22MOL   C69324255   1.567   1.166   6.951 -0.7605  0.4214  0.1743
   22MOL   C69424256   1.567   1.322   6.938 -0.3909  0.6724 -0.0148
   22MOL   N69524257   1.702   1.376   6.949  0.4750  0.2429 -0.1583
   22MOL   H69624258   1.189   7.350   7.493  0.7705  0.5625 -1.2287
   22MOL   H69724259   1.031   7.318   7.539 -0.3643  1.3685  1.1615
   22MOL   H69824260   1.001   7.540   7.535 -2.8903 -1.2879 -1.7840
   22MOL   H69924261   1.024   7.543   7.360 -3.9196  0.2567  1.9116
   22MOL   H70024262   1.246   7.568   7.576 -0.5631 -3.6386 -0.7855
   22MOL   H70124263   1.283   7.561   7.413 -1.0956 -1.3694 -0.3219
   22MOL   H70224264   1.128   0.082   7.565 -0.1432 -2.1410 -0.0006
   22MOL   H70324265   1.156   0.115   7.407  1.3865  0.8630  0.4797
   22MOL   H70424266   1.422   0.068   7.484  0.9528 -0.3795  1.0605
   22MOL   H70524267   1.352   0.073   7.635  0.4649 -1.9447 -1.0194
   22MOL   H70624268   1.340   0.284   7.414 -1.5061  0.0653 -0.4748
   22MOL   H70724269   1.254   0.306   7.564  2.0898  1.8990  2.7955
   22MOL   H70824270   1.442   0.416   7.619  2.3621  1.2822 -0.0237
   22MOL   H70924271   1.487   0.261   7.689 -1.5654 -0.5623 -0.0255
   22MOL   H71024272   1.638   0.227   7.474 -1.4063 -0.3688 -1.4174
   22MOL   H71124273   1.560   0.361   7.406  0.3859 -0.7884 -0.3359
   22MOL   H71224274   1.783   0.420   7.512  1.1914  0.0382  1.4646
   22MOL   H71324275   1.716   0.393   7.669  0.4168 -2.4064 -0.4115
   22MOL   H71424276   1.558   0.589   7.613  0.1895 -0.1733 -0.5622
   22MOL   H71524277   1.725   0.620   7.631 -0.6818  0.9354  0.6769
   22MOL   H71624278   1.461   0.691   7.448  0.7252 -2.6080  1.3425
   22MOL   H71724279   1.572   0.693   7.177  0.1052 -0.0389 -0.5773
   22MOL   H71824280   1.408   0.720   7.227 -0.4615  1.4683 -0.4992
   22MOL   H71924281   1.650   0.900   7.260  0.7863 -1.0820  0.7417
   22MOL   H72024282   1.488   0.944   7.324  1.3386  0.4690  0.3174
   22MOL   H72124283   1.548   0.893   7.035  0.7035  3.2111 -2.7312
   22MOL   H72224284   1.401   0.944   7.099  0.0879  1.2238 -0.8504
   22MOL   H72324285   1.646   1.130   7.138  0.7433 -2.6458 -1.0616
   22MOL   H72424286   1.481   1.175   7.145 -0.3377 -0.8243  0.6184
   22MOL   H72524287   1.495   1.124   6.881 -0.0628  0.1548 -0.3899
   22MOL   H72624288   1.659   1.125   6.910 -0.6644  1.4497 -0.6762
   22MOL   H72724289   1.526   1.350   6.841  0.7143 -2.2890 -1.4051
   22MOL   H72824290   1.502   1.365   7.013 -0.3399  2.5856 -1.0194
   22MOL   H72924291   1.757   1.388   6.865 -0.8104 -0.3809 -1.0900
   22MOL   C73024292   1.758   1.412   7.065 -0.2793  0.1129  0.6492
   22MOL   O73124293   1.694   1.408   7.171  0.1658 -0.0031 -0.3475
   22MOL   C73224294   1.913   1.440   7.065  0.3185 -0.2718  0.2411
   22MOL   C73324295   1.966   1.510   7.191  0.0641  0.1093 -0.3283
   22MOL   C73424296   2.113   1.490   7.211 -0.5006  0.6146 -0.8219
   22MOL   C73524297   2.162   1.570   7.328  0.3298 -0.0864 -0.1658
   22MOL   C73624298   2.296   1.530   7.380 -0.0002  0.1306  0.7059
   22MOL   C73724299   2.314   1.601   7.517  0.7501  0.5444 -0.1931
   22MOL   C73824300   2.457   1.592   7.581  0.2173 -0.5898 -0.5842
   22MOL   C73924301   2.502   1.457   7.642 -0.2341 -0.1520 -0.1639
   22MOL   C74024302   2.636   1.449   0.027  0.0629 -0.3939  0.4990
   22MOL   C74124303   2.719   1.321   0.034 -0.8213  1.0526 -0.0246
   22MOL   C74224304   2.629   1.208   0.082  0.0249 -0.1515  0.4148
   22MOL   O74324305   2.593   1.127   7.691  0.0048 -0.0863 -0.1728
   22MOL   N74424306   2.592   1.200   0.210 -0.4885 -0.5873 -0.1504
   22MOL   C74524307   2.508   1.094   0.277 -0.0529 -0.0692  0.0598
   22MOL   C74624308   2.531   1.062   0.418 -0.2963  0.1086 -0.7528
   22MOL   C74724309   2.504   1.192   0.500 -0.3297  0.0517 -0.3753
   22MOL   C74824310   2.509   1.171   0.653 -0.0396  0.2013  0.7036
   22MOL   C74924311   2.481   1.307   0.725  0.5147 -0.4332 -0.4659
   22MOL   C75024312   2.482   1.284   0.878  0.6946 -0.4850  0.3824
   22MOL   N75124313   2.607   1.250   0.939 -0.4738  0.3404 -0.5090
   22MOL   H75224314   1.936   1.500   6.977  0.5120  1.1419  1.2309
   22MOL   H75324315   1.958   1.342   7.051  1.1670 -0.1350  1.8588
   22MOL   H75424316   1.916   1.461   7.274  1.2741 -2.0544 -0.8325
   22MOL   H75524317   1.932   1.614   7.189  1.0844  0.4602  0.2872
   22MOL   H75624318   2.166   1.518   7.120 -1.1890 -0.0724 -1.4412
   22MOL   H75724319   2.129   1.382   7.222 -0.3668  0.8276  1.3458
   22MOL   H75824320   2.099   1.562   7.417  3.3922 -1.7367  1.9595
   22MOL   H75924321   2.166   1.678   7.314  1.6819 -0.1397 -0.2727
   22MOL   H76024322   2.378   1.551   7.311  2.0538 -2.0203  2.4140
   22MOL   H76124323   2.309   1.423   7.395  0.0448 -0.2006 -1.5743
   22MOL   H76224324   2.297   1.706   7.492  2.2278  0.6211 -0.9543
   22MOL   H76324325   2.238   1.576   7.592  0.3668 -2.8530 -1.6274
   22MOL   H76424326   2.540   1.618   7.515 -1.8589 -2.0543 -3.9421
   22MOL   H76524327   2.475   1.663   7.661 -0.3434 -1.1692  0.0693
   22MOL   H76624328   2.425   1.419   0.017 -1.5882  1.0140 -1.0538
   22MOL   H76724329   2.506   1.390   7.556 -1.7898 -0.2323 -0.1860
   22MOL   H76824330   2.612   1.492   0.125 -0.0282 -2.2093  1.2971
   22MOL   H76924331   2.709   1.517   7.674  0.0306  0.0827  1.1640
   22MOL   H77024332   2.767   1.283   7.636 -1.2451  0.4380  0.0033
   22MOL   H77124333   2.802   1.335   0.103  0.2896 -1.6044 -0.7304
   22MOL   H77224334   2.631   1.270   0.272 -2.5732 -0.1305  0.6826
   22MOL   H77324335   2.508   1.002   0.219 -0.9074  1.4310 -2.4173
   22MOL   H77424336   2.406   1.127   0.259  0.6870  0.6679 -3.0145
   22MOL   H77524337   2.634   1.025   0.425  0.1354  1.1723 -1.2900
   22MOL   H77624338   2.465   0.981   0.446  2.2668 -1.8687 -0.3029
   22MOL   H77724339   2.404   1.229   0.476 -0.4642  0.0685  0.2042
   22MOL   H77824340   2.576   1.272   0.480 -1.7080  2.2522  2.9139
   22MOL   H77924341   2.427   1.100   0.666  0.5686 -0.5078  0.7180
   22MOL   H78024342   2.605   1.125   0.679  1.0100  1.8634 -0.0891
   22MOL   H78124343   2.386   1.349   0.691  0.0410 -0.1443  1.1213
   22MOL   H78224344   2.559   1.380   0.706 -1.6691  1.6884 -1.6599
   22MOL   H78324345   2.439   1.373   0.924 -0.7279  0.6353 -2.9457
   22MOL   H78424346   2.411   1.203   0.887 -1.4255  1.3083  0.2511
   22MOL   H78524347   2.635   1.155   0.919  0.5448  0.3170  0.9881
   22MOL   C78624348   2.683   1.325   1.017  0.3959  0.8753 -0.4385
   22MOL   O78724349   2.657   1.436   1.063 -0.1659 -0.0411 -0.0246
   22MOL   C78824350   2.808   1.248   1.076  0.6643  0.8306  0.0094
   22MOL   C78924351   2.901   1.320   1.172 -0.0231  0.3978  0.3565
   22MOL   C79024352   3.012   1.238   1.222  0.5308  0.3324 -0.3783
   22MOL   C79124353   3.100   1.157   1.116 -0.3196 -0.8138  0.6605
   22MOL   C79224354   3.163   1.239   1.002 -0.0008  0.4022  0.2181
   22MOL   C79324355   3.235   1.159   0.895  0.1895  0.3049  0.0594
   22MOL   C79424356   3.153   1.064   0.800 -0.4121 -0.0666  0.6487
   22MOL   C79524357   3.053   1.149   0.720  0.0155 -0.0978 -0.4564
   22MOL   C79624358   3.031   1.077   0.580 -0.5997 -0.4395 -0.3995
   22MOL   C79724359   2.935   1.146   0.488  0.5010  0.4175  0.0515
   22MOL   C79824360   2.987   1.283   0.440  0.3872  0.3926 -0.1798
   22MOL   O79924361   3.002   1.378   0.518 -0.2555  0.5826 -0.6613
   22MOL   N80024362   3.006   1.299   0.314 -0.1801  0.1766  0.2095
   22MOL   C80124363   3.048   1.425   0.255 -0.4254 -0.3503  0.1667
   22MOL   C80224364   2.956   1.552   0.277  0.1377  0.8378  0.1915
   22MOL   C80324365   3.002   1.669   0.195  0.2371  0.0012 -0.2480
   22MOL   C80424366   2.986   1.659   0.047  0.1007 -0.1081 -0.3425
   22MOL   C80524367   2.874   1.744   7.678 -0.4313  0.1382  0.3167
   22MOL   C80624368   2.875   1.731   7.527  0.2959 -0.0055  0.2496
   22MOL   N80724369   2.759   1.808   7.480  0.0934  0.4126  0.6544
   22MOL   H80824370   2.868   1.203   0.997  1.8677 -2.5979  2.7330
   22MOL   H80924371   2.759   1.166   1.130  2.6141 -1.3386 -1.4333
   22MOL   H81024372   2.940   1.410   1.124  2.6285 -0.4737  0.7725
   22MOL   H81124373   2.840   1.351   1.256 -2.8284 -2.5107 -0.4965
   22MOL   H81224374   2.964   1.161   1.283  0.3086  0.4014 -0.4628
   22MOL   H81324375   3.076   1.298   1.287  1.4567 -1.4790  0.4391
   22MOL   H81424376   3.185   1.114   1.168  2.1436  0.6122 -2.0572
   22MOL   H81524377   3.045   1.073   1.073  2.6587 -0.8515 -3.3737
   22MOL   H81624378   3.083   1.292   0.949  0.0095  1.5649  1.3377
   22MOL   H81724379   3.230   1.309   1.051 -0.4687  0.5584  0.6374
   22MOL   H81824380   3.305   1.223   0.841 -1.3417  1.0958 -1.0379
   22MOL   H81924381   3.308   1.094   0.942 -0.4096  0.3533  1.0755
   22MOL   H82024382   3.225   1.012   0.736  0.7622  2.3994 -0.0875
   22MOL   H82124383   3.110   0.984   0.861 -1.0198 -1.5244 -1.5937
   22MOL   H82224384   2.960   1.159   0.776  0.6336 -1.8109  0.9311
   22MOL   H82324385   3.083   1.253   0.711  0.9083  0.0207  3.2755
   22MOL   H82424386   3.000   0.975   0.603  1.2627 -1.0778 -0.6675
   22MOL   H82524387   3.117   1.065   0.515 -1.0383 -0.9907 -0.8831
   22MOL   H82624388   2.912   1.077   0.408  0.7093  1.3790 -0.8500
   22MOL   H82724389   2.846   1.159   0.549 -0.5001  0.3171 -1.3918
   22MOL   H82824390   2.986   1.219   0.256 -1.6272  0.2650  0.5835
   22MOL   H82924391   3.036   1.404   0.149  1.8206 -1.2354  0.0473
   22MOL   H83024392   3.152   1.445   0.281 -0.5979  0.5992  0.1345
   22MOL   H83124393   2.975   1.580   0.381  0.4356 -0.0761  0.3916
   22MOL   H83224394   2.855   1.517   0.256  0.2942  0.0707  0.6937
   22MOL   H83324395   2.937   1.750   0.229  0.1205 -0.4431  0.6043
   22MOL   H83424396   3.104   1.695   0.226  0.8899 -1.1871 -1.3776
   22MOL   H83524397   2.967   1.556   0.014 -1.2472  0.5042 -1.5372
   22MOL   H83624398   3.080   1.686   7.691  1.6856 -4.0184  0.3707
   22MOL   H83724399   2.870   1.850   0.011 -1.2243  0.3026 -0.4850
   22MOL   H83824400   2.780   1.708   0.029 -1.1661  0.2442 -1.2080
   22MOL   H83924401   2.866   1.630   7.487  3.9749 -0.8440  1.4490
   22MOL   H84024402   2.970   1.772   7.494  2.0504 -2.7343  1.7073
   22MOL   H84124403   2.691   1.849   7.541 -0.2320  0.9453 -0.0592
   22MOL   C84224404   2.716   1.803   7.351  0.0680 -0.6610 -1.0653
   22MOL   O84324405   2.773   1.746   7.259 -0.1895  0.1941  0.3384
   22MOL   C84424406   2.580   1.875   7.319  0.0528 -0.0325  0.1551
   22MOL   C84524407   2.533   1.899   7.171 -0.2299  0.2360 -0.1470
   22MOL   C84624408   2.443   1.788   7.110  0.2626 -0.3620 -0.2305
   22MOL   C84724409   2.397   1.828   6.966 -0.1085 -0.0383  0.0338
   22MOL   C84824410   2.287   1.731   6.917  0.0362  0.2105 -0.2363
   22MOL   C84924411   2.245   1.730   6.773  0.7385 -0.9053  0.4301
   22MOL   C85024412   2.156   1.619   6.718 -0.1932 -0.2254 -0.7762
   22MOL   C85124413   2.126   1.616   6.568  0.3818  0.7246  0.1778
   22MOL   C85224414   2.084   1.478   6.521 -0.0698  0.1598 -0.2711
   22MOL   C85324415   2.075   1.465   6.367  0.6026 -0.2588 -0.2275
   22MOL   C85424416   1.965   1.533   6.288 -0.1495 -0.5468 -0.1374
   22MOL   O85524417   1.856   1.563   6.338  0.0821  0.5030 -0.0520
   22MOL   N85624418   2.003   1.569   6.169 -0.1089  0.3451 -0.0956
   22MOL   C85724419   1.924   1.647   6.076  0.4453  0.0163 -0.2489
   22MOL   C85824420   2.026   1.698   5.974 -0.8666 -0.2056  0.4755
   22MOL   C85924421   1.971   1.806   5.883 -0.1595  0.2322 -0.9261
   22MOL   C86024422   2.082   1.883   5.812 -0.0439 -0.1081 -0.2430
   22MOL   C86124423   2.159   1.962   5.920  0.1260 -0.2675 -0.7319
   22MOL   C86224424   2.244   2.086   5.865  0.2708 -0.0199 -0.5931
   22MOL   N86324425   2.335   2.130   5.963 -0.2475  0.0913 -0.1743
   22MOL   H86424426   2.598   1.970   7.369  0.2966 -0.5561  1.0700
   22MOL   H86524427   2.494   1.850   7.382 -0.5365 -0.3185 -0.7524
   22MOL   H86624428   2.625   1.907   7.112 -1.0021  0.2981 -1.3429
   22MOL   H86724429   2.491   1.998   7.155 -0.6870 -0.0520 -0.7547
   22MOL   H86824430   2.489   1.689   7.113  1.2978  0.0723 -1.4635
   22MOL   H86924431   2.356   1.777   7.176  2.3734 -1.0367  2.5271
   22MOL   H87024432   2.480   1.844   6.897 -2.4838  3.5883 -2.1674
   22MOL   H87124433   2.360   1.930   6.977 -0.4713  0.0510 -1.8272
   22MOL   H87224434   2.304   1.626   6.944 -1.3739  0.8600  3.6200
   22MOL   H87324435   2.198   1.741   6.980  0.3988  2.9080 -0.0997
   22MOL   H87424436   2.198   1.827   6.755  0.8234 -0.3639  3.0097
   22MOL   H87524437   2.334   1.729   6.710 -0.6535  0.2545 -1.6090
   22MOL   H87624438   2.181   1.525   6.766  0.7053  1.3090  1.8934
   22MOL   H87724439   2.062   1.648   6.764 -0.1942 -3.8556  1.6982
   22MOL   H87824440   2.221   1.631   6.516 -0.1101  0.9611 -0.6573
   22MOL   H87924441   2.055   1.687   6.527 -1.0047 -0.4596  0.4784
   22MOL   H88024442   1.984   1.454   6.557 -0.7472 -0.3540 -2.4062
   22MOL   H88124443   2.150   1.405   6.567 -2.9593 -0.7739  2.6109
   22MOL   H88224444   2.174   1.478   6.323 -0.2243  1.9225 -1.5393
   22MOL   H88324445   2.046   1.361   6.350 -2.9990  0.7812 -0.8989
   22MOL   H88424446   2.086   1.520   6.141  0.6308  0.9881  0.9195
   22MOL   H88524447   1.872   1.731   6.124  1.5796  0.3564  0.3980
   22MOL   H88624448   1.842   1.585   6.041  1.8194 -1.6733 -0.5080
   22MOL   H88724449   2.054   1.613   5.912 -3.8715 -0.0828 -1.1556
   22MOL   H88824450   2.108   1.734   6.036 -0.7904  1.8853 -0.8035
   22MOL   H88924451   1.900   1.871   5.933  0.2475 -0.2975  0.3601
   22MOL   H89024452   1.917   1.756   5.803 -2.1910 -1.0552  1.1821
   22MOL   H89124453   2.036   1.948   5.738  0.3722 -3.3605 -3.4781
   22MOL   H89224454   2.150   1.822   5.753  1.7612  0.2417  1.4366
   22MOL   H89324455   2.091   1.996   5.998  0.5024 -0.3379 -0.3681
   22MOL   H89424456   2.229   1.896   5.971  0.9509  1.2409  0.1548
   22MOL   H89524457   2.294   2.065   5.771  0.8817 -1.4481  0.0230
   22MOL   H89624458   2.182   2.171   5.840  1.1596  0.5572 -0.8660
   22MOL   H89724459   2.309   2.202   6.029  0.9456 -0.9930  1.5092
   22MOL   C89824460   2.463   2.107   5.948 -0.3024  0.1579  0.2696
   22MOL   O89924461   2.506   2.014   5.873 -0.5308 -0.4395 -0.0932
   22MOL   C90024462   2.552   2.173   6.058  0.3597 -0.6845 -0.4384
   22MOL   C90124463   2.699   2.136   6.053 -0.4601 -0.2276  0.5706
   22MOL   C90224464   2.781   2.226   5.955 -0.5997  0.5637  0.3086
   22MOL   C90324465   2.931   2.196   5.932  0.1745 -0.2355 -0.6706
   22MOL   C90424466   2.996   2.278   5.817  0.8776 -0.3823  0.6539
   22MOL   C90524467   3.149   2.260   5.799 -0.3233 -0.1884 -0.0922
   22MOL   C90624468   3.217   2.361   5.699 -0.6295  0.5173 -0.0469
   22MOL   C90724469   3.364   2.314   5.665 -0.1284 -0.5324 -0.7209
   22MOL   C90824470   3.443   2.264   5.790 -0.3993 -1.1990 -0.6729
   22MOL   C90924471   3.591   2.250   5.755  0.6128  0.2829  0.2474
   22MOL   C91024472   3.674   2.208   5.877 -0.1269  0.1616  0.0222
   22MOL   O91124473   3.721   2.291   5.960 -0.1451  0.2553  0.1428
   22MOL   N91224474   3.681   2.074   5.885 -0.5112 -0.3825 -0.2147
   22MOL   C91324475   3.767   2.010   5.976 -0.7935 -0.2375 -0.2467
   22MOL   C91424476   3.761   1.857   5.959 -0.5014  0.0536 -0.0280
   22MOL   C91524477   3.639   1.798   6.026 -0.2568 -0.0513 -0.5575
   22MOL   C91624478   3.601   1.658   5.987 -0.8918  0.4498  0.0711
   22MOL   C91724479   3.491   1.590   6.065 -0.3224 -0.0178  0.2404
   22MOL   C91824480   3.526   1.572   6.207 -0.0776  0.1112 -0.1509
   22MOL   N91924481   3.436   1.486   6.286  0.7293  0.0416  0.2872
   22MOL   H92024482   2.528   2.277   6.080  0.1387 -0.9179  0.4336
   22MOL   H92124483   2.514   2.128   6.150  0.8351 -1.2716 -0.5233
   22MOL   H92224484   2.722   2.032   6.032  0.9840  0.3103 -0.5557
   22MOL   H92324485   2.746   2.175   6.144  2.3173  2.6169 -1.9762
   22MOL   H92424486   2.769   2.324   6.003 -0.3491  1.3890 -1.2659
   22MOL   H92524487   2.733   2.229   5.857  1.0995 -1.6183 -0.6453
   22MOL   H92624488   2.980   2.204   6.029 -2.3932 -0.6209  0.7165
   22MOL   H92724489   2.939   2.089   5.914 -0.3451 -0.3283 -0.3746
   22MOL   H92824490   2.966   2.382   5.831 -1.3388 -1.1501  1.7061
   22MOL   H92924491   2.940   2.252   5.727  1.6303  0.3092 -0.0282
   22MOL   H93024492   3.182   2.272   5.902  1.4282  0.8582 -0.7571
   22MOL   H93124493   3.164   2.160   5.757 -1.7717 -0.3851 -0.1683
   22MOL   H93224494   3.215   2.456   5.753 -0.8617  0.7524 -0.4705
   22MOL   H93324495   3.154   2.381   5.612  2.2533 -0.7634 -2.5115
   22MOL   H93424496   3.420   2.398   5.624  1.8218 -1.1204  0.6785
   22MOL   H93524497   3.365   2.241   5.584  0.2176 -1.6105  0.2362
   22MOL   H93624498   3.424   2.341   5.864  0.3968 -0.7740 -0.9120
   22MOL   H93724499   3.403   2.165   5.816 -1.9108  0.2556  2.8572
   22MOL   H93824500   3.606   2.190   5.665 -2.0529  0.1666 -0.1709
   22MOL   H93924501   3.618   2.352   5.726 -2.0777  1.0163  0.0981
   22MOL   H94024502   3.631   2.010   5.825  1.7766 -2.5926  0.1564
   22MOL   H94124503   3.741   2.048   6.075  1.6550  0.5420  0.1298
   22MOL   H94224504   3.871   2.037   5.962 -0.2197 -1.9732  0.5569
   22MOL   H94324505   3.769   1.830   5.854  0.5487  1.6023 -0.3618
   22MOL   H94424506   3.850   1.814   6.003 -1.1133  0.0171  1.1849
   22MOL   H94524507   3.658   1.804   6.134  0.4512  0.1579 -0.6899
   22MOL   H94624508   3.551   1.859   6.008 -0.6672 -0.8075 -1.1230
   22MOL   H94724509   3.679   1.583   5.997 -1.6715 -0.5381 -1.1886
   22MOL   H94824510   3.581   1.651   5.880  2.5304 -0.8798 -0.5307
   22MOL   H94924511   3.397   1.643   6.056  0.7090  1.5491 -1.7720
   22MOL   H95024512   3.483   1.484   6.042  1.7290 -0.5519  1.7533
   22MOL   H95124513   3.541   1.666   6.260 -2.0284  1.0419 -1.1969
   22MOL   H95224514   3.621   1.519   6.216 -0.3946  0.0098  3.6606
   22MOL   H95324515   3.375   1.429   6.229 -1.6172  2.5863  0.1654
   22MOL   C95424516   3.425   1.462   6.420  0.2408 -0.3929  0.6783
   22MOL   O95524517   3.334   1.397   6.460  0.1502  0.1215  0.0905
   22MOL   C95624518   3.541   1.509   6.511  0.3491 -0.5915 -0.5606
   22MOL   C95724519   3.580   1.406   6.619 -0.1443 -0.4679  0.3981
   22MOL   C95824520   3.695   1.320   6.585  0.4707 -0.0748 -0.2590
   22MOL   C95924521   3.704   1.185   6.668  0.0817 -0.4894  0.4001
   22MOL   C96024522   3.811   1.086   6.623  0.5847  0.1101  0.2691
   22MOL   C96124523   3.814   1.036   6.480 -0.8547  0.8111 -0.3238
   22MOL   C96224524   3.907   0.907   6.457 -0.2981 -0.2548 -0.0108
   22MOL   C96324525   3.945   0.884   6.314 -0.0919 -0.0224 -0.7558
   22MOL   C96424526   3.824   0.852   6.226  0.8131 -0.5688  0.6159
   22MOL   C96524527   3.849   0.782   6.097 -0.3302 -0.1806  0.4345
   22MOL   C96624528   3.886   0.636   6.102 -0.1423 -0.4528 -0.7697
   22MOL   O96724529   3.793   0.553   6.119 -0.7934  0.4326 -0.1049
   22MOL   N96824530   4.014   0.604   6.073 -0.9538 -0.0963 -0.1583
   22MOL   C96924531   4.051   0.468   6.038  0.6617  0.7103 -0.1023
   22MOL   C97024532   4.039   0.444   5.885 -1.4262 -0.0488 -0.7013
   22MOL   C97124533   3.887   0.433   5.835  0.1069  0.6138  0.1523
   22MOL   C97224534   3.874   0.401   5.678 -0.4222  0.1123 -0.2348
   22MOL   C97324535   3.734   0.397   5.616 -0.8940  0.3019  0.4553
   22MOL   C97424536   3.632   0.313   5.693  0.4931  0.2569 -1.0359
   22MOL   N97524537   3.507   0.275   5.624 -0.0124  0.1512 -0.6413
   22MOL   H97624538   3.629   1.551   6.462  1.4165 -1.5501  0.4988
   22MOL   H97724539   3.492   1.595   6.556 -0.6814 -1.1228 -0.6673
   22MOL   H97824540   3.494   1.347   6.650 -0.6333 -0.1926 -0.4036
   22MOL   H97924541   3.609   1.466   6.705 -0.8809  0.7065 -0.1406
   22MOL   H98024542   3.705   1.293   6.480  1.7751 -2.5165  0.4506
   22MOL   H98124543   3.790   1.371   6.603  1.0132 -1.1049 -0.1814
   22MOL   H98224544   3.727   1.210   6.771  0.7172 -1.6739  0.5405
   22MOL   H98324545   3.610   1.131   6.657  0.7814 -1.5328 -0.5102
   22MOL   H98424546   3.892   1.158   6.618 -0.1284  1.0559  1.9007
   22MOL   H98524547   3.809   1.003   6.693  1.4326  0.5949  0.8702
   22MOL   H98624548   3.712   1.014   6.447 -0.8032  0.5727 -0.3249
   22MOL   H98724549   3.846   1.122   6.422 -0.1590 -0.2202 -1.4956
   22MOL   H98824550   3.999   0.899   6.515  0.0223  0.0851 -0.4748
   22MOL   H98924551   3.852   0.823   6.498 -0.6672 -0.0625 -0.1095
   22MOL   H99024552   3.992   0.976   6.279 -1.2223  2.0167  2.9577
   22MOL   H99124553   4.014   0.799   6.307  0.3157  0.1818  0.6821
   22MOL   H99224554   3.771   0.947   6.213 -0.2588 -1.1327  0.8414
   22MOL   H99324555   3.758   0.793   6.290  1.1496  0.9426  2.4119
   22MOL   H99424556   3.762   0.795   6.033 -0.6944  0.5863  1.0883
   22MOL   H99524557   3.930   0.835   6.046  0.9649 -0.8511  1.7853
   22MOL   H99624558   4.082   0.678   6.081 -1.2831  0.0470  1.5815
   22MOL   H99724559   3.994   0.396   6.097  0.0119 -0.6529 -2.3068
   22MOL   H99824560   4.154   0.449   6.068  0.9225 -1.1291 -2.0082
   22MOL   H99924561   4.095   0.351   5.871 -0.1005  0.4334  1.3008
   22MOL     H124562   4.093   0.523   5.832 -0.6906 -0.7780 -1.0493
   22MOL     H224563   3.847   0.532   5.853  0.2890  0.7229 -0.0359
   22MOL     H324564   3.827   0.357   5.885  0.9567 -0.7228 -0.8155
   22MOL     H424565   3.937   0.467   5.618  1.3284 -0.4484  0.9416
   22MOL     H524566   3.929   0.308   5.665  0.4517  0.5881  0.0005
   22MOL     H624567   3.750   0.351   5.518  0.1992  0.5833  0.4996
   22MOL     H724568   3.694   0.497   5.601 -0.0009  0.3464 -1.8421
   22MOL     H824569   3.680   0.218   5.715  0.7089  0.6961  0.4481
   22MOL     H924570   3.594   0.355   5.786  0.2983 -1.0884 -0.5007
   22MOL    H1024571   3.501   0.201   5.557  2.5009 -1.3551  0.7432
   22MOL    C1124572   3.393   0.343   5.643  0.1416  0.3921  0.0184
   22MOL    O1224573   3.377   0.441   5.718  0.5316  0.1251  0.1817
   22MOL    C1324574   3.273   0.293   5.559 -0.5878 -0.4749 -0.3749
   22MOL    C1424575   3.139   0.299   5.634  0.3277  0.3843  0.1909
   22MOL    C1524576   3.132   0.205   5.757  0.4474 -0.2541  0.4521
   22MOL    C1624577   2.997   0.230   5.835  0.5108  0.2696 -0.6651
   22MOL    C1724578   2.987   0.138   5.954 -0.5233 -0.5191  0.1547
   22MOL    C1824579   2.851   0.136   6.009  0.0045  0.3922  0.7944
   22MOL    C1924580   2.845   0.071   6.145  0.3904  0.3822 -0.0580
   22MOL    C2024581   2.886   0.155   6.268 -0.0805 -0.4698 -0.2598
   22MOL    C2124582   2.875   0.084   6.404  0.0914 -0.2907 -0.2731
   22MOL    C2224583   2.933   0.155   6.528  0.1540 -0.0098 -0.0701
   22MOL    C2324584   3.088   0.154   6.519  0.8380 -0.1009  0.0639
   22MOL    O2424585   3.154   0.049   6.513  0.5221 -0.3697  0.2544
   22MOL    N2524586   3.160   0.267   6.520  0.1911 -0.2957  0.2335
   22MOL    C2624587   3.132   0.413   6.527 -0.0706 -0.4454  0.9179
   22MOL    C2724588   3.074   0.471   6.392  0.4371 -0.1728  0.4610
   22MOL    C2824589   3.163   0.446   6.266 -0.4536  0.2620  0.1324
   22MOL    C2924590   3.102   0.476   6.135 -0.8900  0.2732  0.3441
   22MOL    C3024591   3.188   0.510   6.008  0.0368 -0.2654 -0.5401
   22MOL    C3124592   3.274   0.637   6.027  0.5544  0.2914  0.9767
   22MOL    N3224593   3.366   0.650   5.916  0.0738  0.0644  0.3207
   22MOL    H3324594   3.302   0.193   5.527 -0.0190 -0.2282 -0.6371
   22MOL    H3424595   3.270   0.355   5.470 -0.7102 -0.3689 -0.2975
   22MOL    H3524596   3.068   0.255   5.565  0.4627 -0.2322  0.4392
   22MOL    H3624597   3.115   0.400   5.668  1.8951  0.6440  0.5893
   22MOL    H3724598   3.213   0.226   5.827  0.1931  1.4334  0.2600
   22MOL    H3824599   3.142   0.100   5.729  1.2229  0.2542 -1.2794
   22MOL    H3924600   2.984   0.335   5.863  0.6501  0.1504 -0.1443
   22MOL    H4024601   2.913   0.204   5.771 -1.9022  1.1035  2.0707
   22MOL    H4124602   3.019   0.041   5.915 -0.2957  0.2321 -1.5502
   22MOL    H4224603   3.071   0.165   6.017  1.0142  1.2536 -2.5633
   22MOL    H4324604   2.808   0.235   6.017 -2.5474 -0.3095 -2.9331
   22MOL    H4424605   2.792   0.078   5.937  1.8972  0.9262 -1.2602
   22MOL    H4524606   2.740   0.043   6.149  0.5059  0.0012  0.3490
   22MOL    H4624607   2.900   7.669   6.142 -0.2527 -0.0781  1.9464
   22MOL    H4724608   2.988   0.193   6.255 -0.5125 -0.2653 -3.5366
   22MOL    H4824609   2.831   0.249   6.264  0.3759 -0.2644 -2.7876
   22MOL    H4924610   2.912   7.674   6.397  1.2198 -0.1635  2.8099
   22MOL    H5024611   2.769   0.064   6.418  0.3012 -1.3037 -0.1030
   22MOL    H5124612   2.887   0.254   6.529 -0.6070 -0.3699  1.3131
   22MOL    H5224613   2.909   0.110   6.624 -1.6418 -0.5609 -0.7516
   22MOL    H5324614   3.257   0.241   6.523  0.9355  2.3414  0.5375
   22MOL    H5424615   3.226   0.456   6.562  0.3401 -0.7010  0.1543
   22MOL    H5524616   3.059   0.444   6.602  1.1059 -2.5611  3.0172
   22MOL    H5624617   3.052   0.576   6.412 -0.4320 -0.7116  2.4809
   22MOL    H5724618   2.980   0.417   6.376  0.5548  0.5219 -2.8797
   22MOL    H5824619   3.207   0.346   6.273  2.6536  1.6030  0.7036
   22MOL    H5924620   3.247   0.515   6.272 -0.3703  0.0912  0.9257
   22MOL    H6024621   3.030   0.558   6.144 -1.9600 -0.4868 -0.9711
   22MOL    H6124622   3.035   0.392   6.118 -1.9719  1.7095 -3.0762
   22MOL    H6224623   3.129   0.528   5.919 -1.5054 -0.1118  0.5035
   22MOL    H6324624   3.254   0.426   5.986 -0.2176 -0.3896 -0.8263
   22MOL    H6424625   3.325   0.618   6.122  1.6920 -1.4250  0.0324
   22MOL    H6524626   3.213   0.727   6.039 -1.2110 -0.7844  0.2890
   22MOL    H6624627   3.376   0.568   5.859  0.8818 -0.7740  1.6519
   22MOL    C6724628   3.443   0.757   5.893 -0.1181  0.4068 -0.3089
   22MOL    O6824629   3.450   0.854   5.967 -0.0798 -0.6465 -0.5904
   22MOL    C6924630   3.535   0.757   5.767 -0.5660 -0.0887 -0.0935
   22MOL    C7024631   3.464   0.848   5.659 -0.2762  0.5490 -0.1441
   22MOL    C7124632   3.346   0.774   5.583 -1.1205  0.3515  0.0219
   22MOL    C7224633   3.307   0.842   5.453  0.2330  0.1786  1.0949
   22MOL    C7324634   3.197   0.768   5.374  0.5585 -0.1318 -0.6516
   22MOL    C7424635   3.177   0.847   5.237  0.2132  0.4128 -1.2806
   22MOL    C7524636   3.065   0.783   5.162  1.0325 -0.1067  0.2916
   22MOL    C7624637   3.040   0.846   5.026  0.4098 -0.7471  0.3861
   22MOL    C7724638   2.946   0.751   4.951  0.0559 -0.0539  0.7399
   22MOL    C7824639   2.957   0.754   4.797  0.3677  0.2585 -0.4962
   22MOL    C7924640   2.923   0.632   4.718 -0.6553  0.0900 -0.3277
   22MOL    O8024641   2.976   0.520   4.745  0.1815 -0.3975 -0.2575
   22MOL    N8124642   2.839   0.643   4.615 -0.8570 -0.1744 -0.1142
   22MOL    C8224643   2.808   0.529   4.525 -0.0495 -0.3424 -0.3888
   22MOL    C8324644   2.657   0.529   4.517  0.8715  0.5705 -0.8470
   22MOL    C8424645   2.597   0.409   4.435 -0.5790  0.9649  0.3372
   22MOL    C8524646   2.450   0.383   4.434  0.6214  0.7713  0.0505
   22MOL    C8624647   2.421   0.275   4.327  0.4494  0.3281 -0.2912
   22MOL    C8724648   2.271   0.245   4.337 -0.5223 -0.0070  0.3521
   22MOL    N8824649   2.237   0.132   4.247 -0.2588 -0.0874 -0.0637
   22MOL    H8924650   3.560   0.657   5.732 -1.0119 -0.3548  0.3518
   22MOL    H9024651   3.628   0.801   5.803 -0.2349 -0.1951 -0.8091
   22MOL    H9124652   3.417   0.934   5.706 -1.1501  0.9345 -1.6874
   22MOL    H9224653   3.548   0.869   5.592  1.0875 -3.5836  0.1175
   22MOL    H9324654   3.387   0.677   5.552 -0.2781  0.5685  0.4462
   22MOL    H9424655   3.269   0.758   5.658 -2.2381  0.1595 -1.1594
   22MOL    H9524656   3.288   0.947   5.473  0.8644  0.4228  0.4352
   22MOL    H9624657   3.394   0.845   5.387 -1.3613 -0.3761 -1.0767
   22MOL    H9724658   3.227   0.667   5.349  2.3045  0.0933  0.5061
   22MOL    H9824659   3.108   0.771   5.438  0.6052 -1.2979 -0.5305
   22MOL    H9924660   3.167   0.955   5.248  0.1039  0.2258  0.5671
   22MOL   H10024661   3.265   0.838   5.174 -0.2382  0.0945 -1.8695
   22MOL   H10124662   2.968   0.771   5.212 -0.1800 -2.0016 -2.4134
   22MOL   H10224663   3.101   0.681   5.155  0.3622 -0.3118 -0.1978
   22MOL   H10324664   2.988   0.942   5.032  1.2374 -0.3168  0.8248
   22MOL   H10424665   3.130   0.863   4.967 -0.5583 -0.4673 -1.0196
   22MOL   H10524666   2.843   0.777   4.975  0.3116  1.2988  0.4432
   22MOL   H10624667   2.972   0.649   4.980  1.1271 -0.4406 -1.5203
   22MOL   H10724668   2.886   0.829   4.761 -1.9019 -0.8080  1.6549
   22MOL   H10824669   3.056   0.787   4.762  0.3018 -0.1725 -1.0955
   22MOL   H10924670   2.803   0.735   4.599 -0.2292  0.2277  0.7405
   22MOL   H11024671   2.851   0.432   4.551  1.6599  0.5443  0.1504
   22MOL   H11124672   2.843   0.548   4.424 -1.2892  1.7752 -0.4498
   22MOL   H11224673   2.633   0.627   4.476 -0.0163  0.0564 -1.5686
   22MOL   H11324674   2.611   0.525   4.615 -1.4962  3.2203 -1.7778
   22MOL   H11424675   2.635   0.318   4.481 -1.9317  0.2512  0.0582
   22MOL   H11524676   2.632   0.410   4.332  0.9164  3.0050  0.8285
   22MOL   H11624677   2.420   0.351   4.533 -2.4630  0.1780 -1.0057
   22MOL   H11724678   2.385   0.471   4.426  0.0108  0.2419 -0.9086
   22MOL   H11824679   2.445   0.311   4.227  1.3218  1.3955  0.2879
   22MOL   H11924680   2.489   0.191   4.340 -0.5090 -0.7484 -2.0360
   22MOL   H12024681   2.242   0.217   4.438  1.4175 -0.2749  0.8552
   22MOL   H12124682   2.218   0.336   4.310 -0.0863  0.2806  0.4606
   22MOL   H12224683   2.286   0.164   4.165  0.9765 -1.2380  0.1992
   22MOL   H12324684   2.290   0.050   4.275 -1.5525 -1.7432 -2.3131
   23MOL     C124685   3.690   4.395   3.234  0.4417  0.2263  0.4627
   23MOL     O224686   3.630   4.446   3.145  0.6206 -0.2291 -0.0190
   23MOL     C324687   3.777   4.478   3.329 -0.4038 -0.0100  0.4181
   23MOL     C424688   3.735   4.627   3.340  0.0279  0.2537  0.6874
   23MOL     C524689   3.601   4.639   3.409  0.2138 -0.1946  0.0078
   23MOL     C624690   3.524   4.775   3.393 -0.1892 -0.2862  0.0993
   23MOL     C724691   3.428   4.812   3.503  0.3704 -0.6189 -0.8308
   23MOL     C824692   3.346   4.939   3.465 -0.1573 -0.2179 -0.0564
   23MOL     C924693   3.261   4.988   3.586  1.1815 -0.4096 -0.6392
   23MOL    C1024694   3.113   5.013   3.551 -0.1955 -0.1697  0.5474
   23MOL    C1124695   3.110   5.142   3.476 -0.8769  0.1333  0.7100
   23MOL    C1224696   2.969   5.186   3.438  0.8777 -0.0178 -0.4763
   23MOL    C1324697   2.953   5.314   3.362  0.4692  0.4336  0.4364
   23MOL    O1424698   2.974   5.423   3.407 -0.4527  0.0638 -0.3919
   23MOL    N1524699   2.898   5.305   3.241 -0.0337 -0.4278 -0.7487
   23MOL    C1624700   2.879   5.416   3.145  0.4494 -0.6650 -0.1531
   23MOL    C1724701   2.765   5.389   3.045 -0.0879 -0.4451 -0.3104
   23MOL    C1824702   2.749   5.496   2.931 -0.1155  0.6967  0.3259
   23MOL    C1924703   2.689   5.624   2.972 -0.5934 -0.2502  0.1518
   23MOL    C2024704   2.720   5.731   2.869 -0.3267 -0.4328 -0.2683
   23MOL    C2124705   2.639   5.864   2.894  0.0426  0.5117 -0.1057
   23MOL    N2224706   2.650   5.946   2.773  0.2384 -0.4064 -0.5981
   23MOL    H2324707   3.880   4.465   3.298 -0.7804 -0.2890 -0.7282
   23MOL    H2424708   3.761   4.424   3.422  0.3641 -0.7414  0.1293
   23MOL    H2524709   3.719   4.680   3.246 -0.7102  0.8120  1.1273
   23MOL    H2624710   3.810   4.689   3.389  1.9185  0.1584 -1.9751
   23MOL    H2724711   3.625   4.625   3.514 -1.8532  0.0865  0.5472
   23MOL    H2824712   3.527   4.561   3.394 -2.8916  2.7930 -0.7877
   23MOL    H2924713   3.587   4.862   3.373 -1.7895  0.8615 -0.0702
   23MOL    H3024714   3.481   4.782   3.293  0.3627  0.5177 -0.0905
   23MOL    H3124715   3.485   4.830   3.594 -1.0593  0.2860 -0.1035
   23MOL    H3224716   3.368   4.724   3.524 -1.2420  0.3606 -1.2503
   23MOL    H3324717   3.406   5.016   3.415  2.1927 -0.3186  2.4779
   23MOL    H3424718   3.272   4.901   3.395 -0.7612  0.6794  0.0968
   23MOL    H3524719   3.256   4.908   3.660 -0.5473  0.7888  0.5748
   23MOL    H3624720   3.303   5.070   3.645  3.3560 -0.9747 -1.3689
   23MOL    H3724721   3.074   4.933   3.488  0.7266 -0.7353  0.6780
   23MOL    H3824722   3.061   5.027   3.646  1.0970  1.9344  0.9802
   23MOL    H3924723   3.175   5.131   3.390 -0.9791 -2.6143  0.9393
   23MOL    H4024724   3.154   5.217   3.542 -0.2066 -0.2252  0.6659
   23MOL    H4124725   2.920   5.110   3.377 -0.7795 -1.2291  2.2406
   23MOL    H4224726   2.901   5.203   3.522  3.0125  2.4126  0.8287
   23MOL    H4324727   2.851   5.222   3.209 -2.1380  0.8070 -0.9171
   23MOL    H4424728   2.975   5.437   3.098  0.2283 -1.4556 -0.9488
   23MOL    H4524729   2.859   5.509   3.199  1.3228 -0.8670  0.5234
   23MOL    H4624730   2.677   5.381   3.109 -0.0068 -2.2835 -0.4266
   23MOL    H4724731   2.793   5.291   3.008  0.3700 -1.1368  1.8527
   23MOL    H4824732   2.846   5.510   2.883  0.4370  1.9392  1.7634
   23MOL    H4924733   2.683   5.467   2.849 -0.3998  1.6553  0.2152
   23MOL    H5024734   2.746   5.656   3.059 -0.3184 -0.1784 -0.0536
   23MOL    H5124735   2.588   5.614   3.012 -1.8348  0.6846 -2.6285
   23MOL    H5224736   2.825   5.758   2.878 -0.4727  0.0207  0.0775
   23MOL    H5324737   2.692   5.689   2.772 -0.9073 -0.1199 -0.2393
   23MOL    H5424738   2.531   5.856   2.906 -0.1645  2.8127 -0.1184
   23MOL    H5524739   2.673   5.922   2.980  0.9310 -0.2405  0.0615
   23MOL    H5624740   2.579   5.914   2.709  1.0023  1.2759 -2.3430
   23MOL    H5724741   3.689   4.288   3.257  2.4407 -0.3531 -1.9076
   23MOL    C5824742   2.728   6.049   2.739  0.6174 -0.0165  0.0693
   23MOL    O5924743   2.699   6.101   2.632 -0.2349 -0.6770 -0.0112
   23MOL    C6024744   2.849   6.098   2.818  0.8128 -0.0654 -0.4344
   23MOL    C6124745   2.931   6.195   2.732  0.5011 -0.2282 -0.2381
   23MOL    C6224746   3.057   6.232   2.797  0.0119 -0.1387 -0.4619
   23MOL    C6324747   3.026   6.319   2.919 -0.0501  0.1452  0.0434
   23MOL    C6424748   3.145   6.382   2.986  0.4592 -0.0399 -0.7224
   23MOL    C6524749   3.238   6.282   3.065  0.2318 -0.3534 -0.3787
   23MOL    C6624750   3.373   6.345   3.111  1.0421  0.6446 -0.7673
   23MOL    C6724751   3.428   6.282   3.241  0.1655  0.1892  0.1633
   23MOL    C6824752   3.552   6.358   3.296 -0.0850  0.4971  0.3953
   23MOL    C6924753   3.517   6.498   3.359  0.3054 -0.1635 -0.1780
   23MOL    C7024754   3.585   6.614   3.285 -0.7980  0.4853  0.9901
   23MOL    O7124755   3.692   6.604   3.227  0.2419 -0.4903  0.0147
   23MOL    N7224756   3.508   6.724   3.289  0.0540  0.0486 -0.0978
   23MOL    C7324757   3.542   6.856   3.227  0.2287 -0.2454  0.2190
   23MOL    C7424758   3.457   6.896   3.102 -0.1515  0.1913 -1.2654
   23MOL    C7524759   3.512   7.022   3.031  0.2270  0.3508  0.7333
   23MOL    C7624760   3.424   7.072   2.915 -0.5828  0.5029  0.4197
   23MOL    C7724761   3.484   7.177   2.821  0.4469  0.3210  0.2787
   23MOL    C7824762   3.396   7.259   2.728 -0.8206  0.1010  1.0177
   23MOL    N7924763   3.318   7.170   2.648  0.5429  0.1295  0.1097
   23MOL    H8024764   2.913   6.015   2.848 -1.6373 -2.4736 -1.6534
   23MOL    H8124765   2.815   6.147   2.909  2.5913 -1.0374  0.7706
   23MOL    H8224766   2.952   6.137   2.642  3.3136  2.5308 -1.4516
   23MOL    H8324767   2.873   6.281   2.698  0.7385 -0.2226 -0.6225
   23MOL    H8424768   3.122   6.283   2.726 -1.4894  3.2416  0.4426
   23MOL    H8524769   3.092   6.133   2.827  1.4233  0.5239  0.1464
   23MOL    H8624770   2.976   6.260   2.996 -0.6885  0.2159 -0.3088
   23MOL    H8724771   2.965   6.403   2.886  0.0040 -0.1368 -0.7742
   23MOL    H8824772   3.204   6.442   2.917 -0.8056  0.3278 -1.5078
   23MOL    H8924773   3.112   6.454   3.061 -1.1992 -1.2286 -0.2645
   23MOL    H9024774   3.250   6.194   3.003  2.8332 -1.6271  1.8342
   23MOL    H9124775   3.176   6.238   3.142 -2.0588  1.2994 -1.2236
   23MOL    H9224776   3.360   6.453   3.121 -2.3219  0.3594 -1.3194
   23MOL    H9324777   3.452   6.343   3.036  1.6153 -0.5373 -0.1469
   23MOL    H9424778   3.350   6.290   3.317 -1.2386 -2.6550 -0.8857
   23MOL    H9524779   3.445   6.176   3.218  3.0092  0.4049  1.0691
   23MOL    H9624780   3.639   6.353   3.231  0.3628  0.4843  0.9871
   23MOL    H9724781   3.577   6.286   3.374  0.5609 -0.2023 -0.4459
   23MOL    H9824782   3.409   6.508   3.370  0.3668  0.8357 -0.3973
   23MOL    H9924783   3.560   6.513   3.458  0.7126  1.5836 -0.5948
   23MOL   H10024784   3.414   6.706   3.323  0.4861 -0.5944  0.7850
   23MOL   H10124785   3.646   6.865   3.195 -0.4943 -1.4332 -2.5841
   23MOL   H10224786   3.532   6.925   3.311  0.1431  0.0964 -0.0744
   23MOL   H10324787   3.470   6.816   3.029 -0.0045 -0.6806 -0.2810
   23MOL   H10424788   3.353   6.911   3.131  0.2488  0.4364  0.0789
   23MOL   H10524789   3.606   6.989   2.986  0.3369  1.8761 -0.1903
   23MOL   H10624790   3.510   7.101   3.106 -0.8036 -0.2705  1.3577
   23MOL   H10724791   3.411   6.987   2.848 -0.3708  0.5369  0.3359
   23MOL   H10824792   3.325   7.110   2.940  0.4342  1.8767  2.4541
   23MOL   H10924793   3.559   7.129   2.758 -1.4520 -0.5569 -1.3778
   23MOL   H11024794   3.532   7.250   2.885 -0.1228 -0.7696  1.9931
   23MOL   H11124795   3.455   7.332   2.674  1.1253 -0.8871  1.7293
   23MOL   H11224796   3.323   7.313   2.788 -0.3308  0.1117  1.6089
   23MOL   H11324797   3.238   7.123   2.688 -1.4927  0.4993 -3.2463
   23MOL   C11424798   3.344   7.133   2.521  0.4425  0.0184 -0.0668
   23MOL   O11524799   3.446   7.180   2.464 -0.2075 -0.1175 -0.1382
   23MOL   C11624800   3.245   7.049   2.450 -0.4395  0.7098  0.0115
   23MOL   C11724801   3.273   7.047   2.301  0.6402  0.2189 -0.7166
   23MOL   C11824802   3.159   6.978   2.224  0.4206 -0.3869  0.2234
   23MOL   C11924803   3.200   6.975   2.073 -0.5136  0.4807  0.2516
   23MOL   C12024804   3.122   6.883   1.982 -0.5514 -0.0982  0.3545
   23MOL   C12124805   3.196   6.747   1.960 -0.1188  0.1796  0.2019
   23MOL   C12224806   3.321   6.751   1.871  0.1830  0.5008  0.4590
   23MOL   C12324807   3.376   6.606   1.847  0.1723  0.2696 -0.4193
   23MOL   C12424808   3.499   6.583   1.755 -0.1520  1.0530  0.3548
   23MOL   C12524809   3.625   6.641   1.814  0.1131  0.1818  0.0301
   23MOL   C12624810   3.749   6.637   1.733 -0.2703  0.0188  0.1673
   23MOL   O12724811   3.787   6.525   1.692 -0.3098  0.0413  0.2931
   23MOL   N12824812   3.805   6.755   1.706  0.1542  0.4487 -0.3768
   23MOL   C12924813   3.925   6.776   1.624 -0.2283 -0.3884 -0.7607
   23MOL   C13024814   4.053   6.760   1.708 -0.2753  0.1418 -0.6325
   23MOL   C13124815   4.110   6.890   1.782 -0.0052 -0.6519 -0.0041
   23MOL   C13224816   4.173   6.994   1.684  0.2585 -0.0408  0.0830
   23MOL   C13324817   4.240   7.106   1.764 -0.1072  0.4492 -0.1251
   23MOL   C13424818   4.353   7.181   1.692 -0.5872 -0.3175  0.2856
   23MOL   N13524819   4.312   7.230   1.557 -0.5672  0.0720 -0.1952
   23MOL   H13624820   3.252   6.948   2.489  1.7565  1.1966  0.9846
   23MOL   H13724821   3.143   7.085   2.466 -0.4399  1.8809 -2.4358
   23MOL   H13824822   3.375   7.013   2.283  1.3476  1.2078  1.2867
   23MOL   H13924823   3.271   7.149   2.264 -1.0321  1.1176  1.7177
   23MOL   H14024824   3.141   6.880   2.269 -0.8845 -0.3723 -0.2595
   23MOL   H14124825   3.059   7.022   2.230  0.7463  0.3378  0.4292
   23MOL   H14224826   3.198   7.075   2.030  0.5366  0.2005 -0.4796
   23MOL   H14324827   3.305   6.946   2.066 -0.7298 -0.1185 -0.6606
   23MOL   H14424828   3.019   6.860   2.011 -0.0850 -3.5898 -0.5958
   23MOL   H14524829   3.112   6.933   1.886  0.5621 -1.3039 -0.4011
   23MOL   H14624830   3.121   6.680   1.917 -0.3604  1.1170 -0.8536
   23MOL   H14724831   3.223   6.712   2.060  0.0940 -3.9154 -1.1963
   23MOL   H14824832   3.286   6.794   1.777 -3.8810  2.1606  2.5832
   23MOL   H14924833   3.402   6.810   1.913  0.3816  0.9261 -0.5200
   23MOL   H15024834   3.291   6.551   1.807 -0.7209  0.1201  1.6209
   23MOL   H15124835   3.391   6.551   1.939 -1.6651 -0.8000 -0.7199
   23MOL   H15224836   3.483   6.630   1.658  0.5881  0.4576 -0.0577
   23MOL   H15324837   3.514   6.477   1.735 -1.1695  1.0903 -0.6839
   23MOL   H15424838   3.657   6.587   1.903  0.5452  2.7662  1.5248
   23MOL   H15524839   3.606   6.744   1.845 -0.4363  0.4236 -1.0762
   23MOL   H15624840   3.770   6.839   1.750 -0.0201  0.5549 -0.7127
   23MOL   H15724841   3.905   6.872   1.575  0.2187  0.3027  0.3827
   23MOL   H15824842   3.936   6.707   1.541 -0.3615  0.5397 -1.5630
   23MOL   H15924843   4.134   6.722   1.647  0.0557  1.7558 -1.1996
   23MOL   H16024844   4.036   6.673   1.773  0.5547  0.0043 -0.5974
   23MOL   H16124845   4.065   6.928   1.874 -0.1572  0.1979 -0.4254
   23MOL   H16224846   4.195   6.847   1.836  1.0025  2.7096  1.1894
   23MOL   H16324847   4.245   6.938   1.624  0.4531 -1.8057  1.9169
   23MOL   H16424848   4.102   7.028   1.608  3.5570  1.1028 -2.6387
   23MOL   H16524849   4.293   7.062   1.849  0.0533 -0.0725 -0.4956
   23MOL   H16624850   4.163   7.173   1.802 -1.0968 -0.7052 -0.0870
   23MOL   H16724851   4.402   7.249   1.761 -0.8390 -0.1355  0.2867
   23MOL   H16824852   4.431   7.112   1.659 -0.5625  0.3531 -1.1319
   23MOL   H16924853   4.280   7.160   1.492 -4.2874 -1.0548  2.6428
   23MOL   C17024854   4.327   7.357   1.517 -0.2653  0.2501  0.2068
   23MOL   O17124855   4.368   7.448   1.589  0.1938 -0.4669  0.3339
   23MOL   C17224856   4.297   7.380   1.371  0.2778 -0.5105  0.2724
   23MOL   C17324857   4.279   7.529   1.333  0.6183  0.5190  0.1563
   23MOL   C17424858   4.416   7.583   1.294  0.9590  0.2512 -0.3388
   23MOL   C17524859   4.411   0.037   1.248 -0.3696  0.2415  0.0460
   23MOL   C17624860   4.552   0.077   1.200 -0.6283  0.4406 -0.6127
   23MOL   C17724861   4.552   0.225   1.164 -0.0581  0.2091  0.0985
   23MOL   C17824862   4.693   0.271   1.114  0.5970 -0.3763 -0.1476
   23MOL   C17924863   4.706   0.414   1.062  0.9100 -0.6927  0.6633
   23MOL   C18024864   4.844   0.455   1.012  0.1719 -0.0669 -0.8393
   23MOL   C18124865   4.867   0.600   0.999 -0.4506  0.3644 -0.5902
   23MOL   C18224866   5.010   0.654   0.983  0.7338 -0.1588 -0.6056
   23MOL   O18324867   5.106   0.575   0.985  0.4591 -0.3778 -0.4610
   23MOL   N18424868   5.019   0.786   0.967  0.3189  0.0821 -0.5520
   23MOL   C18524869   5.140   0.868   0.941  0.1861 -0.4297  0.5843
   23MOL   C18624870   5.203   0.928   1.068 -0.3694  0.7628 -0.0845
   23MOL   C18724871   5.318   1.032   1.035  0.5483 -0.1075  0.8713
   23MOL   C18824872   5.270   1.176   1.012  0.1760  0.7343  0.0729
   23MOL   C18924873   5.213   1.240   1.136  0.3127 -0.1611 -0.4000
   23MOL   C19024874   5.326   1.301   1.229  0.4019 -0.3562  0.2724
   23MOL   N19124875   5.279   1.373   1.341 -0.2687  0.0366  0.1837
   23MOL   H19224876   4.376   7.343   1.306  1.9532  1.4175  1.1731
   23MOL   H19324877   4.202   7.327   1.363 -0.0888  0.2097 -0.1217
   23MOL   H19424878   4.231   7.593   1.406  1.7905  1.8133 -0.1858
   23MOL   H19524879   4.221   7.546   1.243 -0.4927  0.7656  0.9137
   23MOL   H19624880   4.460   7.532   1.208 -0.6078  2.2144 -2.3655
   23MOL   H19724881   4.478   7.563   1.381  0.8454  0.9990 -0.0813
   23MOL   H19824882   4.341   0.040   1.165  0.3931 -3.0215 -0.8246
   23MOL   H19924883   4.390   0.106   1.329  0.5626 -0.3198  0.7825
   23MOL   H20024884   4.626   0.047   1.274  0.4570  0.2538 -1.7568
   23MOL   H20124885   4.572   0.008   1.118  0.4277 -0.8167  0.6779
   23MOL   H20224886   4.528   0.279   1.256 -3.9798  2.4574 -2.1129
   23MOL   H20324887   4.472   0.252   1.095  1.2605 -1.3773 -2.1300
   23MOL   H20424888   4.773   0.253   1.186  0.2903 -1.5339 -0.0905
   23MOL   H20524889   4.722   0.203   1.034 -3.5101 -2.0170 -0.3347
   23MOL   H20624890   4.647   0.410   0.970  1.5291  0.8599  0.1900
   23MOL   H20724891   4.668   0.481   1.139  0.4894  0.1890 -0.3044
   23MOL   H20824892   4.852   0.407   0.915  0.3065 -1.6507 -0.0672
   23MOL   H20924893   4.929   0.419   1.070 -1.5099 -0.2652  1.5560
   23MOL   H21024894   4.799   0.641   0.925 -0.1371 -1.2640 -1.7955
   23MOL   H21124895   4.827   0.648   1.089  1.5150  0.5267  0.2372
   23MOL   H21224896   4.929   0.832   0.965  0.1465 -0.1664  0.9918
   23MOL   H21324897   5.108   0.950   0.877  1.9306 -0.3916 -0.2461
   23MOL   H21424898   5.217   0.817   0.884 -0.2656 -1.2646  0.6991
   23MOL   H21524899   5.121   0.962   1.132  0.2777 -2.1394  2.3858
   23MOL   H21624900   5.247   0.850   1.128 -2.0230  0.2781  0.5276
   23MOL   H21724901   5.382   1.032   1.123 -1.6641 -2.6640  2.5367
   23MOL   H21824902   5.364   0.994   0.943 -2.3341 -0.6397 -0.3973
   23MOL   H21924903   5.188   1.161   0.943 -1.2503  1.1360  1.6454
   23MOL   H22024904   5.348   1.244   0.976  2.0847 -1.5846 -0.3018
   23MOL   H22124905   5.162   1.173   1.204  0.7564  0.3339  0.4247
   23MOL   H22224906   5.139   1.317   1.114  0.4606 -0.2660 -1.2932
   23MOL   H22324907   5.383   1.370   1.166 -1.5716  1.8049  0.7613
   23MOL   H22424908   5.398   1.225   1.261 -0.6321 -0.6253  1.9963
   23MOL   H22524909   5.261   1.313   1.421  0.1769  1.0256  1.0359
   23MOL   C22624910   5.276   1.507   1.361  0.5005  1.1821  0.6014
   23MOL   O22724911   5.310   1.588   1.274 -0.4017  0.0968  0.3952
   23MOL   C22824912   5.222   1.546   1.497 -0.1306 -0.0251 -0.1476
   23MOL   C22924913   5.065   1.559   1.490 -0.2151  0.4774  0.0003
   23MOL   C23024914   4.992   1.433   1.456  0.2693 -0.4179  0.3821
   23MOL   C23124915   4.832   1.453   1.456 -0.2943 -0.0284 -0.0137
   23MOL   C23224916   4.761   1.325   1.411 -0.4900 -0.7135 -0.8030
   23MOL   C23324917   4.621   1.347   1.363  0.4177 -0.4134 -0.2655
   23MOL   C23424918   4.547   1.212   1.355  0.5518  0.1036  0.7207
   23MOL   C23524919   4.416   1.221   1.282  0.3173 -0.1421  0.1441
   23MOL   C23624920   4.311   1.303   1.363  0.1880  0.6194  0.7173
   23MOL   C23724921   4.175   1.307   1.291  0.2018 -0.1687  0.3716
   23MOL   C23824922   4.082   1.195   1.341  0.2024 -0.3344  1.0115
   23MOL   O23924923   4.117   1.076   1.346 -0.5855  0.5918 -0.8046
   23MOL   N24024924   3.956   1.231   1.373 -0.3424  0.1270 -0.6294
   23MOL   C24124925   3.857   1.136   1.422  0.3915  0.0233 -0.6450
   23MOL   C24224926   3.834   1.188   1.562 -0.0403 -0.1909  0.4883
   23MOL   C24324927   3.720   1.119   1.639  0.1281 -0.0372 -0.6673
   23MOL   C24424928   3.706   1.167   1.784 -0.6518  0.4992  0.4745
   23MOL   C24524929   3.571   1.125   1.853 -0.4682 -1.3343 -0.0351
   23MOL   C24624930   3.572   1.188   1.987 -0.1198 -0.5226  0.1832
   23MOL   N24724931   3.676   1.132   2.075  0.4301  0.0010  0.8031
   23MOL   H24824932   5.264   1.641   1.532 -0.6890 -0.1457  0.8688
   23MOL   H24924933   5.263   1.476   1.569  1.0950  0.1395 -0.6715
   23MOL   H25024934   5.018   1.588   1.584 -3.0807 -4.1564  0.1561
   23MOL   H25124935   5.050   1.639   1.417 -0.0029 -0.1243 -0.7115
   23MOL   H25224936   5.030   1.398   1.360  0.3556 -0.2701  0.3607
   23MOL   H25324937   5.004   1.357   1.533 -0.4649 -2.7403 -1.7277
   23MOL   H25424938   4.797   1.528   1.385  0.3655  0.0135 -0.2977
   23MOL   H25524939   4.793   1.482   1.554  1.1470  0.0852  0.5359
   23MOL   H25624940   4.774   1.250   1.490  1.1308 -1.3125 -1.6056
   23MOL   H25724941   4.821   1.284   1.330 -1.7478 -1.3389 -1.4337
   23MOL   H25824942   4.558   1.398   1.436  0.2871 -0.0573 -0.6270
   23MOL   H25924943   4.630   1.395   1.266 -4.2792 -0.2695 -0.7333
   23MOL   H26024944   4.532   1.174   1.456 -0.9994  0.1103  0.5018
   23MOL   H26124945   4.604   1.144   1.292 -0.8910 -1.2646  0.8757
   23MOL   H26224946   4.440   1.272   1.189  0.5686  1.6454  1.1690
   23MOL   H26324947   4.371   1.125   1.258  2.1489 -0.8756 -0.4312
   23MOL   H26424948   4.299   1.258   1.461 -2.4541 -0.8140 -0.2291
   23MOL   H26524949   4.340   1.408   1.361  1.0598  0.3775  0.1627
   23MOL   H26624950   4.122   1.401   1.313  2.4064  1.0862  0.4272
   23MOL   H26724951   4.188   1.298   1.183  1.0269 -2.8537  0.6850
   23MOL   H26824952   3.948   1.330   1.389 -1.1233  0.4291 -2.7634
   23MOL   H26924953   3.886   1.031   1.423  0.4068  0.0317  0.0072
   23MOL   H27024954   3.764   1.138   1.365  0.1022 -0.9831 -0.2139
   23MOL   H27124955   3.803   1.292   1.554  0.3491 -0.2738 -3.1644
   23MOL   H27224956   3.932   1.181   1.609  0.7867  1.0175 -0.9877
   23MOL   H27324957   3.627   1.142   1.588  0.0440  0.0995 -0.4497
   23MOL   H27424958   3.734   1.011   1.639  3.2633  0.3048  1.4169
   23MOL   H27524959   3.724   1.274   1.784  1.2041  0.2020 -0.5538
   23MOL   H27624960   3.792   1.124   1.834  0.0828  0.6076 -0.6635
   23MOL   H27724961   3.564   1.017   1.865  1.1509 -1.4207  0.3254
   23MOL   H27824962   3.485   1.166   1.800  1.0653  0.5321 -1.1853
   23MOL   H27924963   3.474   1.174   2.032  0.4566 -2.8197  0.7863
   23MOL   H28024964   3.600   1.293   1.972  0.2751 -0.4071  1.6348
   23MOL   H28124965   3.739   1.062   2.039 -0.0584  0.0742 -0.2195
   23MOL   C28224966   3.709   1.167   2.196  0.0579  0.1442 -0.0376
   23MOL   O28324967   3.648   1.254   2.254  0.1197  0.0026  0.4427
   23MOL   C28424968   3.830   1.094   2.257 -0.1201 -0.2358 -0.0605
   23MOL   C28524969   3.853   1.147   2.398 -0.7058 -0.6981 -0.8584
   23MOL   C28624970   3.989   1.093   2.462 -0.7339  0.2747  0.0410
   23MOL   C28724971   3.959   0.952   2.514  0.0913 -0.5594 -0.7427
   23MOL   C28824972   4.073   0.898   2.601  0.0328 -0.0994  0.5265
   23MOL   C28924973   4.164   0.795   2.525  0.3647  0.1110  0.0362
   23MOL   C29024974   4.280   0.872   2.456 -0.4614 -0.2148  0.4110
   23MOL   C29124975   4.380   0.775   2.385 -0.3451 -0.3647 -0.5223
   23MOL   C29224976   4.320   0.695   2.266 -0.4702  0.7470 -0.2012
   23MOL   C29324977   4.258   0.775   2.146 -0.6274 -0.2210 -0.3071
   23MOL   C29424978   4.215   0.681   2.030 -0.2075 -0.0425 -0.8675
   23MOL   O29524979   4.104   0.632   2.015  0.1447  0.3350 -0.3787
   23MOL   N29624980   4.304   0.663   1.937  0.3773 -0.0961 -0.0234
   23MOL   C29724981   4.293   0.575   1.823  0.0416 -0.3785 -0.0731
   23MOL   C29824982   4.415   0.475   1.829 -0.3135  0.5336  0.6360
   23MOL   C29924983   4.418   0.368   1.717 -0.8210  0.3182  0.1221
   23MOL   C30024984   4.540   0.272   1.742  0.4260 -0.1240 -0.3400
   23MOL   C30124985   4.533   0.142   1.662  0.1461 -1.3220  0.5058
   23MOL   C30224986   4.653   0.044   1.693 -0.1402 -0.3325  0.8184
   23MOL   N30324987   4.645   7.616   1.613 -0.4487  0.4638  0.0347
   23MOL   H30424988   3.810   0.988   2.268  1.3264 -0.5533 -0.4104
   23MOL   H30524989   3.918   1.090   2.193  1.2451  1.1676  1.6723
   23MOL   H30624990   3.766   1.128   2.462 -0.4405  0.0002 -0.2698
   23MOL   H30724991   3.858   1.255   2.384  0.3347 -0.8418 -1.5876
   23MOL   H30824992   4.072   1.095   2.392 -0.1644 -1.5833  0.6400
   23MOL   H30924993   4.019   1.155   2.547  0.0474 -0.8241  0.5788
   23MOL   H31024994   3.952   0.893   2.423  1.2555  0.5784 -1.6053
   23MOL   H31124995   3.867   0.949   2.572  0.0722 -0.0804 -0.7467
   23MOL   H31224996   4.123   0.980   2.653  0.1299  0.6079 -0.6405
   23MOL   H31324997   4.029   0.841   2.682  0.8833 -2.2840 -0.5179
   23MOL   H31424998   4.196   0.716   2.594  0.6289 -1.6243 -2.0115
   23MOL   H31524999   4.116   0.740   2.444 -2.1408  1.3922  0.6069
   23MOL   H31625000   4.319   0.933   2.537  1.4118  0.5887 -1.0523
   23MOL   H31725001   4.243   0.942   2.381  1.2246  0.6230  0.3324
   23MOL   H31825002   4.407   0.688   2.445 -0.2326  0.3099  0.4166
   23MOL   H31925003   4.470   0.828   2.352  0.8658 -1.3618  1.0541
   23MOL   H32025004   4.395   0.623   2.231 -0.1246  1.2205 -0.4354
   23MOL   H32125005   4.240   0.630   2.301  2.5237 -3.3503 -0.5380
   23MOL   H32225006   4.166   0.825   2.175  0.2264 -0.0133  2.1589
   23MOL   H32325007   4.332   0.848   2.113  0.0309 -0.5816  0.3393
   23MOL   H32425008   4.392   0.712   1.949  0.3664 -0.3641  1.2084
   23MOL   H32525009   4.303   0.636   1.733  0.1299 -1.9148 -1.1203
   23MOL   H32625010   4.202   0.516   1.828 -0.1197 -0.1712 -0.5511
   23MOL   H32725011   4.425   0.433   1.929  1.9388 -0.2613  0.1197
   23MOL   H32825012   4.503   0.539   1.821 -0.4164  0.8518  1.9438
   23MOL   H32925013   4.421   0.407   1.615  0.1298  0.6145  0.2598
   23MOL   H33025014   4.320   0.319   1.720 -0.5287 -0.4223 -1.9832
   23MOL   H33125015   4.633   0.327   1.727  0.5600 -0.4943 -0.8661
   23MOL   H33225016   4.539   0.257   1.850  1.0840 -0.3181 -0.3605
   23MOL   H33325017   4.542   0.174   1.558 -0.5545 -0.8254  0.5969
   23MOL   H33425018   4.432   0.103   1.676 -0.9221  0.7532 -1.2391
   23MOL   H33525019   4.741   0.105   1.674 -0.7994  0.7695  1.2261
   23MOL   H33625020   4.662   0.026   1.800  3.2813  0.1850  0.6627
   23MOL   H33725021   4.557   7.568   1.611  0.6878 -1.6568  0.1909
   23MOL   C33825022   4.751   7.554   1.560  0.0652  0.3592  0.2717
   23MOL   O33925023   4.864   7.593   1.568 -0.0315 -0.0277  0.7062
   23MOL   C34025024   4.718   7.420   1.493 -0.1887  0.0656 -0.2434
   23MOL   C34125025   4.735   7.421   1.342  0.2038  0.7918  0.4895
   23MOL   C34225026   4.766   7.285   1.270 -0.6362  0.0405 -0.1855
   23MOL   C34325027   4.752   7.305   1.117 -0.5511 -0.6214 -0.4335
   23MOL   C34425028   4.855   7.400   1.044  0.0685 -1.0142  0.2934
   23MOL   C34525029   4.983   7.331   0.994  0.7410 -0.2122 -0.5534
   23MOL   C34625030   5.078   7.411   0.910 -0.7405  0.2547  0.5759
   23MOL   C34725031   5.022   7.446   0.772 -0.3305 -0.0492  0.2041
   23MOL   C34825032   5.125   7.501   0.672  0.6440  0.2581  0.5386
   23MOL   C34925033   5.187   7.629   0.722 -0.4607  0.5364  0.1714
   23MOL   C35025034   5.289   7.687   0.624 -0.3472  0.5855  0.4798
   23MOL   O35125035   5.253   0.018   0.512 -0.2332  0.8113  0.4653
   23MOL   N35225036   5.413   0.013   0.662  0.3062 -0.0623 -0.0713
   23MOL   C35325037   5.528   0.041   0.576  0.0938 -0.3120 -0.1238
   23MOL   C35425038   5.553   0.193   0.586 -0.1064 -0.7809 -0.2669
   23MOL   C35525039   5.677   0.240   0.512 -0.6842 -0.0251  0.3877
   23MOL   C35625040   5.813   0.196   0.593  0.2819  0.2797 -0.0101
   23MOL   C35725041   5.935   0.268   0.538 -0.2994  0.1286 -0.3234
   23MOL   C35825042   6.070   0.218   0.584 -0.5754 -0.4180  0.1648
   23MOL   N35925043   6.171   0.317   0.548 -0.0904  0.0671 -0.2685
   23MOL   H36025044   4.614   7.395   1.517  0.3233 -1.0476  0.8948
   23MOL   H36125045   4.782   7.347   1.543  0.0507  2.1267  2.5311
   23MOL   H36225046   4.654   7.482   1.303 -0.8851 -0.1207  1.2783
   23MOL   H36325047   4.828   7.474   1.326  0.9997 -0.9994 -1.1049
   23MOL   H36425048   4.697   7.204   1.293 -0.3165  0.0455  0.8047
   23MOL   H36525049   4.865   7.244   1.290 -1.3010 -0.7818  1.5173
   23MOL   H36625050   4.756   7.211   1.061 -2.2108 -0.1186 -1.4633
   23MOL   H36725051   4.651   7.342   1.099 -0.6629 -0.7482 -0.0708
   23MOL   H36825052   4.801   7.440   0.958  1.4796 -1.9691 -1.0606
   23MOL   H36925053   4.873   7.486   1.108 -2.5765  0.4216 -0.7889
   23MOL   H37025054   5.029   7.282   1.079 -0.4193  1.0655  0.8550
   23MOL   H37125055   4.967   7.239   0.938  0.5533 -0.1850 -0.5446
   23MOL   H37225056   5.096   7.499   0.972  1.1773  0.3101 -0.0251
   23MOL   H37325057   5.165   7.347   0.894 -1.1587 -0.6284  1.7803
   23MOL   H37425058   4.982   7.356   0.725  1.0546  0.8248 -2.8008
   23MOL   H37525059   4.935   7.512   0.771 -0.4619 -0.1331  2.6140
   23MOL   H37625060   5.083   7.507   0.571 -0.9534  0.1980  1.1871
   23MOL   H37725061   5.194   7.418   0.652 -2.0601 -1.9714  0.1216
   23MOL   H37825062   5.113   0.016   0.738  0.4413  1.7430 -1.4054
   23MOL   H37925063   5.237   7.621   0.818  2.1031  0.6067 -1.1191
   23MOL   H38025064   5.422   7.670   0.756  0.8264 -0.3901 -0.2390
   23MOL   H38125065   5.517   0.007   0.473 -1.2510 -0.2188 -0.0196
   23MOL   H38225066   5.618   7.684   0.613  0.3082  0.9216  1.0445
   23MOL   H38325067   5.569   0.220   0.690 -0.4230  0.2004 -0.4642
   23MOL   H38425068   5.461   0.238   0.548  1.2932  2.1634 -0.3157
   23MOL   H38525069   5.695   0.203   0.411  0.5522  0.7694  0.3000
   23MOL   H38625070   5.658   0.347   0.508 -0.0566  0.0110 -2.6660
   23MOL   H38725071   5.798   0.233   0.694 -1.6847 -1.1054  0.2408
   23MOL   H38825072   5.819   0.087   0.595  0.9040  0.3270  0.9809
   23MOL   H38925073   5.926   0.369   0.578  0.4416  0.6306 -1.4056
   23MOL   H39025074   5.927   0.277   0.430 -1.2217  2.1630 -0.1005
   23MOL   H39125075   6.071   0.205   0.692 -1.0372 -1.3936  0.0594
   23MOL   H39225076   6.098   0.124   0.536  1.0635  0.7036 -1.1338
   23MOL   H39325077   6.225   0.296   0.465  0.5393 -0.9032  0.3723
   23MOL   C39425078   6.201   0.424   0.620 -0.3398 -0.1843 -0.3130
   23MOL   O39525079   6.150   0.448   0.726 -0.1145 -0.0947  0.3721
   23MOL   C39625080   6.321   0.506   0.564 -0.2838  1.1765 -0.4439
   23MOL   C39725081   6.349   0.628   0.648  0.6495 -0.2207 -0.6399
   23MOL   C39825082   6.486   0.677   0.607 -0.1665  0.4935  0.2717
   23MOL   C39925083   6.534   0.795   0.691  0.3365 -0.4799 -0.0563
   23MOL   C40025084   6.582   0.770   0.836  0.4540  0.2554  0.3095
   23MOL   C40125085   6.586   0.892   0.925 -0.2543  1.2576 -0.0151
   23MOL   C40225086   6.637   0.871   1.068  1.0471  0.1896  0.4310
   23MOL   C40325087   6.683   0.991   1.137 -0.1832 -0.3859  0.2452
   23MOL   C40425088   6.775   0.954   1.258 -0.2091 -0.2043 -0.2961
   23MOL   C40525089   6.710   0.877   1.378 -0.0786  1.1318 -0.4095
   23MOL   C40625090   6.624   0.965   1.470  0.1758  0.9053  0.0769
   23MOL   O40725091   6.648   1.081   1.486  0.1736 -0.0684 -0.0138
   23MOL   N40825092   6.529   0.895   1.535  0.2068 -0.2103 -0.4708
   23MOL   C40925093   6.435   0.957   1.631 -0.5051  0.5326 -0.0813
   23MOL   C41025094   6.486   0.954   1.777  0.2711  0.2413  0.0562
   23MOL   C41125095   6.399   1.029   1.870  0.4902  0.5658  0.1723
   23MOL   C41225096   6.466   1.037   2.017 -0.3483  0.2218  0.8014
   23MOL   C41325097   6.375   1.107   2.112  0.5335 -0.1047 -0.0756
   23MOL   C41425098   6.441   1.138   2.247 -0.4913  0.1790  0.0462
   23MOL   N41525099   6.525   1.028   2.289 -0.3402 -0.7908 -0.2353
   23MOL   H41625100   6.293   0.548   0.468  1.4210  2.2936 -0.4662
   23MOL   H41725101   6.407   0.440   0.551 -1.6619 -0.3807 -1.9619
   23MOL   H41825102   6.338   0.604   0.754  0.9216 -0.3943 -0.6501
   23MOL   H41925103   6.276   0.709   0.636  0.2901 -0.1674  1.6974
   23MOL   H42025104   6.486   0.702   0.501  0.1910 -0.7589 -0.0346
   23MOL   H42125105   6.565   0.602   0.612  0.2049  0.8562 -0.1800
   23MOL   H42225106   6.467   0.881   0.692  0.6671 -0.2067  2.8198
   23MOL   H42325107   6.625   0.834   0.645  0.1824 -0.3731 -0.2708
   23MOL   H42425108   6.503   0.711   0.882 -0.5208  0.6381 -0.8491
   23MOL   H42525109   6.675   0.712   0.834  0.8044  0.8148  0.2583
   23MOL   H42625110   6.659   0.959   0.879  0.9727 -0.3591 -0.4653
   23MOL   H42725111   6.488   0.940   0.929 -1.1583 -0.6986  2.7462
   23MOL   H42825112   6.560   0.823   1.128  2.0209 -2.2682 -0.2337
   23MOL   H42925113   6.723   0.805   1.055  0.1706 -1.1870  1.5814
   23MOL   H43025114   6.746   1.057   1.078  1.9187 -1.4007  1.2644
   23MOL   H43125115   6.602   1.044   1.187  1.8470  3.6695 -0.5468
   23MOL   H43225116   6.829   1.037   1.303  2.6059 -1.8159 -0.5780
   23MOL   H43325117   6.867   0.903   1.230 -1.4458 -3.7723  1.7860
   23MOL   H43425118   6.657   0.789   1.342  2.3434  0.1459 -1.6846
   23MOL   H43525119   6.786   0.826   1.436 -1.0633 -0.2405 -0.3087
   23MOL   H43625120   6.525   0.794   1.535 -0.3683 -0.2103  0.8533
   23MOL   H43725121   6.340   0.907   1.614 -0.5451  0.5761  0.0119
   23MOL   H43825122   6.411   1.058   1.598 -0.1673 -0.3091 -2.9939
   23MOL   H43925123   6.587   0.992   1.766  1.6540 -2.7291  1.7455
   23MOL   H44025124   6.498   0.849   1.804  0.3841 -0.7397 -3.4930
   23MOL   H44125125   6.392   1.127   1.824  1.2432  1.7989  2.6511
   23MOL   H44225126   6.295   0.998   1.881  0.4473  0.3292 -0.8114
   23MOL   H44325127   6.492   0.935   2.045 -0.5432 -0.2584 -0.7387
   23MOL   H44425128   6.557   1.095   2.004 -1.2802  1.5224 -0.0883
   23MOL   H44525129   6.350   1.207   2.077  0.3423 -0.0582  0.1891
   23MOL   H44625130   6.288   1.043   2.121  0.9541 -0.5791  0.6776
   23MOL   H44725131   6.502   1.226   2.227  0.3052 -0.5265 -0.6477
   23MOL   H44825132   6.376   1.162   2.331  0.0832 -2.4508  1.2718
   23MOL   H44925133   6.625   1.038   2.274  0.1400 -1.8531  1.9233
   23MOL   C45025134   6.480   0.923   2.365  0.0500 -0.4723  0.1617
   23MOL   O45125135   6.364   0.922   2.399  0.3613 -0.3579  0.2506
   23MOL   C45225136   6.578   0.820   2.423 -0.2351  0.3556 -0.6725
   23MOL   C45325137   6.534   0.677   2.384 -0.0173  0.6057 -0.1721
   23MOL   C45425138   6.554   0.641   2.240 -0.3773  0.0119 -0.1117
   23MOL   C45525139   6.535   0.489   2.204 -0.1356  0.4051 -1.0651
   23MOL   C45625140   6.548   0.453   2.049 -0.3882  0.8047 -0.6390
   23MOL   C45725141   6.505   0.311   2.019  0.0668  0.1490 -0.0565
   23MOL   C45825142   6.587   0.209   2.095 -0.0759  0.3353  0.0589
   23MOL   C45925143   6.534   0.144   2.224  1.1022 -0.0382  0.0462
   23MOL   C46025144   6.639   0.076   2.310 -0.5709  0.0938  0.0841
   23MOL   C46125145   6.577   0.016   2.436 -0.0881  0.2699  0.3473
   23MOL   C46225146   6.524   0.128   2.536  0.0580 -0.3909 -0.1922
   23MOL   O46325147   6.593   0.229   2.560 -0.3600  0.1668 -1.1149
   23MOL   N46425148   6.394   0.118   2.584 -0.9544 -0.1185  0.6910
   23MOL   C46525149   6.301   0.224   2.631  0.1993  0.1483  0.2060
   23MOL   C46625150   6.183   0.238   2.529 -0.1350 -0.5051  0.4852
   23MOL   C46725151   6.096   0.362   2.558  0.4430 -0.7161  0.3859
   23MOL   C46825152   5.975   0.380   2.467 -0.1331  0.0629  0.0790
   23MOL   C46925153   5.898   0.513   2.499  0.2259  0.0890 -0.8837
   23MOL   C47025154   5.753   0.518   2.446  0.0067 -0.0276  0.1806
   23MOL   N47125155   5.692   0.637   2.500  0.1168 -0.5112 -0.3924
   23MOL   H47225156   6.682   0.844   2.399 -0.5950  2.7408  0.0414
   23MOL   H47325157   6.570   0.837   2.530 -1.2032  0.4301 -0.7537
   23MOL   H47425158   6.433   0.656   2.420  0.1080  1.4332  0.6794
   23MOL   H47525159   6.589   0.606   2.446  1.9530  1.6902 -0.6478
   23MOL   H47625160   6.660   0.651   2.217 -0.3024 -1.8165 -0.6911
   23MOL   H47725161   6.505   0.714   2.175 -0.1537  1.3167  1.1651
   23MOL   H47825162   6.443   0.449   2.246 -0.0239  1.8876  0.6828
   23MOL   H47925163   6.606   0.429   2.262  0.8985  0.5206 -2.1963
   23MOL   H48025164   6.653   0.449   2.022 -1.1019  0.0737 -3.5191
   23MOL   H48125165   6.490   0.516   1.981 -1.2135  1.4954  0.6742
   23MOL   H48225166   6.502   0.291   1.912 -1.4403 -1.0661  0.1858
   23MOL   H48325167   6.400   0.297   2.044  0.7486  0.6142  3.2449
   23MOL   H48425168   6.598   0.127   2.024 -0.9453 -0.2904  0.6323
   23MOL   H48525169   6.685   0.253   2.115 -0.0790  0.8695 -1.0441
   23MOL   H48625170   6.488   0.218   2.291  0.0325  0.3733 -1.1120
   23MOL   H48725171   6.458   0.079   2.182  0.0148  0.0553  1.7942
   23MOL   H48825172   6.701   0.156   2.350  0.7174 -1.5944  1.5420
   23MOL   H48925173   6.703   0.006   2.256  0.1236 -0.8081  2.0296
   23MOL   H49025174   6.490   7.647   2.412 -0.3195  0.6307  0.2624
   23MOL   H49125175   6.647   7.641   2.485 -0.3998  0.5668  1.2084
   23MOL   H49225176   6.350   0.034   2.550  0.7517 -0.3233 -1.0614
   23MOL   H49325177   6.347   0.322   2.642 -1.1092  0.7447  0.4373
   23MOL   H49425178   6.257   0.192   2.726  0.2149  0.3545  0.2809
   23MOL   H49525179   6.222   0.256   2.429  2.5329 -0.2708  1.5184
   23MOL   H49625180   6.130   0.143   2.532  1.6227 -1.5554 -0.4413
   23MOL   H49725181   6.163   0.448   2.550  2.1030 -1.9792  0.2967
   23MOL   H49825182   6.063   0.354   2.662  1.5526 -0.8142  0.7382
   23MOL   H49925183   5.908   0.295   2.480  2.0643 -1.5014  1.6906
   23MOL   H50025184   6.003   0.389   2.362 -2.5044  0.4897 -0.5390
   23MOL   H50125185   5.882   0.517   2.607  2.1309  0.4637 -0.6054
   23MOL   H50225186   5.959   0.596   2.467  0.0709  0.3888 -0.4068
   23MOL   H50325187   5.758   0.528   2.338 -1.0976 -1.8735 -0.0609
   23MOL   H50425188   5.692   0.433   2.474  1.2789 -1.0069  0.0157
   23MOL   H50525189   5.707   0.725   2.452  2.2538 -0.2052  0.7621
   23MOL   C50625190   5.627   0.646   2.614 -0.5565  0.4166  0.4334
   23MOL   O50725191   5.630   0.553   2.690  0.0324  0.2457  0.3576
   23MOL   C50825192   5.557   0.770   2.654  0.6105 -0.5902  0.1258
   23MOL   C50925193   5.652   0.889   2.677 -0.1133  1.2420 -0.4449
   23MOL   C51025194   5.757   0.869   2.788 -0.7046  0.3271 -0.3820
   23MOL   C51125195   5.700   0.846   2.932  0.2861 -0.0317  0.5968
   23MOL   C51225196   5.792   0.786   3.037 -0.7342 -0.0547  0.2072
   23MOL   C51325197   5.931   0.859   3.057 -0.3401  0.3846  0.4878
   23MOL   C51425198   6.041   0.766   3.118 -0.1977 -0.1740 -0.4083
   23MOL   C51525199   5.998   0.699   3.253 -0.6173 -1.1355 -0.4699
   23MOL   C51625200   6.096   0.594   3.312 -0.6502 -0.2814  0.1049
   23MOL   C51725201   6.045   0.504   3.428  0.2875  0.0006 -0.7177
   23MOL   C51825202   6.164   0.450   3.506 -0.5108 -0.4609  0.0200
   23MOL   O51925203   6.270   0.429   3.446  0.4920 -0.3096  0.0695
   23MOL   N52025204   6.152   0.426   3.636  0.1145  0.0392  0.6944
   23MOL   C52125205   6.263   0.364   3.711 -0.4569 -0.8599 -0.4565
   23MOL   C52225206   6.283   0.438   3.846  0.2623  0.7895 -0.6884
   23MOL   C52325207   6.163   0.409   3.936  1.2940  0.4203 -0.2173
   23MOL   C52425208   6.154   0.478   4.075  0.5509  0.3344  0.0122
   23MOL   C52525209   6.038   0.435   4.174  0.5799  0.0279  0.3085
   23MOL   C52625210   6.039   0.289   4.216 -0.0366  0.2218  0.4831
   23MOL   N52725211   5.951   0.268   4.324 -0.3182  0.5995  0.4735
   23MOL   H52825212   5.491   0.741   2.736 -0.7382 -1.3158 -1.1918
   23MOL   H52925213   5.481   0.789   2.579 -1.3800 -1.1482  1.9568
   23MOL   H53025214   5.578   0.963   2.706 -2.6974 -1.2658 -0.4435
   23MOL   H53125215   5.699   0.911   2.581  0.5858 -0.2076 -0.4446
   23MOL   H53225216   5.818   0.959   2.784  0.7613 -0.5977  0.5917
   23MOL   H53325217   5.820   0.786   2.757 -3.8621 -2.1378 -0.4135
   23MOL   H53425218   5.679   0.938   2.986 -0.5181  0.2334 -0.1501
   23MOL   H53525219   5.612   0.782   2.926  0.4191 -0.0964 -1.0542
   23MOL   H53625220   5.746   0.776   3.136 -0.8363 -0.4573  0.1196
   23MOL   H53725221   5.797   0.683   3.003 -3.1653 -0.3343  0.6016
   23MOL   H53825222   5.973   0.887   2.960 -1.0798 -2.7200 -0.7987
   23MOL   H53925223   5.906   0.942   3.123 -1.0269  0.9461 -0.4615
   23MOL   H54025224   6.067   0.685   3.049 -1.1219  0.3184 -1.3462
   23MOL   H54125225   6.135   0.822   3.126 -1.4111  1.8195  0.2005
   23MOL   H54225226   5.982   0.778   3.326  1.3198  0.5527 -1.8401
   23MOL   H54325227   5.905   0.645   3.234 -1.1149  0.3158 -2.3169
   23MOL   H54425228   6.186   0.645   3.344 -1.0999  2.3585 -2.6149
   23MOL   H54525229   6.105   0.533   3.222 -1.1715  1.4651 -1.1716
   23MOL   H54625230   5.967   0.544   3.493 -0.0300 -1.7601  0.0012
   23MOL   H54725231   5.989   0.424   3.381 -0.1824 -0.1903  0.1493
   23MOL   H54825232   6.062   0.437   3.681 -0.6098  0.5719 -0.8699
   23MOL   H54925233   6.358   0.382   3.661 -0.1824 -1.0838 -0.0313
   23MOL   H55025234   6.256   0.257   3.731 -0.3330 -0.7906 -0.0302
   23MOL   H55125235   6.280   0.547   3.841 -0.4468  0.7426 -1.3297
   23MOL   H55225236   6.381   0.412   3.888 -0.4297 -0.9571 -0.0980
   23MOL   H55325237   6.152   0.301   3.947 -1.5169  0.7461  0.7524
   23MOL   H55425238   6.073   0.438   3.882  1.0888 -0.2948 -0.2699
   23MOL   H55525239   6.139   0.586   4.064 -0.9731  0.1366 -0.0299
   23MOL   H55625240   6.247   0.457   4.127  0.4831  0.2065  0.0812
   23MOL   H55725241   6.049   0.501   4.260  0.5774 -0.0236  0.3480
   23MOL   H55825242   5.946   0.459   4.120  0.4903  0.0214  0.4563
   23MOL   H55925243   6.023   0.222   4.132 -1.8057 -0.5114  1.3905
   23MOL   H56025244   6.139   0.263   4.251  0.4895 -1.1493 -1.9312
   23MOL   H56125245   5.993   0.268   4.416  1.8425  3.5556 -0.4301
   23MOL   C56225246   5.817   0.252   4.320  0.3165  0.4072 -0.7193
   23MOL   O56325247   5.749   0.239   4.216 -0.4645 -0.1440 -0.0944
   23MOL   C56425248   5.753   0.235   4.457  0.6303  1.3133  0.6022
   23MOL   C56525249   5.666   0.356   4.498 -0.3905 -0.0664 -0.2800
   23MOL   C56625250   5.616   0.335   4.644 -0.4691 -0.0701  0.0525
   23MOL   C56725251   5.726   0.341   4.753  0.1262  0.3810 -0.2436
   23MOL   C56825252   5.790   0.474   4.767  0.0592  0.2065  0.0503
   23MOL   C56925253   5.923   0.468   4.845 -0.1377 -0.3329  0.2060
   23MOL   C57025254   5.971   0.604   4.887  0.1156  0.0747  0.1244
   23MOL   C57125255   6.094   0.602   4.977  0.6410  0.1639 -0.1854
   23MOL   C57225256   6.137   0.743   5.003  0.0700  0.3182  1.1296
   23MOL   C57325257   6.254   0.767   5.103  0.6017 -0.3259 -0.2118
   23MOL   C57425258   6.245   0.702   5.241 -0.3360 -0.6112 -0.0972
   23MOL   O57525259   6.155   0.734   5.315  0.0770 -0.3472  0.5900
   23MOL   N57625260   6.348   0.621   5.276 -0.4943  0.1354 -0.1123
   23MOL   C57725261   6.371   0.559   5.405 -0.2431  0.1758 -0.3191
   23MOL   C57825262   6.497   0.602   5.477 -0.1978 -0.4904 -0.2948
   23MOL   C57925263   6.517   0.749   5.488 -0.0096 -0.0355  0.1772
   23MOL   C58025264   6.634   0.780   5.591  0.2869  0.3044  0.9202
   23MOL   C58125265   6.643   0.924   5.627  0.1809  0.2252  0.1422
   23MOL   C58225266   6.693   1.012   5.512 -0.0158 -0.8341  0.4076
   23MOL   N58325267   6.683   1.158   5.542  1.1824 -1.0028  0.4648
   23MOL   H58425268   5.706   0.138   4.468  3.1271  0.0371  0.4297
   23MOL   H58525269   5.839   0.231   4.523 -0.2670 -2.2391  1.6241
   23MOL   H58625270   5.736   0.440   4.495  0.6250 -0.6716  3.1256
   23MOL   H58725271   5.583   0.369   4.430 -1.8366  2.1389  1.8430
   23MOL   H58825272   5.544   0.254   4.655 -0.4555 -0.0997 -0.0752
   23MOL   H58925273   5.550   0.414   4.680 -1.7528 -1.7500  1.4794
   23MOL   H59025274   5.676   0.317   4.847 -2.2533  2.3085 -0.9721
   23MOL   H59125275   5.802   0.268   4.724  0.8753  1.4559 -1.0110
   23MOL   H59225276   5.821   0.516   4.671 -2.4062 -1.7939 -1.6823
   23MOL   H59325277   5.718   0.545   4.809  0.9291  0.5226  1.0222
   23MOL   H59425278   5.903   0.401   4.929  1.0604 -0.2673  0.5513
   23MOL   H59525279   6.003   0.429   4.781 -0.5702 -2.1899  0.7596
   23MOL   H59625280   6.001   0.656   4.795  0.4552  0.0470  0.2209
   23MOL   H59725281   5.893   0.661   4.937  0.1737 -0.1222  0.4382
   23MOL   H59825282   6.170   0.550   4.918  3.0274 -0.5185  3.3304
   23MOL   H59925283   6.074   0.548   5.070  1.6653 -1.9879 -1.1822
   23MOL   H60025284   6.048   0.796   5.037 -1.1126  0.7175 -2.3852
   23MOL   H60125285   6.168   0.777   4.904  1.1496 -1.6140  0.7649
   23MOL   H60225286   6.358   0.756   5.072  0.3986 -0.6896 -0.7635
   23MOL   H60325287   6.238   0.868   5.142 -1.2993 -1.0449  0.9663
   23MOL   H60425288   6.417   0.619   5.203  0.2465  1.9750  0.4927
   23MOL   H60525289   6.376   0.452   5.384 -0.1166 -0.2696  1.8848
   23MOL   H60625290   6.284   0.571   5.470 -0.5155  0.2650 -0.6950
   23MOL   H60725291   6.581   0.563   5.418 -0.1648  0.1973 -0.7017
   23MOL   H60825292   6.501   0.560   5.577  2.3437 -2.2449 -1.0873
   23MOL   H60925293   6.429   0.795   5.533 -1.5461 -2.4588 -0.2366
   23MOL   H61025294   6.532   0.792   5.389 -0.3215 -0.3156  0.0072
   23MOL   H61125295   6.625   0.715   5.678  2.1227 -0.6766  0.4021
   23MOL   H61225296   6.729   0.748   5.550 -1.0959  0.4823 -2.5943
   23MOL   H61325297   6.714   0.937   5.709  1.1787  1.2208 -0.8494
   23MOL   H61425298   6.546   0.963   5.658 -0.6851 -1.0619 -0.8614
   23MOL   H61525299   6.792   0.987   5.476  0.2018 -1.8343  1.6596
   23MOL   H61625300   6.631   0.999   5.423 -1.5368 -0.0326  1.3283
   23MOL   H61725301   6.596   1.207   5.554  1.6697 -0.1739  0.6816
   23MOL   C61825302   6.790   1.240   5.526 -0.6150  0.7617  0.1372
   23MOL   O61925303   6.903   1.206   5.505  0.4565 -0.3630  0.1443
   23MOL   C62025304   6.769   1.395   5.542  0.0529 -0.3718  0.8156
   23MOL   C62125305   6.878   1.464   5.629  0.5353 -0.0111 -0.2572
   23MOL   C62225306   6.822   1.592   5.677 -1.0761  0.7655  0.0201
   23MOL   C62325307   6.925   1.669   5.751 -0.5388  1.1017  0.5178
   23MOL   C62425308   6.874   1.808   5.785  1.0459 -0.6684 -0.4340
   23MOL   C62525309   6.971   1.901   5.857 -0.3560  0.0987  0.0090
   23MOL   C62625310   7.109   1.929   5.788 -1.4722  0.1675  0.1451
   23MOL   C62725311   7.099   1.986   5.644 -0.4144  0.3010 -0.6606
   23MOL   C62825312   7.222   2.032   5.568  0.2853  0.3910  0.3010
   23MOL   C62925313   7.203   2.057   5.422 -0.2046 -0.0575 -0.2072
   23MOL   C63025314   7.318   2.024   5.334 -0.4598  0.5760  0.0629
   23MOL   O63125315   7.325   1.916   5.270  0.1574 -0.0425  0.1353
   23MOL   N63225316   7.408   2.122   5.326 -0.1740 -0.6437 -0.1012
   23MOL   C63325317   7.519   2.139   5.238  0.1797 -0.2275  0.1051
   23MOL   C63425318   7.640   2.039   5.264  0.0867 -0.2329 -0.2078
   23MOL   C63525319   0.047   2.061   5.151  0.1663  0.1812 -0.0393
   23MOL   C63625320   0.171   1.956   5.142 -0.2471  0.5243  0.1135
   23MOL   C63725321   0.274   1.957   5.261  0.3189  0.4089 -0.8259
   23MOL   C63825322   0.396   1.868   5.241 -0.5444  0.5897 -0.1539
   23MOL   N63925323   0.492   1.882   5.343 -0.6039 -0.4806 -0.4746
   23MOL   H64025324   6.674   1.427   5.583 -0.6166  1.7489 -2.2438
   23MOL   H64125325   6.759   1.438   5.442  0.8883  0.4564  1.0843
   23MOL   H64225326   6.965   1.480   5.566  0.2002  4.6802  0.3466
   23MOL   H64325327   6.901   1.402   5.716 -1.6939  0.0206  0.3854
   23MOL   H64425328   6.734   1.573   5.738 -1.2612 -0.3942 -0.5998
   23MOL   H64525329   6.811   1.653   5.588 -0.2168  0.7653 -0.0918
   23MOL   H64625330   6.944   1.605   5.836  1.1399  0.5705 -0.2469
   23MOL   H64725331   7.017   1.675   5.694 -0.9158  1.1350 -0.0982
   23MOL   H64825332   6.834   1.848   5.692  0.2847 -2.0523 -0.7256
   23MOL   H64925333   6.784   1.794   5.845  0.3500  0.5207 -1.1821
   23MOL   H65025334   6.997   1.865   5.957 -0.1770  0.0570 -0.0544
   23MOL   H65125335   6.908   1.989   5.870  1.4978  1.2104  1.8315
   23MOL   H65225336   7.174   1.997   5.843 -1.2376  0.3699 -0.3766
   23MOL   H65325337   7.162   1.833   5.784 -1.6195  0.1192 -0.9410
   23MOL   H65425338   7.025   1.927   5.589 -0.6325  0.3869 -0.4619
   23MOL   H65525339   7.048   2.080   5.661 -0.9645  0.0342 -0.8119
   23MOL   H65625340   7.291   1.948   5.580 -0.7080 -0.7114 -1.3640
   23MOL   H65725341   7.263   2.120   5.616  1.9327  0.5541 -1.3275
   23MOL   H65825342   7.118   2.003   5.381 -1.6445  0.4567  2.0061
   23MOL   H65925343   7.173   2.160   5.403 -1.9595 -0.8809 -2.2141
   23MOL   H66025344   7.383   2.208   5.373  0.3376 -0.4241 -0.2246
   23MOL   H66125345   7.480   2.142   5.137  1.8479 -0.7223 -0.5656
   23MOL   H66225346   7.563   2.238   5.251 -0.5823  0.1199  0.0513
   23MOL   H66325347   7.619   1.932   5.265  0.4901 -0.3091  1.2089
   23MOL   H66425348   7.683   2.064   5.361 -0.5373 -1.8110  0.4908
   23MOL   H66525349   7.680   2.055   5.059 -0.9541 -1.8279  0.7664
   23MOL   H66625350   0.065   2.168   5.154  0.3313  0.1283  1.3512
   23MOL   H66725351   0.229   1.971   5.051 -0.2282  1.5054  0.2773
   23MOL   H66825352   0.136   1.855   5.123 -0.8473  0.1532  2.9516
   23MOL   H66925353   0.307   2.059   5.284 -1.3361  0.5390  1.0664
   23MOL   H67025354   0.220   1.923   5.349  1.8843  0.3289  0.1193
   23MOL   H67125355   0.380   1.761   5.229  2.0537  0.4372 -2.8278
   23MOL   H67225356   0.440   1.906   5.149  0.5695  0.2347  0.2288
   23MOL   H67325357   0.537   1.971   5.360 -0.0845 -0.7923 -0.2268
   23MOL   C67425358   0.510   1.789   5.437 -0.1957 -0.3488  0.5837
   23MOL   O67525359   0.469   1.676   5.430 -0.2178 -0.2888 -0.2000
   23MOL   C67625360   0.595   1.832   5.559 -0.4856  0.2937  0.1668
   23MOL   C67725361   0.614   1.732   5.672  0.3743  0.0437 -0.2383
   23MOL   C67825362   0.704   1.787   5.784  0.0715  0.4080  0.7921
   23MOL   C67925363   0.736   1.679   5.888 -0.5657 -0.1153  0.1151
   23MOL   C68025364   0.806   1.738   6.011 -0.0462 -0.6397 -0.9388
   23MOL   C68125365   0.700   1.789   6.117 -0.1512 -0.7530  0.2553
   23MOL   C68225366   0.760   1.841   6.250  0.5138  1.2568 -0.1667
   23MOL   C68325367   0.670   1.935   6.327  0.7652 -0.3332  0.5941
   23MOL   C68425368   0.739   1.980   6.455  0.3324 -0.2209 -0.3200
   23MOL   C68525369   0.646   2.068   6.553  0.0868  0.4706 -0.6875
   23MOL   C68625370   0.621   2.214   6.506 -0.3050  0.2631  0.2871
   23MOL   O68725371   0.713   2.297   6.494  0.3760  0.8321  0.2551
   23MOL   N68825372   0.492   2.237   6.476 -0.9239  0.1043 -0.2129
   23MOL   C68925373   0.433   2.360   6.434 -0.3030  0.2298  0.2104
   23MOL   C69025374   0.284   2.337   6.401  0.2587 -0.3602 -0.3076
   23MOL   C69125375   0.250   2.246   6.285 -0.0965  0.1388  0.4590
   23MOL   C69225376   0.108   2.200   6.287  0.5764  0.2761  0.1253
   23MOL   C69325377   0.086   2.096   6.173 -0.0567  0.0287  0.6612
   23MOL   C69425378   7.627   2.062   6.136  0.6206 -0.7524  0.0696
   23MOL   N69525379   7.568   2.154   6.038 -0.1108 -0.3833  0.1432
   23MOL   H69625380   0.548   1.922   5.598 -0.1824 -0.1338  1.5517
   23MOL   H69725381   0.688   1.871   5.518 -1.1054  1.1772 -0.4108
   23MOL   H69825382   0.653   1.643   5.623  0.2868 -0.0053 -0.2185
   23MOL   H69925383   0.520   1.694   5.712  0.6661  1.4624  1.8715
   23MOL   H70025384   0.793   1.833   5.742  0.7007 -2.0713 -0.7043
   23MOL   H70125385   0.645   1.868   5.829  0.0874  0.2099  1.1711
   23MOL   H70225386   0.806   1.616   5.831 -1.2816  0.2872 -1.2425
   23MOL   H70325387   0.652   1.617   5.919  0.1147 -1.4314 -0.6069
   23MOL   H70425388   0.862   1.827   5.982 -1.1211 -0.0655 -1.2836
   23MOL   H70525389   0.862   1.657   6.056 -0.5392  0.2990  1.4654
   23MOL   H70625390   0.649   1.874   6.072  1.5894  0.5009  0.5748
   23MOL   H70725391   0.617   1.721   6.137 -0.4303 -0.9379 -1.4937
   23MOL   H70825392   0.797   1.763   6.316 -1.9219 -0.3111 -0.5971
   23MOL   H70925393   0.854   1.889   6.223  0.9269  2.3266  2.9442
   23MOL   H71025394   0.644   2.024   6.269  1.5846 -1.8258 -2.1338
   23MOL   H71125395   0.570   1.892   6.337  0.0360  0.7215 -1.7221
   23MOL   H71225396   0.837   2.022   6.432  0.6476 -0.8710 -0.1942
   23MOL   H71325397   0.787   1.897   6.507 -1.4228 -1.4431 -0.5828
   23MOL   H71425398   0.551   2.017   6.568  0.4241  0.6172  2.4761
   23MOL   H71525399   0.686   2.080   6.654  0.5048  2.0259 -1.0359
   23MOL   H71625400   0.439   2.154   6.452 -0.6843 -0.8237  2.2764
   23MOL   H71725401   0.454   2.432   6.513  1.2510  0.5161 -0.4510
   23MOL   H71825402   0.489   2.411   6.355  0.2372 -0.1428  0.3491
   23MOL   H71925403   0.228   2.430   6.387  1.7274  0.6635  0.3995
   23MOL   H72025404   0.235   2.298   6.490  0.0668  1.6417  0.4994
   23MOL   H72125405   0.277   2.297   6.193  1.2214 -1.2374  0.0657
   23MOL   H72225406   0.315   2.159   6.289  0.7606  0.7813  0.5598
   23MOL   H72325407   0.040   2.281   6.262  2.4037  1.0816 -2.5000
   23MOL   H72425408   0.074   2.160   6.382  0.9991  1.2951  0.7117
   23MOL   H72525409   0.146   2.007   6.191  0.0175 -0.1036 -0.2324
   23MOL   H72625410   0.130   2.146   6.087  0.0806  1.5108  1.5876
   23MOL   H72725411   7.640   1.961   6.096 -0.2737 -1.4584  1.4932
   23MOL   H72825412   7.574   2.058   6.232  1.5184 -3.2748  0.5057
   23MOL   H72925413   7.570   2.250   6.070  1.9870 -1.0962  2.3288
   23MOL   C73025414   7.533   2.124   5.911 -0.6906 -0.2921 -0.3320
   23MOL   O73125415   7.541   2.011   5.865 -0.3134 -0.1456  0.3985
   23MOL   C73225416   7.468   2.240   5.838 -0.0309  0.3673  0.4615
   23MOL   C73325417   7.521   2.266   5.698  0.2885 -0.4324 -0.3598
   23MOL   C73425418   7.652   2.331   5.681 -0.2975 -0.0226  0.1480
   23MOL   C73525419   0.005   2.329   5.532  0.4257  0.5804 -0.0447
   23MOL   C73625420   0.158   2.360   5.511  0.3286  0.5947 -0.6997
   23MOL   C73725421   0.189   2.371   5.363 -0.5157 -0.0794 -0.0393
   23MOL   C73825422   0.102   2.459   5.270 -0.8159  0.6482  0.2354
   23MOL   C73925423   0.112   2.610   5.302  0.1134 -1.0616 -0.1650
   23MOL   C74025424   0.032   2.693   5.210 -0.4998 -0.0302  0.3280
   23MOL   C74125425   7.573   2.677   5.223 -0.4946 -0.4428  0.0056
   23MOL   C74225426   7.506   2.782   5.126  0.3371 -0.2705  1.3112
   23MOL   O74325427   7.488   2.896   5.169  0.3154  0.3191 -0.1629
   23MOL   N74425428   7.478   2.741   5.001 -0.8159 -0.4061  0.5190
   23MOL   C74525429   7.414   2.819   4.898  0.9520  0.5397  0.2461
   23MOL   C74625430   7.397   2.735   4.769 -0.3031  1.3880  0.1582
   23MOL   C74725431   7.329   2.811   4.653 -0.2449  0.5812  1.0247
   23MOL   C74825432   7.350   2.726   4.523  0.3572 -0.0551 -0.3785
   23MOL   C74925433   7.307   2.807   4.391 -0.7549 -0.4111  0.1440
   23MOL   C75025434   7.313   2.731   4.252 -0.3292  0.2567  0.5396
   23MOL   N75125435   7.251   2.801   4.144 -0.1956  0.6046  0.4683
   23MOL   H75225436   7.479   2.329   5.900  2.1200  0.4576  0.0077
   23MOL   H75325437   7.360   2.226   5.842  0.0930 -0.6692  0.3418
   23MOL   H75425438   7.441   2.322   5.651  0.6461  0.5277  0.1763
   23MOL   H75525439   7.537   2.171   5.645 -0.9420 -0.8487  0.0147
   23MOL   H75625440   0.037   2.276   5.736  0.2811 -0.7070 -1.3099
   23MOL   H75725441   7.667   2.437   5.703 -2.4748  1.1630 -3.5272
   23MOL   H75825442   7.627   2.395   5.480 -0.6537  0.5754  1.3556
   23MOL   H75925443   7.685   2.225   5.501 -1.3835  0.4817  0.8955
   23MOL   H76025444   0.218   2.285   5.561 -2.3935 -1.0854  0.1240
   23MOL   H76125445   0.177   2.456   5.558  3.1116 -0.6893  0.8823
   23MOL   H76225446   0.292   2.406   5.360 -0.7444  0.4821 -3.8022
   23MOL   H76325447   0.190   2.273   5.316 -0.4613  0.0980 -0.4084
   23MOL   H76425448   0.142   2.443   5.169 -1.9828 -0.4933 -0.0712
   23MOL   H76525449   7.688   2.431   5.264 -0.6538  0.2079 -0.7383
   23MOL   H76625450   0.093   2.638   5.405  2.5083 -0.6632  0.1917
   23MOL   H76725451   0.214   2.633   5.273 -0.9741  0.8995 -2.6851
   23MOL   H76825452   0.068   2.682   5.108 -0.3579  0.6600  0.2963
   23MOL   H76925453   0.056   2.798   5.228 -2.9551  0.4595  0.8707
   23MOL   H77025454   7.554   2.580   5.177 -1.0475  1.3977 -3.7983
   23MOL   H77125455   7.552   2.697   5.328 -1.4706  1.0067 -0.4503
   23MOL   H77225456   7.502   2.646   4.980 -0.7916 -0.1258 -0.7543
   23MOL   H77325457   7.476   2.905   4.874 -2.1462  2.8647  0.1733
   23MOL   H77425458   7.310   2.846   4.918  1.1612  2.3907 -1.0073
   23MOL   H77525459   7.335   2.648   4.793 -0.0306  0.2746 -2.9524
   23MOL   H77625460   7.495   2.701   4.734  0.1005  1.3558  1.3110
   23MOL   H77725461   7.383   2.906   4.646 -1.3550  1.3037  2.0749
   23MOL   H77825462   7.223   2.827   4.668 -0.4233  0.8675 -0.4409
   23MOL   H77925463   7.453   2.692   4.523 -0.4409 -2.6287  1.6792
   23MOL   H78025464   7.283   2.641   4.530  1.4753 -0.8401  0.8948
   23MOL   H78125465   7.364   2.899   4.391  0.3640 -1.0930  0.0272
   23MOL   H78225466   7.207   2.844   4.413 -0.0757  0.7882  1.3109
   23MOL   H78325467   7.411   2.701   4.216 -1.0215  0.4752 -1.5971
   23MOL   H78425468   7.263   2.635   4.262 -2.3179  0.9830 -1.8951
   23MOL   H78525469   7.226   2.896   4.164 -1.6789  0.3083  0.1018
   23MOL   C78625470   7.225   2.745   4.023 -0.7141 -0.2724  0.2724
   23MOL   O78725471   7.259   2.630   3.990 -0.4164 -0.1500  0.7486
   23MOL   C78825472   7.153   2.834   3.923  0.5262  0.1979  0.4564
   23MOL   C78925473   6.995   2.808   3.911  0.1004 -1.1089 -0.2040
   23MOL   C79025474   6.911   2.860   4.034 -1.2394  0.3010  0.0816
   23MOL   C79125475   6.765   2.874   3.993 -0.2433  0.0767  0.0747
   23MOL   C79225476   6.687   2.970   4.081 -0.5110 -0.0474 -0.2285
   23MOL   C79325477   6.697   3.114   4.030  0.3619  0.1216 -0.2063
   23MOL   C79425478   6.623   3.216   4.118 -0.2622  0.6529  1.0944
   23MOL   C79525479   6.679   3.233   4.263  0.2735  0.6431  0.3600
   23MOL   C79625480   6.587   3.319   4.351  0.8392  0.1920 -0.2169
   23MOL   C79725481   6.644   3.364   4.485  0.1100 -0.2034 -0.2046
   23MOL   C79825482   6.686   3.256   4.584  1.0145 -0.3083  0.4991
   23MOL   O79925483   6.627   3.148   4.592 -0.0676 -0.1963 -0.2050
   23MOL   N80025484   6.789   3.290   4.665 -0.0872 -0.2318  0.1712
   23MOL   C80125485   6.872   3.200   4.738  0.2775 -0.5133 -0.2036
   23MOL   C80225486   6.992   3.274   4.792  0.3947 -0.8595  0.1430
   23MOL   C80325487   7.104   3.184   4.855  0.2212 -0.0559  0.8776
   23MOL   C80425488   7.231   3.260   4.886 -0.5542 -0.8606  0.0793
   23MOL   C80525489   7.357   3.174   4.919 -0.4625  0.2035 -0.4145
   23MOL   C80625490   7.478   3.250   4.962  0.3623 -0.5304 -0.0776
   23MOL   N80725491   7.575   3.153   5.003  0.3551 -0.3007 -0.2467
   23MOL   H80825492   7.198   2.813   3.827  0.5909  0.1109  0.5052
   23MOL   H80925493   7.177   2.939   3.939  0.4388  0.6408 -2.2309
   23MOL   H81025494   6.960   2.845   3.815  1.4401  1.3845  0.2187
   23MOL   H81125495   6.998   2.699   3.904  0.8366 -1.0961 -0.1540
   23MOL   H81225496   6.946   2.958   4.069 -0.4832  0.8926 -2.2351
   23MOL   H81325497   6.933   2.796   4.120 -1.3352  0.2333  0.0556
   23MOL   H81425498   6.764   2.909   3.890  0.5293  0.0691  0.0631
   23MOL   H81525499   6.705   2.783   3.997  2.0703 -1.5586 -0.8872
   23MOL   H81625500   6.584   2.937   4.083  0.3567 -2.8774 -0.0735
   23MOL   H81725501   6.724   2.966   4.183  0.1572  1.8986 -0.3542
   23MOL   H81825502   6.802   3.144   4.041  0.4101  0.4378 -1.4718
   23MOL   H81925503   6.667   3.129   3.926 -0.6632  0.1265  0.0897
   23MOL   H82025504   6.624   3.311   4.065 -1.4477 -0.1163 -0.3341
   23MOL   H82125505   6.516   3.201   4.109 -0.0869 -0.3771  0.5560
   23MOL   H82225506   6.683   3.131   4.301 -0.4150 -0.1004 -1.5051
   23MOL   H82325507   6.780   3.273   4.259  0.4464 -0.0829 -4.2406
   23MOL   H82425508   6.488   3.275   4.365  0.0107  2.5857  1.8661
   23MOL   H82525509   6.575   3.411   4.294 -1.9781  0.2779  0.4011
   23MOL   H82625510   6.724   3.436   4.471 -1.0035  0.8651 -1.2459
   23MOL   H82725511   6.578   3.424   4.547  1.8943  2.9682 -1.3051
   23MOL   H82825512   6.826   3.381   4.642 -0.1640 -0.2234  0.0797
   23MOL   H82925513   6.907   3.120   4.672  1.0254  0.1333 -0.6051
   23MOL   H83025514   6.815   3.152   4.817 -1.4871  1.0967 -0.4923
   23MOL   H83125515   6.957   3.342   4.870  2.3115 -1.4711  1.5872
   23MOL   H83225516   7.025   3.329   4.704  0.8395 -0.4465  0.5599
   23MOL   H83325517   7.086   3.145   4.955 -1.9963 -0.8149  0.1952
   23MOL   H83425518   7.122   3.097   4.793 -1.5854  0.0231  0.2293
   23MOL   H83525519   7.213   3.330   4.968 -1.4877 -1.3914  0.3342
   23MOL   H83625520   7.251   3.322   4.799 -1.0680 -0.6371  0.1190
   23MOL   H83725521   7.379   3.115   4.830  0.1601 -0.6228  0.2767
   23MOL   H83825522   7.327   3.108   5.000 -0.5252 -2.4759 -2.5624
   23MOL   H83925523   7.446   3.313   5.045  1.8007 -1.1793  0.9925
   23MOL   H84025524   7.500   3.315   4.877 -1.7360  0.0545 -0.2072
   23MOL   H84125525   7.555   3.095   5.084  1.7521  2.0581  1.8521
   23MOL   C84225526   0.005   3.168   4.955 -0.1258  0.1546  0.8446
   23MOL   O84325527   0.041   3.251   4.872 -0.1506  0.4150  0.0568
   23MOL   C84425528   0.100   3.048   4.985 -0.7225  0.4776 -0.0742
   23MOL   C84525529   0.242   3.077   5.043 -0.1598  0.1364 -0.0141
   23MOL   C84625530   0.350   2.979   4.991 -0.2750 -0.1628  0.3865
   23MOL   C84725531   0.326   2.829   5.013  0.1985 -0.2000  0.2847
   23MOL   C84825532   0.459   2.755   4.995  0.9363 -0.0160  0.0585
   23MOL   C84925533   0.440   2.606   5.027 -0.2481  0.8066  0.3539
   23MOL   C85025534   0.571   2.527   5.003  0.1030 -0.1242  0.4518
   23MOL   C85125535   0.563   2.371   4.994 -0.2035 -0.0461  0.7943
   23MOL   C85225536   0.518   2.294   5.116  0.4890  0.4466  0.2460
   23MOL   C85325537   0.590   2.346   5.241 -0.0494  0.1942 -0.8448
   23MOL   C85425538   0.594   2.247   5.360 -0.2947  0.2171  0.4584
   23MOL   O85525539   0.634   2.132   5.350 -0.5810  0.0106  0.2845
   23MOL   N85625540   0.528   2.290   5.469 -0.5596 -0.4053  0.0642
   23MOL   C85725541   0.513   2.220   5.600  0.0782 -0.5120  0.3507
   23MOL   C85825542   0.487   2.321   5.716  1.0449 -0.6752  0.4540
   23MOL   C85925543   0.430   2.263   5.848 -0.4565  0.4665  0.7773
   23MOL   C86025544   0.525   2.154   5.917  0.2995 -0.3575  0.2305
   23MOL   C86125545   0.652   2.219   5.983  0.4571  0.8577 -0.2874
   23MOL   C86225546   0.628   2.305   6.105  0.0827 -0.1650 -0.0804
   23MOL   N86325547   0.744   2.396   6.131 -0.4519 -0.0691 -0.1879
   23MOL   H86425548   0.113   2.979   4.901 -2.2417 -0.2315  0.2526
   23MOL   H86525549   0.048   2.988   5.059 -0.0325 -1.5810 -1.2068
   23MOL   H86625550   0.234   3.083   5.151  0.2459  0.3595  0.0070
   23MOL   H86725551   0.270   3.177   5.009 -1.2696  1.3248  2.4718
   23MOL   H86825552   0.364   2.977   4.883 -0.7114 -2.5878  0.3437
   23MOL   H86925553   0.445   3.023   5.023  1.3919 -2.1951 -1.6028
   23MOL   H87025554   0.261   2.773   4.946  0.2742 -0.0723  0.1028
   23MOL   H87125555   0.284   2.804   5.110 -0.9847 -0.9637 -0.4224
   23MOL   H87225556   0.496   2.772   4.894  2.4491  2.0714  0.9258
   23MOL   H87325557   0.532   2.791   5.068  0.2695  0.0536  0.6976
   23MOL   H87425558   0.407   2.595   5.130  2.3761 -1.9810  0.9591
   23MOL   H87525559   0.365   2.576   4.953 -0.5067 -1.9174  1.6749
   23MOL   H87625560   0.612   2.549   4.905 -1.0889 -0.6275 -0.1629
   23MOL   H87725561   0.650   2.555   5.073  0.4482  0.7074 -0.2535
   23MOL   H87825562   0.661   2.335   4.964 -0.4048  0.4268 -0.4626
   23MOL   H87925563   0.500   2.331   4.914  0.3364  1.3212 -0.3227
   23MOL   H88025564   0.540   2.191   5.089  0.5577  0.3766  0.5593
   23MOL   H88125565   0.411   2.300   5.133  0.8485  0.9211  2.5103
   23MOL   H88225566   0.695   2.359   5.217  0.0665 -1.4573 -1.3152
   23MOL   H88325567   0.544   2.440   5.271 -0.1978 -1.3933  4.2614
   23MOL   H88425568   0.509   2.388   5.481  2.1467  0.2738 -0.7477
   23MOL   H88525569   0.605   2.172   5.630  0.3569 -0.5352 -0.5248
   23MOL   H88625570   0.427   2.154   5.587 -0.3066 -0.0121  0.3189
   23MOL   H88725571   0.421   2.399   5.677  0.3462  0.4164  3.6551
   23MOL   H88825572   0.574   2.381   5.742 -0.8093  2.4717 -0.2729
   23MOL   H88925573   0.330   2.229   5.824  0.1416 -1.7431  1.2947
   23MOL   H89025574   0.407   2.344   5.917 -0.4044  0.9173  0.2666
   23MOL   H89125575   0.548   2.078   5.842 -1.8269 -0.9023  0.1136
   23MOL   H89225576   0.478   2.117   6.007 -0.9487 -1.3251 -0.7994
   23MOL   H89325577   0.708   2.130   6.013 -2.6066 -2.2629 -3.3069
   23MOL   H89425578   0.709   2.269   5.905 -0.1328  1.6985 -0.1770
   23MOL   H89525579   0.535   2.360   6.093 -0.2030  0.1403  3.2158
   23MOL   H89625580   0.613   2.247   6.196  0.6362  1.4229  1.0359
   23MOL   H89725581   0.829   2.351   6.162 -0.4810 -0.4359 -0.6372
   23MOL   C89825582   0.755   2.525   6.107  0.0154 -0.1643  0.2332
   23MOL   O89925583   0.685   2.593   6.039 -0.6428 -0.5905 -0.7647
   23MOL   C90025584   0.887   2.584   6.171  0.4936 -0.9575  0.4712
   23MOL   C90125585   0.843   2.687   6.279 -0.5747 -0.1796 -0.2113
   23MOL   C90225586   0.785   2.623   6.403  0.7391 -0.6034  1.0299
   23MOL   C90325587   0.766   2.722   6.511  0.2497  0.3849 -0.7256
   23MOL   C90425588   0.715   2.660   6.639  0.1388 -0.3129 -0.3031
   23MOL   C90525589   0.800   2.554   6.705 -0.0557 -0.1004 -0.0331
   23MOL   C90625590   0.928   2.616   6.779 -0.6886 -0.1037  0.1372
   23MOL   C90725591   1.025   2.512   6.843  0.4859  0.6623  0.0296
   23MOL   C90825592   1.165   2.563   6.869  0.3251 -0.1303 -0.5683
   23MOL   C90925593   1.185   2.706   6.929 -0.4197  0.9997  0.6387
   23MOL   C91025594   1.134   2.716   7.073  0.0820  0.4416  0.3792
   23MOL   O91125595   1.013   2.716   7.094  0.4757  0.5150  0.5563
   23MOL   N91225596   1.222   2.708   7.172 -0.2372 -0.0111 -0.3358
   23MOL   C91325597   1.197   2.699   7.312  0.4730 -0.8729 -0.7294
   23MOL   C91425598   1.326   2.665   7.391 -0.3149 -0.5269 -0.5638
   23MOL   C91525599   1.315   2.714   7.532 -0.6928 -0.4456  0.2691
   23MOL   C91625600   1.443   2.687   7.617 -0.1335  0.0303  0.4415
   23MOL   C91725601   1.430   2.749   0.060  0.4200  0.4384  0.6696
   23MOL   C91825602   1.557   2.739   0.151  0.2415 -0.8125  0.0733
   23MOL   N91925603   1.537   2.830   0.269 -0.1787 -0.1711  0.0044
   23MOL   H92025604   0.950   2.509   6.221  0.0650 -1.0575  0.8649
   23MOL   H92125605   0.946   2.629   6.092  0.9198 -0.8027  0.8738
   23MOL   H92225606   0.780   2.765   6.236 -0.9188  1.2063  2.6691
   23MOL   H92325607   0.938   2.730   6.312 -0.5568 -1.1102  0.9830
   23MOL   H92425608   0.851   2.538   6.417  0.3222 -1.3529 -1.3370
   23MOL   H92525609   0.683   2.588   6.385  0.5352 -1.0556  3.0236
   23MOL   H92625610   0.862   2.770   6.532  0.8688 -1.4846  0.8932
   23MOL   H92725611   0.709   2.807   6.476 -0.2053  0.9501  1.3433
   23MOL   H92825612   0.617   2.613   6.628 -0.6956  0.7640  2.1967
   23MOL   H92925613   0.679   2.732   6.712 -1.7676 -3.5242  2.0878
   23MOL   H93025614   0.739   2.494   6.773  0.5981 -2.1081 -1.1669
   23MOL   H93125615   0.826   2.476   6.633 -0.9239 -0.5633  0.1446
   23MOL   H93225616   0.902   2.691   6.853 -1.1609 -0.4629  0.3367
   23MOL   H93325617   0.984   2.666   6.700 -2.1647 -0.2686 -1.0579
   23MOL   H93425618   1.029   2.418   6.789 -1.0531  0.0679  0.9020
   23MOL   H93525619   0.987   2.487   6.942 -3.1661  2.0952 -0.9282
   23MOL   H93625620   1.224   2.490   6.924  0.4350 -0.4602 -1.1224
   23MOL   H93725621   1.223   2.575   6.778  0.2575 -0.2931 -0.6339
   23MOL   H93825622   1.291   2.732   6.918  0.0076 -0.8616  0.2439
   23MOL   H93925623   1.132   2.779   6.867  1.5405  2.2640  0.3900
   23MOL   H94025624   1.314   2.695   7.132 -0.9239 -1.0857 -1.5851
   23MOL   H94125625   1.116   2.630   7.334 -0.1622  0.1120  0.0534
   23MOL   H94225626   1.162   2.798   7.341  0.1220 -1.3653  0.5450
   23MOL   H94325627   1.347   2.562   7.363  1.3761 -0.2290 -0.4848
   23MOL   H94425628   1.408   2.724   7.349 -0.5000  0.0412 -0.1359
   23MOL   H94525629   1.291   2.820   7.537  0.0355 -0.2035 -1.1316
   23MOL   H94625630   1.229   2.670   7.581 -1.3099  0.8136  0.3375
   23MOL   H94725631   1.530   2.727   7.565 -0.6309 -1.2861 -1.4641
   23MOL   H94825632   1.461   2.580   7.625  0.8716  0.0998 -0.8114
   23MOL   H94925633   1.406   2.854   0.043 -3.8978 -0.6144 -0.2820
   23MOL   H95025634   1.345   2.715   0.119  1.4275  1.4476  2.7842
   23MOL   H95125635   1.645   2.770   0.094 -0.6566 -0.4224 -1.1439
   23MOL   H95225636   1.573   2.637   0.185 -0.1474 -1.3832 -1.3941
   23MOL   H95325637   1.467   2.903   0.273  1.6699  1.7649 -1.3185
   23MOL   C95425638   1.622   2.831   0.370 -0.2585 -0.4655  0.1354
   23MOL   O95525639   1.724   2.763   0.365  0.2600 -0.4563 -0.2734
   23MOL   C95625640   1.590   2.926   0.489  0.0895  0.2468  0.0011
   23MOL   C95725641   1.685   2.918   0.607 -0.2801 -0.8246  0.5999
   23MOL   C95825642   1.672   2.787   0.689 -0.0573 -0.0510  0.4488
   23MOL   C95925643   1.556   2.783   0.789  0.4636 -0.2277 -0.2304
   23MOL   C96025644   1.543   2.655   0.868  0.0614  0.3443  0.0101
   23MOL   C96125645   1.413   2.637   0.942  0.5833  0.0491 -0.8606
   23MOL   C96225646   1.369   2.758   1.021 -0.1802 -0.1053  0.3264
   23MOL   C96325647   1.455   2.803   1.137 -0.1204 -0.4884  0.4247
   23MOL   C96425648   1.406   2.930   1.202 -0.1678  0.1434 -0.6791
   23MOL   C96525649   1.489   2.958   1.327 -0.2040 -0.5306  0.5742
   23MOL   C96625650   1.461   3.093   1.396  0.0530 -0.0009  0.4310
   23MOL   O96725651   1.357   3.155   1.384  0.5493 -0.6485  0.7067
   23MOL   N96825652   1.567   3.142   1.469 -0.0970 -0.0762 -0.0462
   23MOL   C96925653   1.572   3.271   1.538  0.0839 -0.3013 -0.7494
   23MOL   C97025654   1.701   3.276   1.626 -0.6450 -0.1650  0.2001
   23MOL   C97125655   1.835   3.237   1.551  0.3931  0.3011  0.1113
   23MOL   C97225656   1.874   3.315   1.429  0.4128  0.0130 -0.4684
   23MOL   C97325657   1.934   3.231   1.315 -0.0148  0.3098  0.7394
   23MOL   C97425658   1.924   3.302   1.182  0.6837 -0.3824 -0.2760
   23MOL   N97525659   1.783   3.329   1.136  0.3546  0.3053  0.1864
   23MOL   H97625660   1.593   3.030   0.454  0.7071 -0.4489 -2.0593
   23MOL   H97725661   1.486   2.915   0.523  0.6822 -0.2533  1.7145
   23MOL   H97825662   1.672   2.997   0.681  0.0135  0.3739 -0.6124
   23MOL   H97925663   1.790   2.928   0.582  0.0532  1.1599  2.6831
   23MOL   H98025664   1.670   2.706   0.616 -1.1356 -0.1831  0.6133
   23MOL   H98125665   1.767   2.766   0.738  0.4606 -0.7373 -0.8438
   23MOL   H98225666   1.571   2.873   0.848 -0.7269 -0.9466  1.2059
   23MOL   H98325667   1.469   2.792   0.725  0.8324  2.2138 -0.4328
   23MOL   H98425668   1.571   2.569   0.808  0.8639  0.0565  0.7748
   23MOL   H98525669   1.620   2.660   0.946  0.3432  0.2169 -0.2587
   23MOL   H98625670   1.342   2.632   0.860 -0.8418  0.3098  0.3211
   23MOL   H98725671   1.403   2.546   1.002 -1.1866  0.3720 -0.6444
   23MOL   H98825672   1.367   2.842   0.951 -0.8740 -0.7553 -0.4311
   23MOL   H98925673   1.267   2.749   1.058  0.4574  1.2212  2.5108
   23MOL   H99025674   1.442   2.721   1.208  1.1459 -1.7868 -0.8019
   23MOL   H99125675   1.562   2.810   1.115 -0.3296  0.6897 -0.2611
   23MOL   H99225676   1.301   2.907   1.223 -0.0107  1.3007  1.3994
   23MOL   H99325677   1.414   3.001   1.119  1.5822  0.3533 -0.3388
   23MOL   H99425678   1.482   2.882   1.405  1.0041 -1.8261 -0.5489
   23MOL   H99525679   1.593   2.957   1.294 -0.8563  3.9634 -2.1898
   23MOL   H99625680   1.651   3.086   1.471  1.2372  1.7034 -2.5749
   23MOL   H99725681   1.481   3.286   1.596  1.9901  0.7433  2.0632
   23MOL   H99825682   1.579   3.336   1.451 -0.6264  0.7369 -0.0356
   23MOL   H99925683   1.688   3.206   1.709  0.8459 -0.6481  0.0378
   23MOL     H125684   1.704   3.374   1.674 -1.4017 -0.7133  1.4117
   23MOL     H225685   1.813   3.134   1.522  1.1967 -0.6194  2.6139
   23MOL     H325686   1.911   3.218   1.627 -0.7124 -0.4620  1.0375
   23MOL     H425687   1.789   3.368   1.385 -0.7119 -0.7686  0.7190
   23MOL     H525688   1.947   3.393   1.452 -1.8427  1.6687  1.2544
   23MOL     H625689   1.895   3.130   1.301 -1.1483  0.7526  0.7138
   23MOL     H725690   2.041   3.215   1.332 -0.2772 -1.3797  0.8587
   23MOL     H825691   1.978   3.397   1.185  0.1331  0.0825 -3.5063
   23MOL     H925692   1.971   3.248   1.100 -0.7145 -1.3820 -0.4350
   23MOL    H1025693   1.744   3.421   1.145  1.4806  0.8245 -0.1898
   23MOL    C1125694   1.691   3.235   1.108 -1.2453  0.2877  0.2887
   23MOL    O1225695   1.718   3.114   1.100 -0.8372  0.4472 -0.8680
   23MOL    C1325696   1.543   3.279   1.075 -0.1539 -0.0251  0.5140
   23MOL    C1425697   1.517   3.241   0.929  0.0101 -0.2928  0.4039
   23MOL    C1525698   1.603   3.326   0.830 -0.3275  0.5833 -0.4711
   23MOL    C1625699   1.538   3.338   0.688  0.0798  0.0464 -0.5971
   23MOL    C1725700   1.613   3.419   0.587 -0.3069  0.4975  0.0299
   23MOL    C1825701   1.748   3.354   0.557 -0.1535 -0.3144 -0.7165
   23MOL    C1925702   1.826   3.395   0.440  0.5008  0.0244 -0.3157
   23MOL    C2025703   1.904   3.530   0.455  0.4175 -0.5156 -0.7794
   23MOL    C2125704   1.974   3.578   0.321  0.0975  0.1178  0.8604
   23MOL    C2225705   2.054   3.714   0.332 -0.3154 -0.3935 -0.1368
   23MOL    C2325706   2.176   3.715   0.424  0.1406 -0.0578  0.4075
   23MOL    O2425707   2.228   3.608   0.467 -0.0529 -0.5147  0.5911
   23MOL    N2525708   2.225   3.834   0.467 -0.0323  0.4520 -0.0619
   23MOL    C2625709   2.349   3.843   0.549 -0.4583  0.4117  0.7286
   23MOL    C2725710   2.315   3.935   0.667  0.3211 -0.0361 -0.4921
   23MOL    C2825711   2.432   3.966   0.757 -0.5342  0.4963  0.3470
   23MOL    C2925712   2.488   3.853   0.841 -0.4818  0.5932 -0.5681
   23MOL    C3025713   2.384   3.796   0.943 -0.8971  0.1991  0.2699
   23MOL    C3125714   2.454   3.715   1.049 -0.1137  0.2435 -0.2381
   23MOL    N3225715   2.359   3.639   1.125 -0.0162 -0.5121 -0.4903
   23MOL    H3325716   1.531   3.380   1.114 -0.7544  0.1330 -0.0819
   23MOL    H3425717   1.461   3.231   1.129 -0.2991  1.3392  1.5325
   23MOL    H3525718   1.408   3.245   0.916 -0.1934 -1.4513  1.6336
   23MOL    H3625719   1.541   3.136   0.913  0.5214 -0.2862  1.1383
   23MOL    H3725720   1.703   3.283   0.820 -0.3396  0.1056  1.3441
   23MOL    H3825721   1.623   3.426   0.869  0.0816  0.1187  0.5078
   23MOL    H3925722   1.526   3.235   0.654 -0.2910  0.6433 -2.3108
   23MOL    H4025723   1.438   3.376   0.710 -0.5957 -2.5681  1.1020
   23MOL    H4125724   1.561   3.418   0.491  0.0822  1.5025 -0.1995
   23MOL    H4225725   1.630   3.523   0.616 -0.3742  0.3000  0.7887
   23MOL    H4325726   1.813   3.340   0.642 -2.1293  1.5079  1.1520
   23MOL    H4425727   1.722   3.249   0.538  0.6427 -0.1908 -2.6409
   23MOL    H4525728   1.887   3.309   0.411  1.0554 -0.1392  1.3061
   23MOL    H4625729   1.757   3.401   0.356  0.0278 -1.3688 -0.0474
   23MOL    H4725730   1.831   3.601   0.494  0.3045 -0.9050 -0.2808
   23MOL    H4825731   1.977   3.513   0.534 -2.8155  0.6770  2.6141
   23MOL    H4925732   1.908   3.593   0.236  1.6481 -0.8386 -0.5333
   23MOL    H5025733   2.038   3.494   0.296 -0.0093  0.7835 -1.7359
   23MOL    H5125734   2.100   3.731   0.234 -0.7651  1.6738 -0.0275
   23MOL    H5225735   1.987   3.799   0.345  0.5869  0.3335 -0.1311
   23MOL    H5325736   2.170   3.918   0.460  1.1444  1.2876  0.4735
   23MOL    H5425737   2.431   3.881   0.488  0.0283 -1.8664 -0.0850
   23MOL    H5525738   2.375   3.749   0.597 -2.6743 -0.2893  0.6237
   23MOL    H5625739   2.236   3.906   0.736 -1.7761  3.6383 -1.2352
   23MOL    H5725740   2.280   4.030   0.627 -0.8271  0.4838  1.6882
   23MOL    H5825741   2.390   4.047   0.818  1.8281  1.3395  0.9240
   23MOL    H5925742   2.507   4.015   0.695 -0.4136  1.2264  1.0509
   23MOL    H6025743   2.570   3.894   0.900  0.8714 -2.2870 -0.3683
   23MOL    H6125744   2.527   3.773   0.778  1.4553  0.9467  0.1456
   23MOL    H6225745   2.314   3.730   0.892  1.3138 -1.4127 -0.7957
   23MOL    H6325746   2.325   3.876   0.988 -0.9817 -0.7938  1.9588
   23MOL    H6425747   2.517   3.777   1.112 -0.4967 -0.2982  0.6913
   23MOL    H6525748   2.520   3.643   1.000  0.3257  0.5314 -0.0688
   23MOL    H6625749   2.260   3.658   1.118  0.6182  2.4221 -1.8601
   23MOL    C6725750   2.396   3.541   1.204  0.1103 -0.2871 -0.3967
   23MOL    O6825751   2.513   3.512   1.219  0.4173 -0.4391  0.1119
   23MOL    C6925752   2.291   3.462   1.279  0.2799  0.7236 -0.4726
   23MOL    C7025753   2.323   3.314   1.302 -0.1723  0.1635  0.2249
   23MOL    C7125754   2.308   3.212   1.188 -0.3483  0.1356 -0.0474
   23MOL    C7225755   2.396   3.090   1.205  0.0178  0.1176 -0.1332
   23MOL    C7325756   2.382   2.991   1.087 -0.4936  0.7736  0.4253
   23MOL    C7425757   2.450   2.859   1.123 -0.4249  0.3689  0.1417
   23MOL    C7525758   2.436   2.754   1.014  0.1750  0.8478  0.8667
   23MOL    C7625759   2.445   2.611   1.072 -0.2090 -0.1392  0.4408
   23MOL    C7725760   2.439   2.492   0.971  0.1949 -0.4152  0.6190
   23MOL    C7825761   2.408   2.351   1.025  0.3447 -0.0336  0.4626
   23MOL    C7925762   2.406   2.246   0.919  1.5799  1.4027 -0.2863
   23MOL    O8025763   2.474   2.264   0.814  0.7174  0.2065  0.3274
   23MOL    N8125764   2.329   2.141   0.943  0.7202 -0.0045  0.6205
   23MOL    C8225765   2.307   2.038   0.832  0.1755 -0.1785  0.3586
   23MOL    C8325766   2.409   1.926   0.849  0.2253 -0.4170 -0.3690
   23MOL    C8425767   2.394   1.805   0.755 -0.1303  0.4018  0.0250
   23MOL    C8525768   2.495   1.695   0.792  0.7560  0.1493  0.1496
   23MOL    C8625769   2.646   1.718   0.771  0.4252  0.2575 -0.0524
   23MOL    C8725770   2.716   1.593   0.720  0.2004 -0.0811  0.1242
   23MOL    N8825771   2.861   1.617   0.717 -0.1796  0.4315  0.2883
   23MOL    H8925772   2.202   3.474   1.217  0.4306 -0.4924 -0.9490
   23MOL    H9025773   2.281   3.515   1.373 -3.3331 -1.4823  0.4997
   23MOL    H9125774   2.427   3.307   1.335  1.9586  0.5068 -5.8538
   23MOL    H9225775   2.273   3.276   1.391 -2.9261  0.3852 -1.1864
   23MOL    H9325776   2.200   3.197   1.185 -0.4669  1.0615 -0.4764
   23MOL    H9425777   2.341   3.264   1.098 -0.1326 -1.6824 -1.0623
   23MOL    H9525778   2.499   3.124   1.212 -0.1220  0.7071 -0.7501
   23MOL    H9625779   2.366   3.037   1.295  1.4110 -0.8030 -0.2053
   23MOL    H9725780   2.276   2.967   1.073 -0.5069  1.0585  0.0367
   23MOL    H9825781   2.424   3.032   0.995  1.7151 -0.5190  0.8121
   23MOL    H9925782   2.555   2.887   1.136  0.3929 -1.2329 -2.4616
   23MOL   H10025783   2.404   2.825   1.215  0.1585  0.0872  0.3378
   23MOL   H10125784   2.517   2.771   0.943  0.5590  0.2505  1.1516
   23MOL   H10225785   2.344   2.754   0.955  1.4681  1.3801 -1.1739
   23MOL   H10325786   2.530   2.592   1.138  1.5769  0.9021 -1.4732
   23MOL   H10425787   2.356   2.607   1.135 -0.9468 -2.4763 -0.6999
   23MOL   H10525788   2.533   2.490   0.916  0.4992  1.5305  1.0202
   23MOL   H10625789   2.362   2.505   0.895  1.0227 -0.3122 -0.2099
   23MOL   H10725790   2.486   2.322   1.096 -0.5234 -0.8311  1.0922
   23MOL   H10825791   2.315   2.350   1.081 -2.2207 -0.6059 -3.6549
   23MOL   H10925792   2.284   2.139   1.033  2.0255 -3.0497  1.2931
   23MOL   H11025793   2.300   2.089   0.736  1.3669  1.1891  0.9863
   23MOL   H11125794   2.212   1.985   0.841 -0.6236  1.4240  1.6731
   23MOL   H11225795   2.411   1.901   0.955  1.9589  0.3938 -0.1875
   23MOL   H11325796   2.501   1.979   0.824  2.3608 -2.8139  2.0355
   23MOL   H11425797   2.399   1.832   0.650  0.2155 -2.0267 -0.6211
   23MOL   H11525798   2.297   1.757   0.766 -1.0802  2.3249  0.2369
   23MOL   H11625799   2.483   1.653   0.892  1.1544  1.0791  0.5974
   23MOL   H11725800   2.471   1.610   0.729 -0.0405 -0.0625  0.7305
   23MOL   H11825801   2.659   1.787   0.688 -0.8027  1.8626  1.0741
   23MOL   H11925802   2.694   1.767   0.856  0.7801  1.4415 -0.9362
   23MOL   H12025803   2.697   1.517   0.797 -0.8689 -1.8897 -1.8777
   23MOL   H12125804   2.676   1.551   0.628  0.4575  1.6062 -0.7737
   23MOL   H12225805   2.914   1.640   0.801  1.1288 -0.5982 -0.2434
   23MOL   H12325806   2.913   1.538   0.682 -0.3036  0.3314  0.3308
   24MOL     C125807   1.215   6.045   5.338  0.8195 -0.2052  0.0775
   24MOL     O225808   1.133   6.001   5.252 -0.8522  0.2974  0.4647
   24MOL     C325809   1.224   6.002   5.484  0.6380 -0.3726  0.2727
   24MOL     C425810   1.127   6.091   5.565  0.4761  0.4725 -0.3022
   24MOL     C525811   1.205   6.213   5.613 -0.4457 -0.1905 -0.4968
   24MOL     C625812   1.293   6.183   5.731 -0.0721  0.5223 -0.3328
   24MOL     C725813   1.372   6.304   5.778 -0.2347  0.6584 -0.2009
   24MOL     C825814   1.301   6.402   5.877  0.1108 -0.1104  0.3205
   24MOL     C925815   1.269   6.345   6.017  0.0109  0.4663 -0.1312
   24MOL    C1025816   1.214   6.456   6.103  0.1543  0.0384 -0.8634
   24MOL    C1125817   1.078   6.508   6.058 -0.5691 -0.5406  0.0629
   24MOL    C1225818   1.001   6.592   6.170  0.0377 -0.4803 -0.2308
   24MOL    C1325819   0.888   6.668   6.111  0.1147 -0.0297 -0.2051
   24MOL    O1425820   0.873   6.682   5.989 -0.0112 -0.2249 -0.7297
   24MOL    N1525821   0.818   6.743   6.198  0.2675 -0.9362  0.0852
   24MOL    C1625822   0.707   6.832   6.157  0.4165 -0.5714  0.9053
   24MOL    C1725823   0.760   6.966   6.102 -0.1660 -0.2537 -0.3254
   24MOL    C1825824   0.835   7.050   6.210  0.2356  0.1532  0.5906
   24MOL    C1925825   0.887   7.190   6.170  0.5665  0.6435  0.4934
   24MOL    C2025826   1.004   7.229   6.260 -0.0724  0.1115 -0.4080
   24MOL    C2125827   1.033   7.376   6.261  0.2645 -0.1607 -0.7308
   24MOL    N2225828   1.117   7.407   6.382 -0.2773 -0.3135  0.2328
   24MOL    H2325829   1.324   5.998   5.526  1.4182  1.0421 -1.3926
   24MOL    H2425830   1.189   5.902   5.511 -1.9824  0.3864 -0.1891
   24MOL    H2525831   1.067   6.036   5.638  1.4579 -0.2584 -0.0348
   24MOL    H2625832   1.038   6.115   5.507 -1.0985  1.5877  2.4230
   24MOL    H2725833   1.126   6.279   5.648 -0.8815 -0.2819 -1.3063
   24MOL    H2825834   1.258   6.268   5.535  1.0662  0.9441  1.2944
   24MOL    H2925835   1.239   6.142   5.817  0.1682 -2.1208 -1.3915
   24MOL    H3025836   1.359   6.100   5.706 -0.1239  0.4605 -0.2666
   24MOL    H3125837   1.413   6.357   5.692  2.5741 -0.2228  0.5266
   24MOL    H3225838   1.461   6.267   5.830 -1.7511 -0.8137  1.3869
   24MOL    H3325839   1.366   6.487   5.900  0.5381 -1.2059  3.4580
   24MOL    H3425840   1.207   6.440   5.838  0.4878  0.3183 -0.1764
   24MOL    H3525841   1.188   6.273   6.007  1.0729 -0.5458 -1.5970
   24MOL    H3625842   1.351   6.295   6.068 -0.4143 -0.1793 -0.0763
   24MOL    H3725843   1.208   6.405   6.199 -2.0286  0.8279 -0.5476
   24MOL    H3825844   1.286   6.534   6.125 -1.0879  0.4441  2.0058
   24MOL    H3925845   1.017   6.422   6.030 -0.7979 -0.4763  0.3533
   24MOL    H4025846   1.104   6.573   5.975 -1.4361  1.0843  1.0407
   24MOL    H4125847   0.954   6.524   6.241 -1.1038 -0.7955 -1.2751
   24MOL    H4225848   1.065   6.664   6.221  1.2633 -1.4070 -0.4414
   24MOL    H4325849   0.844   6.728   6.295 -0.0270  0.1653  0.3433
   24MOL    H4425850   0.647   6.854   6.246 -0.9653  2.6689 -0.7345
   24MOL    H4525851   0.655   6.789   6.071  2.7727 -1.7299  0.0353
   24MOL    H4625852   0.672   7.028   6.086 -1.7026 -1.6909  2.1891
   24MOL    H4725853   0.823   6.951   6.015 -1.6428 -2.4828 -1.0600
   24MOL    H4825854   0.771   7.069   6.296 -1.7029  0.5116 -0.9093
   24MOL    H4925855   0.924   6.995   6.244 -1.2725 -1.0570  2.7318
   24MOL    H5025856   0.806   7.263   6.172 -0.0148 -0.0042  0.2809
   24MOL    H5125857   0.922   7.181   6.067  1.3140 -1.1207  0.8811
   24MOL    H5225858   0.976   7.207   6.363  0.9457  1.5885  0.1999
   24MOL    H5325859   1.088   7.167   6.231 -0.4064  0.4975 -2.2095
   24MOL    H5425860   1.092   7.411   6.176  0.0311  2.2382  0.0339
   24MOL    H5525861   0.945   7.439   6.250 -0.6047 -1.2219  0.0369
   24MOL    H5625862   1.152   7.335   6.442  1.9087  0.5978  0.0889
   24MOL    H5725863   1.294   6.113   5.307  0.9484 -0.3979 -0.0125
   24MOL    C5825864   1.123   7.525   6.450  0.0245 -0.0211  0.5707
   24MOL    O5925865   1.052   7.617   6.406 -0.2846 -0.2890 -0.7426
   24MOL    C6025866   1.196   7.535   6.580 -0.1228 -0.0998  0.7922
   24MOL    C6125867   1.334   7.602   6.548  0.0456 -0.5601 -0.4262
   24MOL    C6225868   1.441   7.521   6.462  0.3149 -0.2020 -0.2025
   24MOL    C6325869   1.449   7.551   6.312 -0.8377 -0.3794 -0.3375
   24MOL    C6425870   1.511   7.682   6.273 -0.3199 -0.4086  0.2972
   24MOL    C6525871   1.502   0.030   6.121  0.8846  0.5756 -0.4471
   24MOL    C6625872   1.564   0.165   6.088  0.4871  0.2947 -0.5883
   24MOL    C6725873   1.601   0.179   5.944 -0.6257  0.3002  0.0833
   24MOL    C6825874   1.728   0.106   5.900 -0.0594 -0.3874  0.8392
   24MOL    C6925875   1.775   0.127   5.755  0.0655  0.0000 -0.2421
   24MOL    C7025876   1.929   0.091   5.742  0.7802 -1.0035 -0.0842
   24MOL    O7125877   1.958   7.670   5.703  0.2359  0.0120 -0.5754
   24MOL    N7225878   2.020   0.186   5.774  0.5462  0.7590  0.2040
   24MOL    C7325879   2.168   0.163   5.782  0.5074 -0.9839 -0.4396
   24MOL    C7425880   2.221   0.135   5.928  0.1347  0.2208  0.2837
   24MOL    C7525881   2.363   0.082   5.928 -0.3358  0.9543 -0.5909
   24MOL    C7625882   2.429   0.088   6.069 -0.2953  0.0623  0.0327
   24MOL    C7725883   2.366   7.680   6.165 -0.1544  0.1443  0.7327
   24MOL    C7825884   2.409   0.001   6.311  0.5781  0.1344 -0.3103
   24MOL    N7925885   2.338   7.600   6.397 -0.3245  0.6681  0.0635
   24MOL    H8025886   1.213   7.436   6.622 -0.4821 -0.4890  0.0240
   24MOL    H8125887   1.135   7.595   6.647 -0.0486 -0.0020  0.7744
   24MOL    H8225888   1.307   0.005   6.502 -0.8218 -0.0300  1.1399
   24MOL    H8325889   1.372   7.626   6.647 -0.6201  1.8684 -0.7397
   24MOL    H8425890   1.426   7.416   6.489 -3.8367  1.0697  2.9711
   24MOL    H8525891   1.536   7.559   6.500 -0.3235  1.2648 -0.0707
   24MOL    H8625892   1.357   7.530   6.256 -0.6384 -0.9004 -0.4760
   24MOL    H8725893   1.510   7.468   6.276  1.0973  0.5431  0.7400
   24MOL    H8825894   1.467   0.076   6.325 -0.5064 -0.8918  0.9416
   24MOL    H8925895   1.611   7.681   6.316  0.7946 -1.1364 -2.2509
   24MOL    H9025896   1.398   0.040   6.089 -0.1910 -0.5555  2.5740
   24MOL    H9125897   1.541   7.639   6.062 -0.3863 -0.6889  0.4593
   24MOL    H9225898   1.654   0.187   6.145 -0.8008  1.7211  0.9649
   24MOL    H9325899   1.490   0.243   6.107  0.9326  0.3256  1.1079
   24MOL    H9425900   1.518   0.129   5.893 -1.3258  1.4958  0.0255
   24MOL    H9525901   1.598   0.282   5.910  0.5708 -0.4864 -2.5204
   24MOL    H9625902   1.715   7.690   5.911 -1.2189 -0.3825 -0.4639
   24MOL    H9725903   1.812   0.128   5.967  0.5142 -0.6684  0.2211
   24MOL    H9825904   1.708   0.068   5.693 -2.0274  1.1374  0.9105
   24MOL    H9925905   1.770   0.230   5.718  1.3985 -0.0998 -0.7453
   24MOL   H10025906   1.982   0.272   5.811  1.6220  2.2592 -2.0136
   24MOL   H10125907   2.216   0.255   5.748 -0.1653 -1.0627 -1.6188
   24MOL   H10225908   2.189   0.079   5.715 -0.5852 -1.4674 -0.1812
   24MOL   H10325909   2.203   0.217   5.998 -1.4406 -1.6451  2.1391
   24MOL   H10425910   2.153   0.057   5.961 -2.1382  0.1510 -4.1393
   24MOL   H10525911   2.419   0.140   5.855 -0.1572  1.8824  0.2794
   24MOL   H10625912   2.363   7.670   5.894 -0.2642  0.9858 -0.6853
   24MOL   H10725913   2.535   0.064   6.055  0.2967  3.5076 -2.1698
   24MOL   H10825914   2.430   0.188   6.112 -1.8417  0.8847 -1.7484
   24MOL   H10925915   2.372   7.577   6.128  3.0560 -0.0972  1.7618
   24MOL   H11025916   2.259   0.007   6.162 -0.2951 -0.5738  1.0154
   24MOL   H11125917   2.393   0.104   6.343  0.4814  0.1574 -0.4300
   24MOL   H11225918   2.511   7.655   6.316  1.0559  1.4799  0.2335
   24MOL   H11325919   2.282   7.525   6.358  1.2713  0.3743 -1.7649
   24MOL   C11425920   2.320   7.616   6.528  0.5476 -0.2656 -0.6472
   24MOL   O11525921   2.381   0.015   6.597 -0.1186  0.7838  0.3161
   24MOL   C11625922   2.230   7.518   6.611 -0.2557  0.6123 -0.2217
   24MOL   C11725923   2.268   7.520   6.766 -0.4090  0.4108 -0.2430
   24MOL   C11825924   2.193   7.415   6.852 -0.2738  1.3980 -0.1871
   24MOL   C11925925   2.202   7.443   7.001 -0.7888  0.2450  0.5228
   24MOL   C12025926   2.102   7.348   7.079  0.8526  0.4956 -0.4839
   24MOL   C12125927   2.117   7.371   7.226 -0.2047  0.1525  0.2350
   24MOL   C12225928   2.047   7.262   7.314  0.3953  0.8804  0.1282
   24MOL   C12325929   2.071   7.289   7.468 -0.7355 -0.4744  0.8130
   24MOL   C12425930   2.220   7.272   7.519  0.2420  0.4110 -0.7085
   24MOL   C12525931   2.226   7.293   7.673  0.1228 -0.1241 -0.3143
   24MOL   C12625932   2.154   7.195   0.065 -0.3695  0.1557  0.4575
   24MOL   O12725933   2.132   7.077   0.033  0.3183 -0.1845  0.2178
   24MOL   N12825934   2.101   7.237   0.179 -0.8502  0.7128  0.0261
   24MOL   C12925935   2.009   7.164   0.273  0.5864  0.7753 -0.2109
   24MOL   C13025936   1.919   7.254   0.343 -0.3909 -0.4556  0.4205
   24MOL   C13125937   1.979   7.385   0.387  0.2812 -0.6073 -1.8660
   24MOL   C13225938   1.871   7.475   0.457 -0.1034  0.6169 -0.5593
   24MOL   C13325939   1.865   7.460   0.607 -0.2768  0.4699  0.1177
   24MOL   C13425940   1.989   7.506   0.694 -0.0002 -0.5678 -0.5996
   24MOL   N13525941   2.004   7.651   0.715 -0.5381 -0.7068 -0.2065
   24MOL   H13625942   2.126   7.541   6.590 -0.5242 -2.0311 -1.9747
   24MOL   H13725943   2.249   7.416   6.577  0.8913  0.5091  0.7057
   24MOL   H13825944   2.258   7.621   6.805  1.2648  1.1593 -1.6546
   24MOL   H13925945   2.373   7.503   6.787 -0.2472  0.2433 -1.1453
   24MOL   H14025946   2.085   7.425   6.834 -0.2336  2.0408 -0.0998
   24MOL   H14125947   2.213   7.311   6.826 -0.1414  1.3107  0.2641
   24MOL   H14225948   2.305   7.422   7.032 -0.9692 -0.5830  0.5677
   24MOL   H14325949   2.176   7.548   7.012  1.4044  0.8302  0.3830
   24MOL   H14425950   1.998   7.360   7.049  0.3537 -0.7492  0.6871
   24MOL   H14525951   2.124   7.243   7.060 -0.0241  0.3531 -0.7326
   24MOL   H14625952   2.081   7.472   7.248 -1.0755 -0.3729  1.2938
   24MOL   H14725953   2.224   7.362   7.244 -0.6644 -1.3299  2.4116
   24MOL   H14825954   1.939   7.266   7.296  0.0880 -1.5129  1.2420
   24MOL   H14925955   2.080   7.164   7.281  0.9447  2.0296 -2.8625
   24MOL   H15025956   1.999   7.232   7.526 -0.2070 -1.2073  0.7564
   24MOL   H15125957   2.035   7.391   7.486  0.0501  0.0978 -0.7409
   24MOL   H15225958   2.287   7.342   7.469  0.9414  0.6050  0.4774
   24MOL   H15325959   2.252   7.170   7.498  0.2812  0.5271 -1.2170
   24MOL   H15425960   2.204   7.397   0.003  0.9839  0.1687 -0.8128
   24MOL   H15525961   2.328   7.281   0.019 -0.0872 -0.1095  0.2682
   24MOL   H15625962   2.153   7.315   0.217  0.6887  0.2530 -1.0658
   24MOL   H15725963   2.068   7.103   0.342 -0.5238  0.2868  0.3290
   24MOL   H15825964   1.948   7.101   0.209  0.8546  0.3825 -0.0852
   24MOL   H15925965   1.866   7.197   0.420 -1.5736  0.1754  0.0866
   24MOL   H16025966   1.840   7.283   0.274  0.0694 -0.7133 -0.2193
   24MOL   H16125967   2.063   7.371   0.455 -0.8804 -1.2413 -0.5375
   24MOL   H16225968   2.017   7.437   0.299  1.6784 -0.3988 -1.1409
   24MOL   H16325969   1.898   7.579   0.440  2.9851 -0.2866 -1.6658
   24MOL   H16425970   1.770   7.451   0.422 -0.6981 -1.4083  2.3540
   24MOL   H16525971   1.846   7.353   0.618 -1.4514  0.3060 -2.9296
   24MOL   H16625972   1.772   7.501   0.648 -0.4443 -1.2716  1.5550
   24MOL   H16725973   1.966   7.456   0.788 -0.8416  0.7596 -0.0732
   24MOL   H16825974   2.082   7.462   0.658  1.5251  2.0693 -0.0553
   24MOL   H16925975   1.960   0.002   0.795 -1.2951  0.1733 -1.0826
   24MOL   C17025976   2.076   0.042   0.634  0.5775  0.4147  0.6884
   24MOL   O17125977   2.139   7.685   0.536 -0.0322 -0.5599 -0.5362
   24MOL   C17225978   2.086   0.191   0.674  0.4287 -0.5236 -0.2466
   24MOL   C17325979   2.133   0.281   0.558 -0.3672  0.1326  0.0489
   24MOL   C17425980   2.044   0.280   0.431  0.3088 -0.2332 -0.0290
   24MOL   C17525981   2.083   0.385   0.327  0.4390 -0.2444 -0.4146
   24MOL   C17625982   1.975   0.390   0.220 -0.1616 -0.4956  0.0327
   24MOL   C17725983   2.012   0.468   0.090  0.1476  0.0164 -0.3543
   24MOL   C17825984   1.980   0.618   0.086  0.0048  0.3708 -0.6451
   24MOL   C17925985   2.064   0.695   0.190 -0.0253 -0.2307  0.7872
   24MOL   C18025986   2.047   0.848   0.189 -0.1010  0.1890 -0.2935
   24MOL   C18125987   2.143   0.939   0.265 -0.3871 -0.5640 -0.2814
   24MOL   C18225988   2.141   0.923   0.423 -0.5753 -0.1538 -0.7519
   24MOL   O18325989   2.176   0.816   0.470  0.4175 -0.1629  0.0591
   24MOL   N18425990   2.092   1.028   0.498 -0.4512 -0.3157 -0.2690
   24MOL   C18525991   2.076   1.038   0.646 -0.3025  0.5788 -0.0384
   24MOL   C18625992   1.931   1.075   0.685 -0.2852  0.0925 -0.0020
   24MOL   C18725993   1.910   1.072   0.835  0.2228  0.1116  0.4945
   24MOL   C18825994   1.766   1.098   0.885 -0.5938  0.1346  0.4810
   24MOL   C18925995   1.728   1.031   1.014 -1.0997 -0.2506 -0.0560
   24MOL   C19025996   1.591   1.066   1.074 -0.2436 -0.3813 -0.5127
   24MOL   N19125997   1.553   0.987   1.188 -0.3876  0.3890 -0.6704
   24MOL   H19225998   1.990   0.233   0.703 -0.1169 -0.0652 -2.6284
   24MOL   H19325999   2.147   0.201   0.764 -0.3439 -4.8557  0.8758
   24MOL   H19426000   2.232   0.249   0.526  0.2353 -0.9274  2.8262
   24MOL   H19526001   2.141   0.386   0.585 -0.2287 -0.1875  1.2919
   24MOL   H19626002   1.952   0.316   0.475  1.3453  0.2678  1.7764
   24MOL   H19726003   2.033   0.185   0.378 -2.5819 -0.1980  0.4489
   24MOL   H19826004   2.095   0.484   0.371 -2.3457 -0.8038  1.7776
   24MOL   H19926005   2.177   0.359   0.279 -0.5587 -0.1974 -2.4447
   24MOL   H20026006   1.944   0.292   0.184  1.2801 -0.2258 -1.9625
   24MOL   H20126007   1.889   0.443   0.262  1.2086  2.3469 -0.6531
   24MOL   H20226008   1.951   0.423   0.012 -0.9991 -0.4513  0.7932
   24MOL   H20326009   2.115   0.453   0.059 -0.4546 -0.6913 -2.0659
   24MOL   H20426010   1.996   0.669   7.682  0.0629 -0.0586 -0.8668
   24MOL   H20526011   1.873   0.630   0.102 -0.0870 -0.3280 -0.7180
   24MOL   H20626012   2.035   0.661   0.289 -0.0809  0.4476  1.0016
   24MOL   H20726013   2.168   0.668   0.173  0.0181  0.8519 -0.8104
   24MOL   H20826014   1.945   0.867   0.220 -0.3029  1.4259 -1.6461
   24MOL   H20926015   2.053   0.876   0.083  0.8865  1.8685  0.1975
   24MOL   H21026016   2.245   0.930   0.228 -0.4169  1.0546 -0.7929
   24MOL   H21126017   2.113   1.043   0.251 -1.2244 -0.7468  0.0975
   24MOL   H21226018   2.078   1.119   0.455  0.1043  0.0794  0.3656
   24MOL   H21326019   2.133   1.128   0.669  0.1656  0.2379  0.1393
   24MOL   H21426020   2.116   0.953   0.700  0.4495  1.2359  0.4432
   24MOL   H21526021   1.898   1.174   0.651 -1.1162 -0.4672 -0.8785
   24MOL   H21626022   1.857   1.012   0.636 -1.4971  0.8718  0.8071
   24MOL   H21726023   1.923   0.968   0.867 -0.0123 -0.9816 -2.8336
   24MOL   H21826024   1.977   1.140   0.888  0.9788  1.3481 -1.9791
   24MOL   H21926025   1.700   1.072   0.803 -0.8301 -1.5758  1.1898
   24MOL   H22026026   1.762   1.206   0.900  1.4655  0.6541 -2.4021
   24MOL   H22126027   1.800   1.064   1.089  0.2417 -0.4705 -1.2225
   24MOL   H22226028   1.727   0.923   1.003  1.8502 -0.0471 -3.2376
   24MOL   H22326029   1.526   1.036   0.993  1.9703 -0.1946 -2.4146
   24MOL   H22426030   1.574   1.173   1.083  0.8660 -0.2135 -0.2711
   24MOL   H22526031   1.613   0.909   1.211  1.2646  2.0857  0.9145
   24MOL   C22626032   1.435   1.003   1.252 -0.2857 -0.0510 -0.3727
   24MOL   O22726033   1.362   1.102   1.233  0.1819 -0.3268 -0.3569
   24MOL   C22826034   1.391   0.894   1.352 -0.0985  0.0058 -0.7223
   24MOL   C22926035   1.239   0.895   1.387  0.4288 -0.1016 -0.7287
   24MOL   C23026036   1.194   0.751   1.429  0.6664  0.3856 -0.1877
   24MOL   C23126037   1.049   0.740   1.457 -0.0320  0.2999  0.1104
   24MOL   C23226038   0.999   0.594   1.436 -0.4523 -0.3185 -0.5540
   24MOL   C23326039   0.852   0.570   1.470 -0.5567 -0.0753 -0.2292
   24MOL   C23426040   0.804   0.427   1.435  0.3106 -0.4387 -0.1412
   24MOL   C23526041   0.651   0.408   1.453  0.2879  0.3386  0.2995
   24MOL   C23626042   0.622   0.255   1.454  0.0510  0.2573 -0.3508
   24MOL   C23726043   0.686   0.169   1.346 -0.0019  0.2353  0.0710
   24MOL   C23826044   0.677   0.019   1.367 -0.1741  0.6819 -0.2385
   24MOL   O23926045   0.593   7.652   1.439 -0.3862 -0.2181 -0.3413
   24MOL   N24026046   0.772   7.637   1.299  0.6617  0.5875  0.2903
   24MOL   C24126047   0.777   7.493   1.305 -0.1091 -0.0677 -0.0042
   24MOL   C24226048   0.909   7.436   1.254  0.3850 -0.3483  0.1486
   24MOL   C24326049   0.926   7.297   1.320 -0.0800 -0.3179 -0.0327
   24MOL   C24426050   1.069   7.245   1.279  0.1780  0.2952  0.3845
   24MOL   C24526051   1.091   7.101   1.340 -0.0361 -0.5778  0.1247
   24MOL   C24626052   1.231   7.046   1.297  1.0160  0.3020 -0.1637
   24MOL   N24726053   1.335   7.122   1.369  0.0710  0.0711  0.1542
   24MOL   H24826054   1.453   0.902   1.441 -3.3260  0.1893  1.5826
   24MOL   H24926055   1.405   0.802   1.295 -0.0007  1.2585 -2.7751
   24MOL   H25026056   1.222   0.953   1.478 -0.4888 -1.3885 -0.0540
   24MOL   H25126057   1.172   0.938   1.313  0.5430  2.4388  0.5851
   24MOL   H25226058   1.221   0.682   1.349  1.0288  1.6805 -1.2034
   24MOL   H25326059   1.250   0.722   1.517  0.3521  1.2490  0.3000
   24MOL   H25426060   1.002   0.804   1.382  0.9709  0.1963 -0.6087
   24MOL   H25526061   1.028   0.770   1.560 -3.0842 -1.7031  0.1410
   24MOL   H25626062   1.066   0.522   1.484  2.1912  2.9726  0.8580
   24MOL   H25726063   1.000   0.570   1.330 -3.3904  0.2168 -0.7295
   24MOL   H25826064   0.832   0.588   1.576  1.5846 -0.2046  0.2295
   24MOL   H25926065   0.793   0.639   1.410 -0.9167 -1.6965 -1.7844
   24MOL   H26026066   0.863   0.363   1.500 -0.5136 -1.5960 -0.5209
   24MOL   H26126067   0.821   0.422   1.327  1.6565  2.6287 -0.1299
   24MOL   H26226068   0.611   0.458   1.541 -0.4221  0.8364 -0.3032
   24MOL   H26326069   0.593   0.456   1.374  1.1849 -0.6715 -0.9961
   24MOL   H26426070   0.658   0.220   1.551  1.3358 -1.7611 -1.5154
   24MOL   H26526071   0.513   0.252   1.448  0.1083  1.3137 -2.2483
   24MOL   H26626072   0.624   0.188   1.259  1.3078  0.6776 -0.7903
   24MOL   H26726073   0.792   0.194   1.334 -0.1053  0.9887  0.6919
   24MOL   H26826074   0.817   7.688   1.224 -0.8359  1.3222 -0.1175
   24MOL   H26926075   0.708   7.457   1.229  0.9765  2.1802 -2.1403
   24MOL   H27026076   0.745   7.459   1.403 -1.8701  1.7125  0.0902
   24MOL   H27126077   0.985   7.507   1.287 -0.9437  1.5075 -0.6883
   24MOL   H27226078   0.906   7.426   1.146 -0.0383  2.1225 -0.0951
   24MOL   H27326079   0.919   7.301   1.429 -2.1372 -0.3034 -0.1497
   24MOL   H27426080   0.850   7.229   1.282  0.8651 -2.4838  1.8188
   24MOL   H27526081   1.145   7.318   1.306  2.2140 -2.2867  1.8187
   24MOL   H27626082   1.078   7.242   1.170 -0.5362  2.2168  0.2488
   24MOL   H27726083   1.017   7.033   1.296 -0.4968 -0.5432  0.8384
   24MOL   H27826084   1.075   7.095   1.447  0.0872  1.0321  0.2343
   24MOL   H27926085   1.234   7.052   1.189  1.5055  1.3685 -0.1004
   24MOL   H28026086   1.250   6.944   1.330  2.2446  0.0674 -1.5864
   24MOL   H28126087   1.310   7.130   1.466 -0.8655 -2.1409  0.1290
   24MOL   C28226088   1.458   7.152   1.325  0.6083 -0.4486  0.1803
   24MOL   O28326089   1.487   7.131   1.205 -0.1522 -0.2106  0.1109
   24MOL   C28426090   1.554   7.203   1.431  0.2729 -0.0088 -0.0152
   24MOL   C28526091   1.685   7.123   1.429 -0.2916  0.5000 -0.5298
   24MOL   C28626092   1.682   6.980   1.494  0.3824  0.0138 -0.7904
   24MOL   C28726093   1.816   6.923   1.484  0.6466  0.5566 -0.3889
   24MOL   C28826094   1.847   6.786   1.553 -0.1016  0.5786  0.8160
   24MOL   C28926095   1.839   6.793   1.709  0.0270  0.0414  0.3568
   24MOL   C29026096   1.839   6.649   1.766  0.1810  0.1309  0.6146
   24MOL   C29126097   1.821   6.640   1.918  0.5400  0.3619  0.5583
   24MOL   C29226098   1.885   6.504   1.956 -0.4468  0.0592  0.4645
   24MOL   C29326099   1.779   6.393   1.967 -0.0674  0.3908  0.3334
   24MOL   C29426100   1.827   6.254   2.009 -0.0060  0.2024  0.0844
   24MOL   O29526101   1.822   6.218   2.126  0.4592 -0.0283  0.0180
   24MOL   N29626102   1.850   6.174   1.911 -0.4402 -0.1783 -0.3015
   24MOL   C29726103   1.855   6.026   1.912 -0.0122  0.1095 -0.5407
   24MOL   C29826104   1.996   5.981   1.875 -0.1750  0.4014 -0.0021
   24MOL   C29926105   2.002   5.836   1.841  0.1480 -0.9893 -0.3073
   24MOL   C30026106   1.925   5.789   1.713 -0.2411 -0.0131 -0.3908
   24MOL   C30126107   1.935   5.874   1.585  0.4555 -0.4603  0.1157
   24MOL   C30226108   1.864   5.817   1.464 -0.1638  0.0108  0.5716
   24MOL   N30326109   1.875   5.914   1.352 -0.5757  0.1386 -0.4120
   24MOL   H30426110   1.576   7.306   1.403  0.5655  0.3196  1.3506
   24MOL   H30526111   1.504   7.222   1.526 -0.0209 -1.0880  0.0543
   24MOL   H30626112   1.753   7.186   1.488 -1.3448  1.2724 -0.1144
   24MOL   H30726113   1.718   7.115   1.326 -0.3068 -1.6510 -0.3866
   24MOL   H30826114   1.652   7.004   1.596 -1.3298 -1.0444 -1.0097
   24MOL   H30926115   1.602   6.915   1.456 -0.6529 -0.3302  1.8808
   24MOL   H31026116   1.888   7.001   1.509 -0.0660  0.8981  0.6083
   24MOL   H31126117   1.832   6.901   1.378 -1.8650  2.0692 -1.1244
   24MOL   H31226118   1.768   6.716   1.525  1.6293 -1.3785  0.6654
   24MOL   H31326119   1.943   6.748   1.519 -0.0906 -0.4540  1.9473
   24MOL   H31426120   1.926   6.847   1.746  2.2249 -1.1890 -2.7478
   24MOL   H31526121   1.749   6.848   1.737 -1.0092 -0.0057 -2.7143
   24MOL   H31626122   1.939   6.613   1.746  0.1764  0.4945 -0.0669
   24MOL   H31726123   1.772   6.589   1.704 -0.3573 -0.1740  1.4743
   24MOL   H31826124   1.720   6.653   1.955  0.4855 -0.8215  0.8593
   24MOL   H31926125   1.874   6.718   1.972  0.2678 -0.7903  2.5280
   24MOL   H32026126   1.975   6.477   1.900  0.4219  1.1851  1.3046
   24MOL   H32126127   1.923   6.524   2.056  0.5460  1.6116 -0.2112
   24MOL   H32226128   1.709   6.422   2.046 -0.3290  1.0131 -0.1226
   24MOL   H32326129   1.731   6.385   1.870  1.8880  1.0904 -0.7303
   24MOL   H32426130   1.849   6.212   1.817 -0.1943 -0.8720 -0.5948
   24MOL   H32526131   1.784   5.981   1.842 -1.0571 -1.7025  1.6411
   24MOL   H32626132   1.824   5.989   2.010  0.1452  0.4521 -0.3614
   24MOL   H32726133   2.064   5.997   1.959 -0.1478  1.5506 -0.2484
   24MOL   H32826134   2.032   6.030   1.785  1.3584 -2.1049 -0.8170
   24MOL   H32926135   1.987   5.776   1.931  2.8565  0.5983  1.2682
   24MOL   H33026136   2.110   5.826   1.826  0.4050  1.8654 -0.6011
   24MOL   H33126137   1.955   5.689   1.682 -0.2984  0.0587 -0.6851
   24MOL   H33226138   1.822   5.765   1.741  0.8362 -2.0523  1.9322
   24MOL   H33326139   2.038   5.891   1.555  0.8993 -1.7523  0.8940
   24MOL   H33426140   1.898   5.975   1.601  0.3668 -0.7692  2.0019
   24MOL   H33526141   1.910   5.723   1.436  0.2678  0.1319  0.8718
   24MOL   H33626142   1.757   5.807   1.484 -0.2250  1.5906  1.1553
   24MOL   H33726143   1.819   5.997   1.367 -0.2777 -0.1941  2.9131
   24MOL   C33826144   1.947   5.908   1.241  0.9886  0.5869 -0.2958
   24MOL   O33926145   2.027   5.816   1.211  0.1850 -0.4252 -0.6962
   24MOL   C34026146   1.931   6.019   1.138  0.0208  0.6345  0.1697
   24MOL   C34126147   2.064   6.092   1.120 -0.0391  0.2587 -0.5594
   24MOL   C34226148   2.058   6.199   1.012  0.5973  0.1959 -0.1899
   24MOL   C34326149   2.195   6.245   0.980  0.1091 -0.0626  0.0063
   24MOL   C34426150   2.201   6.344   0.863  0.1908  0.1547  0.2753
   24MOL   C34526151   2.348   6.378   0.834  0.1470  0.0904  0.1562
   24MOL   C34626152   2.363   6.439   0.693 -1.1227 -0.3120 -0.5605
   24MOL   C34726153   2.486   6.526   0.669  0.1652 -0.1040 -0.4552
   24MOL   C34826154   2.494   6.574   0.520 -0.2240 -0.4017  0.1543
   24MOL   C34926155   2.504   6.462   0.413 -0.3625  0.6069 -0.4655
   24MOL   C35026156   2.616   6.356   0.435  0.1438 -0.2665  0.0516
   24MOL   O35126157   2.729   6.390   0.404  0.6576 -0.4169 -0.1934
   24MOL   N35226158   2.579   6.228   0.460 -0.3826 -0.1614 -0.3964
   24MOL   C35326159   2.675   6.115   0.468 -0.5212 -0.1929 -0.0606
   24MOL   C35426160   2.750   6.086   0.606  0.5572 -0.6101  0.0832
   24MOL   C35526161   2.661   6.068   0.730 -0.0986 -0.3543 -0.4446
   24MOL   C35626162   2.738   6.021   0.852  0.2622 -0.6645 -0.0751
   24MOL   C35726163   2.652   5.997   0.974 -0.0895  0.3122 -0.0310
   24MOL   C35826164   2.694   6.064   1.102 -0.5451  0.1611 -0.0855
   24MOL   N35926165   2.638   5.996   1.224  0.3405  0.3930  0.1422
   24MOL   H36026166   1.854   6.089   1.169  1.0563  2.6989 -1.7880
   24MOL   H36126167   1.907   5.975   1.041  0.1202  0.0132  0.4235
   24MOL   H36226168   2.094   6.131   1.217 -0.4334 -1.9983  0.4923
   24MOL   H36326169   2.138   6.020   1.083 -0.9294  0.9644 -3.9522
   24MOL   H36426170   1.981   6.275   1.028  0.9090  0.0915  1.9907
   24MOL   H36526171   2.017   6.154   0.922 -0.0907  1.0708 -0.3237
   24MOL   H36626172   2.258   6.273   1.064  1.1547  1.7160 -1.3264
   24MOL   H36726173   2.251   6.154   0.959 -1.0904 -0.3329 -2.2559
   24MOL   H36826174   2.155   6.299   0.776 -0.8905 -0.5484  1.1898
   24MOL   H36926175   2.134   6.426   0.888  1.3279  1.4023 -0.7172
   24MOL   H37026176   2.379   6.446   0.914 -0.3312 -0.7515  1.0828
   24MOL   H37126177   2.416   6.293   0.834  0.6064  0.4565  0.7000
   24MOL   H37226178   2.359   6.360   0.618  1.3569  0.5420 -1.6200
   24MOL   H37326179   2.279   6.501   0.659  0.0212  0.6791 -1.6215
   24MOL   H37426180   2.496   6.610   0.739  2.2653 -1.0885  0.4806
   24MOL   H37526181   2.564   6.457   0.701 -0.8053 -1.0317 -0.0819
   24MOL   H37626182   2.590   6.627   0.517 -1.5051  1.9699  0.0295
   24MOL   H37726183   2.424   6.653   0.495  1.9504  1.7571  0.6252
   24MOL   H37826184   2.412   6.405   0.408  0.1166 -0.0743 -1.6977
   24MOL   H37926185   2.526   6.508   0.316  2.7032  0.0634 -0.0906
   24MOL   H38026186   2.483   6.211   0.486  0.1627 -1.7163  0.6830
   24MOL   H38126187   2.754   6.132   0.395  0.8018  2.0441  1.8447
   24MOL   H38226188   2.632   6.017   0.448  0.1579 -1.4294  4.0443
   24MOL   H38326189   2.841   6.141   0.631 -0.0773  0.2146  0.6246
   24MOL   H38426190   2.789   5.987   0.583  0.2562 -0.0227 -3.2048
   24MOL   H38526191   2.607   6.160   0.754  1.4243  0.0061  1.7452
   24MOL   H38626192   2.579   5.999   0.711 -0.7665  0.6187 -1.1080
   24MOL   H38726193   2.782   5.924   0.830 -0.9532 -1.0789 -0.7085
   24MOL   H38826194   2.830   6.074   0.878 -0.2267  0.3921 -0.4696
   24MOL   H38926195   2.645   5.889   0.989 -1.3780  0.5389  1.1272
   24MOL   H39026196   2.551   6.031   0.952 -0.3436 -0.5074 -0.1620
   24MOL   H39126197   2.803   6.061   1.111 -0.4257 -1.8598 -1.8903
   24MOL   H39226198   2.673   6.170   1.088  1.3940  0.4178 -1.1577
   24MOL   H39326199   2.696   5.926   1.269  0.2629  0.4942  0.4051
   24MOL   C39426200   2.521   6.023   1.281 -0.4820  0.9106  0.0198
   24MOL   O39526201   2.447   6.105   1.227 -0.3610 -0.5350  0.2971
   24MOL   C39626202   2.485   5.957   1.413  0.1957 -0.0504  0.3784
   24MOL   C39726203   2.363   5.868   1.393  0.0806  0.3036  0.0891
   24MOL   C39826204   2.341   5.800   1.525  0.0214  0.1945 -0.3664
   24MOL   C39926205   2.237   5.698   1.527  0.4384  0.8623  0.1250
   24MOL   C40026206   2.256   5.567   1.445  0.1956 -0.5186 -0.1789
   24MOL   C40126207   2.144   5.473   1.421  0.0932  0.1846  0.4169
   24MOL   C40226208   2.097   5.414   1.552 -0.4710  0.2706  0.2290
   24MOL   C40326209   1.987   5.309   1.523  1.0721 -0.4758 -0.9018
   24MOL   C40426210   1.856   5.385   1.479 -0.0710 -0.3227  0.0552
   24MOL   C40526211   1.770   5.444   1.588 -0.0884  0.3032 -0.2427
   24MOL   C40626212   1.646   5.518   1.535  0.1563  0.4690  0.0651
   24MOL   O40726213   1.619   5.527   1.413  0.7966 -0.0904 -0.5404
   24MOL   N40826214   1.581   5.570   1.636  0.6924 -0.3634  0.1104
   24MOL   C40926215   1.455   5.646   1.635  0.0684 -0.3333 -0.0639
   24MOL   C41026216   1.458   5.726   1.768  0.4262 -0.3017  0.6553
   24MOL   C41126217   1.357   5.844   1.775  0.5833 -1.2288  0.7748
   24MOL   C41226218   1.372   5.953   1.664  0.3190 -0.1302  0.8713
   24MOL   C41326219   1.509   6.026   1.669 -0.1401  0.4782  0.5466
   24MOL   C41426220   1.495   6.156   1.585  0.4026 -0.2994  0.1537
   24MOL   N41526221   1.611   6.244   1.599 -0.6232 -0.0130  0.1572
   24MOL   H41626222   2.475   6.027   1.496 -0.1105 -0.1709  0.4442
   24MOL   H41726223   2.572   5.896   1.438 -0.2951 -0.8396  0.1719
   24MOL   H41826224   2.370   5.793   1.315 -0.4507  1.0666 -0.6968
   24MOL   H41926225   2.275   5.924   1.363 -1.0254 -1.5327 -0.0949
   24MOL   H42026226   2.327   5.874   1.604 -0.3797  0.1348 -0.3804
   24MOL   H42126227   2.439   5.758   1.544  0.2974  0.4007 -1.3255
   24MOL   H42226228   2.148   5.745   1.487 -1.5142 -1.7125  1.3159
   24MOL   H42326229   2.209   5.665   1.627 -0.9223 -0.5984 -0.7101
   24MOL   H42426230   2.301   5.581   1.347  1.1635 -0.8914  0.2001
   24MOL   H42526231   2.326   5.498   1.493  0.1421 -0.6361 -0.2678
   24MOL   H42626232   2.066   5.526   1.366  0.8470  1.0115  0.1353
   24MOL   H42726233   2.178   5.400   1.348  1.6131  1.3419 -0.0587
   24MOL   H42826234   2.175   5.372   1.616  0.2220 -0.8540 -1.3470
   24MOL   H42926235   2.049   5.485   1.620 -0.2801 -1.8690  2.6589
   24MOL   H43026236   2.019   5.238   1.445  0.3713 -1.9275  0.1049
   24MOL   H43126237   1.967   5.241   1.605 -2.0809  3.7145  1.9809
   24MOL   H43226238   1.797   5.314   1.421  2.1744  0.0587 -2.7505
   24MOL   H43326239   1.883   5.459   1.403  1.1406 -1.0463 -0.2285
   24MOL   H43426240   1.740   5.354   1.641  1.0994 -0.7967 -1.4023
   24MOL   H43526241   1.818   5.520   1.651 -1.4217  0.2105  0.9042
   24MOL   H43626242   1.629   5.577   1.725  2.1497 -1.2721 -0.5846
   24MOL   H43726243   1.368   5.580   1.636  0.1341 -0.4201 -0.0064
   24MOL   H43826244   1.453   5.704   1.543 -0.7640  3.1580  2.0570
   24MOL   H43926245   1.555   5.768   1.790  0.2109  1.0483 -0.8636
   24MOL   H44026246   1.437   5.653   1.846  0.1405 -0.1700  0.7031
   24MOL   H44126247   1.255   5.807   1.772  0.6627 -1.3366 -1.4323
   24MOL   H44226248   1.360   5.895   1.871 -0.5985  1.5293 -0.6008
   24MOL   H44326249   1.360   5.917   1.562  2.2853 -0.6586  0.7987
   24MOL   H44426250   1.288   6.016   1.690 -1.6035 -2.4152  0.3534
   24MOL   H44526251   1.538   6.055   1.770  0.5204 -0.6315  0.6876
   24MOL   H44626252   1.590   5.966   1.626 -0.5116 -0.2483  0.8472
   24MOL   H44726253   1.465   6.130   1.483 -0.0717  1.4243 -0.1606
   24MOL   H44826254   1.412   6.216   1.623  1.3301  0.1838  1.4465
   24MOL   H44926255   1.604   6.315   1.670  0.3090  0.3455 -0.1052
   24MOL   C45026256   1.723   6.228   1.532 -0.6843  0.2812  0.3815
   24MOL   O45126257   1.728   6.149   1.438 -0.0681 -0.0507 -0.4730
   24MOL   C45226258   1.840   6.310   1.576  0.1670  0.7942 -0.1334
   24MOL   C45326259   1.880   6.436   1.482  0.0728  0.1729  0.0811
   24MOL   C45426260   1.931   6.392   1.347 -0.3581  0.2749 -0.0416
   24MOL   C45526261   1.998   6.508   1.268  0.0837  0.0462 -0.1608
   24MOL   C45626262   1.908   6.568   1.154  0.0270 -0.0429  0.5069
   24MOL   C45726263   1.963   6.696   1.077 -0.4292  0.2810 -0.0584
   24MOL   C45826264   2.090   6.677   0.998 -0.6160  0.0574 -0.7544
   24MOL   C45926265   2.170   6.798   0.953 -0.0291 -0.3660 -0.2646
   24MOL   C46026266   2.256   6.766   0.825  0.7861 -0.4792  0.0822
   24MOL   C46126267   2.352   6.878   0.786  0.0820  0.2493  0.6129
   24MOL   C46226268   2.294   7.018   0.759 -0.2182 -0.7691  0.1209
   24MOL   O46326269   2.210   7.033   0.671 -0.1717  0.0908 -0.0004
   24MOL   N46426270   2.341   7.119   0.833 -0.7303  0.2251 -0.4855
   24MOL   C46526271   2.286   7.253   0.837  0.4620 -0.2443 -0.2958
   24MOL   C46626272   2.335   7.343   0.952 -0.5708 -0.0505 -0.7376
   24MOL   C46726273   2.250   7.460   0.987 -0.4486 -0.2587 -0.5766
   24MOL   C46826274   2.294   7.539   1.109  0.1699 -0.0598  0.7313
   24MOL   C46926275   2.189   7.650   1.131 -0.8088  0.0454 -0.2465
   24MOL   C47026276   2.187   0.067   1.026  0.7234  0.3535  0.8050
   24MOL   N47126277   2.078   0.162   1.068 -0.2540 -0.0578  0.6564
   24MOL   H47226278   1.815   6.346   1.675 -0.5411 -1.1399  0.4090
   24MOL   H47326279   1.927   6.244   1.583  0.7774  1.5450 -0.5783
   24MOL   H47426280   1.961   6.492   1.530 -1.3965  0.1876  2.6077
   24MOL   H47526281   1.793   6.500   1.471 -0.6257 -1.0080 -1.3667
   24MOL   H47626282   1.856   6.343   1.285 -0.8749 -0.4490  1.1215
   24MOL   H47726283   2.003   6.311   1.361 -0.8526 -0.1823 -0.1236
   24MOL   H47826284   2.074   6.450   1.215  0.3678  0.8825 -0.6783
   24MOL   H47926285   2.038   6.585   1.334 -1.0854 -0.3318  1.0046
   24MOL   H48026286   1.813   6.595   1.200 -1.9156 -1.1657 -2.7377
   24MOL   H48126287   1.877   6.487   1.089  0.6599 -2.4834  3.1168
   24MOL   H48226288   1.975   6.780   1.145 -0.9830  1.3637 -1.2641
   24MOL   H48326289   1.887   6.739   1.011 -0.5309 -0.4187 -0.3967
   24MOL   H48426290   2.157   6.606   1.047 -0.8224 -0.4079 -1.1507
   24MOL   H48526291   2.053   6.625   0.910 -0.5755 -1.3845  0.0531
   24MOL   H48626292   2.107   6.885   0.939  1.0924  0.2403 -1.6355
   24MOL   H48726293   2.236   6.815   1.039 -0.4067  1.5122 -0.3209
   24MOL   H48826294   2.192   6.740   0.741  0.7457 -2.9006  0.8442
   24MOL   H48926295   2.309   6.673   0.843 -0.5228 -1.1205  0.6595
   24MOL   H49026296   2.423   6.886   0.868 -1.5405  0.5828  2.0160
   24MOL   H49126297   2.395   6.853   0.689 -2.2228 -0.5464 -0.2274
   24MOL   H49226298   2.408   7.091   0.903 -0.6449  3.2077  0.7149
   24MOL   H49326299   2.180   7.234   0.854  0.1691  0.0980 -1.6618
   24MOL   H49426300   2.280   7.304   0.740 -0.6109  0.1626 -0.0267
   24MOL   H49526301   2.362   7.277   1.035  3.4903  1.0138 -1.1198
   24MOL   H49626302   2.435   7.376   0.926 -0.8833  1.0189 -0.5790
   24MOL   H49726303   2.151   7.424   1.013 -0.7002  0.5857 -0.3345
   24MOL   H49826304   2.246   7.520   0.896  0.8609 -1.2543 -1.2981
   24MOL   H49926305   2.394   7.575   1.089  0.4670 -0.8381  0.7953
   24MOL   H50026306   2.314   7.484   1.201  0.1009 -0.9066  0.2509
   24MOL   H50126307   2.095   7.597   1.139 -0.6307 -0.3612 -0.8441
   24MOL   H50226308   2.207   0.002   1.230 -1.9522 -1.4212  0.6219
   24MOL   H50326309   2.287   0.109   1.018  0.4454  0.3390 -4.2527
   24MOL   H50426310   2.166   0.025   0.928 -1.0566 -1.0884  1.7730
   24MOL   H50526311   2.100   0.243   1.124  2.0304  0.6826 -1.1985
   24MOL   C50626312   1.949   0.153   1.031  0.3200  0.3012 -0.0416
   24MOL   O50726313   1.897   0.055   0.981 -0.5791  0.2077  0.2138
   24MOL   C50826314   1.866   0.273   1.058  0.5008 -0.5698 -0.4090
   24MOL   C50926315   1.804   0.271   1.196 -0.0626 -0.7274  0.0590
   24MOL   C51026316   1.682   0.180   1.206 -0.2298  0.4268 -0.1059
   24MOL   C51126317   1.641   0.144   1.351  0.4956  0.4175 -0.0861
   24MOL   C51226318   1.539   0.031   1.337 -0.9860  0.4060  0.1681
   24MOL   C51326319   1.471   7.679   1.464  0.0096  0.2905  0.7950
   24MOL   C51426320   1.351   7.573   1.446  0.5733  0.8241  0.1015
   24MOL   C51526321   1.291   7.532   1.579  0.2041  0.1115 -0.2593
   24MOL   C51626322   1.186   7.421   1.549  0.2247 -0.4162 -0.1640
   24MOL   C51726323   1.133   7.342   1.671 -0.9092 -0.6733 -0.6255
   24MOL   C51826324   1.239   7.249   1.730 -0.3024 -0.8497 -0.4776
   24MOL   O51926325   1.308   7.180   1.654 -0.6018  0.1159  0.2873
   24MOL   N52026326   1.250   7.248   1.864 -0.2550 -0.1577  0.2593
   24MOL   C52126327   1.320   7.151   1.948 -0.1930 -0.8221  0.3621
   24MOL   C52226328   1.480   7.146   1.936 -0.2425 -0.3731 -0.0128
   24MOL   C52326329   1.540   7.029   2.023  0.3383 -0.4406 -0.4895
   24MOL   C52426330   1.697   7.039   2.033 -0.2421 -0.3962 -0.2095
   24MOL   C52526331   1.774   6.973   2.150 -0.0886 -0.3740 -0.3829
   24MOL   C52626332   1.711   7.033   2.278 -0.1157  0.1979 -0.3496
   24MOL   N52726333   1.797   6.987   2.386  0.9125  0.1794  0.0080
   24MOL   H52826334   1.789   0.290   0.982  0.9529 -1.9554 -1.1884
   24MOL   H52926335   1.928   0.363   1.062  1.2616 -1.1396  0.9107
   24MOL   H53026336   1.763   0.369   1.218 -0.7496 -0.9863 -0.0613
   24MOL   H53126337   1.880   0.252   1.272 -0.2123 -1.3302  0.0582
   24MOL   H53226338   1.708   0.087   1.154 -0.1575  0.2066  0.3241
   24MOL   H53326339   1.597   0.217   1.149  1.1291  1.7671 -1.3314
   24MOL   H53426340   1.724   0.128   1.421  0.3047  1.8603  0.4935
   24MOL   H53526341   1.601   0.240   1.384 -0.9236 -0.3302  0.4200
   24MOL   H53626342   1.459   0.062   1.270  0.0015  1.2561 -0.6329
   24MOL   H53726343   1.587   7.636   1.291 -1.1207  0.0060  0.7681
   24MOL   H53826344   1.550   7.638   1.527 -0.0863 -0.3336  0.5066
   24MOL   H53926345   1.432   0.079   1.510  1.8630  1.4869  0.0507
   24MOL   H54026346   1.267   7.605   1.384 -0.4809 -3.6238 -0.9170
   24MOL   H54126347   1.398   7.485   1.402 -1.1813 -0.1004  0.0141
   24MOL   H54226348   1.373   7.506   1.645  0.8499  2.5598 -0.0416
   24MOL   H54326349   1.246   7.621   1.624  1.6731  0.3330  0.7835
   24MOL   H54426350   1.236   7.354   1.480 -0.9376  1.3909 -2.8352
   24MOL   H54526351   1.098   7.468   1.506  1.6347  1.8713 -0.6271
   24MOL   H54626352   1.097   7.401   1.756  1.9546  1.3598 -0.7601
   24MOL   H54726353   1.047   7.284   1.639 -1.6187  0.0275 -0.0195
   24MOL   H54826354   1.192   7.318   1.907 -1.3086 -0.5728 -0.4780
   24MOL   H54926355   1.290   7.048   1.928 -0.0609 -0.7179 -0.4117
   24MOL   H55026356   1.276   7.173   2.045  1.0355 -0.3702  0.8355
   24MOL   H55126357   1.524   7.243   1.959  1.8469 -1.1604 -0.5669
   24MOL   H55226358   1.501   7.125   1.831 -1.8335 -0.2044 -0.3857
   24MOL   H55326359   1.507   6.930   1.990 -0.5741  0.6862 -3.0951
   24MOL   H55426360   1.488   7.020   2.118  0.0152 -1.4594 -0.7480
   24MOL   H55526361   1.716   7.146   2.047 -1.5860 -0.0504 -0.8623
   24MOL   H55626362   1.739   7.015   1.935 -1.9455  0.1470 -1.0963
   24MOL   H55726363   1.775   6.864   2.154 -1.9301 -0.4488 -1.1453
   24MOL   H55826364   1.878   7.004   2.151 -0.4350  0.8368 -0.4030
   24MOL   H55926365   1.696   7.141   2.278  1.0469  0.3609 -0.2053
   24MOL   H56026366   1.615   6.984   2.297  0.1398 -0.1848 -0.0235
   24MOL   H56126367   1.816   6.888   2.394 -1.4059 -0.3587 -0.8310
   24MOL   C56226368   1.858   7.074   2.464 -0.7583 -0.0191  0.0734
   24MOL   O56326369   1.830   7.193   2.448 -0.5148 -1.2283 -0.1301
   24MOL   C56426370   1.952   7.035   2.571 -0.0327  0.2417  0.3298
   24MOL   C56526371   2.069   7.131   2.601  0.3846 -0.5755 -0.5459
   24MOL   C56626372   2.152   7.082   2.722  0.6275  0.1961  0.0088
   24MOL   C56726373   2.283   7.152   2.766  0.7927 -0.1354  0.0039
   24MOL   C56826374   2.392   7.147   2.657 -0.0895 -0.2903  0.1644
   24MOL   C56926375   2.462   7.015   2.631  0.6475  0.3048  0.1223
   24MOL   C57026376   2.550   7.028   2.506  0.4730  0.2286  0.1484
   24MOL   C57126377   2.591   6.896   2.442  0.0006 -0.1186  0.1588
   24MOL   C57226378   2.675   6.921   2.321 -0.5650  0.1993  0.9260
   24MOL   C57326379   2.773   6.811   2.283  0.1118  0.8691  0.0920
   24MOL   C57426380   2.894   6.779   2.380  0.1050 -0.9302  0.4371
   24MOL   O57526381   2.935   6.875   2.456  0.7244  0.5047  0.7206
   24MOL   N57626382   2.953   6.659   2.373  0.0073  0.2136  0.1674
   24MOL   C57726383   3.051   6.614   2.474  0.3316 -0.1125  0.0230
   24MOL   C57826384   3.163   6.544   2.392  0.2229 -1.2798  0.0893
   24MOL   C57926385   3.114   6.415   2.326  0.5423  0.0989  1.0161
   24MOL   C58026386   3.078   6.300   2.423 -0.0852  0.1100 -0.0312
   24MOL   C58126387   3.021   6.174   2.347  0.0100 -0.6026  0.2620
   24MOL   C58226388   2.880   6.205   2.289 -0.2985  0.1430  0.2639
   24MOL   N58326389   2.795   6.267   2.394 -0.6892 -0.0120 -0.2849
   24MOL   H58426390   1.897   7.024   2.664 -1.3077  1.5523 -0.2593
   24MOL   H58526391   1.990   6.933   2.561  0.1839  0.3149  0.3999
   24MOL   H58626392   2.121   7.143   2.507  1.8043 -1.6759  0.0837
   24MOL   H58726393   2.033   7.233   2.613  2.4969  0.5049 -2.9388
   24MOL   H58826394   2.157   6.974   2.722 -1.3311  0.0647 -2.4179
   24MOL   H58926395   2.082   7.087   2.805 -0.1781 -1.2552 -0.5768
   24MOL   H59026396   2.259   7.253   2.798 -1.1211 -0.7499  0.5499
   24MOL   H59126397   2.314   7.111   2.862 -0.2592 -2.1186 -0.4758
   24MOL   H59226398   2.347   7.191   2.569 -0.2123 -2.4044 -0.8798
   24MOL   H59326399   2.473   7.217   2.676  0.2307  0.1072 -2.4649
   24MOL   H59426400   2.517   6.980   2.718  0.4249 -0.0180  0.1341
   24MOL   H59526401   2.386   6.942   2.602  1.0771 -0.6000  1.2256
   24MOL   H59626402   2.514   7.111   2.445  0.2053 -0.8512 -1.1888
   24MOL   H59726403   2.640   7.078   2.542  0.7374 -0.4785  0.4858
   24MOL   H59826404   2.505   6.834   2.413 -2.3711  2.3235  1.7325
   24MOL   H59926405   2.650   6.844   2.517 -1.9647  0.3801  2.0903
   24MOL   H60026406   2.742   7.007   2.323  1.2485 -0.8159 -5.4088
   24MOL   H60126407   2.606   6.937   2.239  0.6003 -1.7899 -0.4926
   24MOL   H60226408   2.720   6.718   2.258  2.4517 -0.8677  1.3774
   24MOL   H60326409   2.831   6.831   2.194  0.7780  2.6411  0.9044
   24MOL   H60426410   2.914   6.586   2.315 -0.1371  0.3404  0.1038
   24MOL   H60526411   3.017   6.549   2.555 -0.3416  1.8139  1.3179
   24MOL   H60626412   3.099   6.697   2.526  1.5408 -1.1600  0.6124
   24MOL   H60726413   3.246   6.514   2.456  1.8806 -0.1914 -1.5030
   24MOL   H60826414   3.202   6.608   2.313  0.4332 -0.8169  0.5682
   24MOL   H60926415   3.179   6.371   2.250 -0.5514  1.6318 -0.8466
   24MOL   H61026416   3.029   6.445   2.264  0.2005 -1.0583  0.9077
   24MOL   H61126417   3.171   6.267   2.469  0.4335  3.2017  1.2172
   24MOL   H61226418   3.019   6.332   2.509 -1.4075 -1.3084 -0.3791
   24MOL   H61326419   3.007   6.087   2.411  0.6062 -1.4829 -0.7733
   24MOL   H61426420   3.087   6.139   2.267  0.8973  0.2439  0.6228
   24MOL   H61526421   2.893   6.264   2.197  5.1657  0.2161  0.8996
   24MOL   H61626422   2.836   6.111   2.258  0.7651 -0.2312 -0.1382
   24MOL   H61726423   2.768   6.201   2.466  2.5466 -1.0888  0.0211
   24MOL   C61826424   2.742   6.387   2.387 -0.3505 -0.1173 -0.2464
   24MOL   O61926425   2.775   6.473   2.309  0.0745  0.3687 -0.2936
   24MOL   C62026426   2.645   6.418   2.500 -0.1788  0.0359  0.1848
   24MOL   C62126427   2.525   6.503   2.456 -0.1791 -1.3137 -0.7015
   24MOL   C62226428   2.428   6.434   2.361  0.2078  0.0325  0.1411
   24MOL   C62326429   2.467   6.458   2.212  0.6671  0.1969  0.3087
   24MOL   C62426430   2.350   6.432   2.112  0.2607 -0.0030  0.4793
   24MOL   C62526431   2.394   6.406   1.967  0.0656 -0.1155  0.5857
   24MOL   C62626432   2.277   6.371   1.876  1.1654  0.3031  0.1427
   24MOL   C62726433   2.325   6.359   1.731  0.1532  0.0982  0.5251
   24MOL   C62826434   2.216   6.307   1.629 -0.5977  0.1874 -0.8689
   24MOL   C62926435   2.269   6.277   1.493 -0.2906 -0.0120 -0.4596
   24MOL   C63026436   2.316   6.399   1.418 -0.1539 -0.6037 -0.0108
   24MOL   O63126437   2.289   6.513   1.451 -0.2106 -0.5417  0.1236
   24MOL   N63226438   2.379   6.371   1.303 -0.1968 -0.4544  0.7541
   24MOL   C63326439   2.434   6.474   1.217 -0.5554 -0.1951  0.8217
   24MOL   C63426440   2.559   6.416   1.138  0.0567 -0.2181 -1.1634
   24MOL   C63526441   2.617   6.523   1.040  0.6658  0.2581 -0.0355
   24MOL   C63626442   2.730   6.614   1.098 -0.8414 -0.4945 -0.9068
   24MOL   C63726443   2.803   6.701   0.989  0.0144 -0.1046 -0.5638
   24MOL   C63826444   2.720   6.832   0.957 -0.2181  0.1733 -0.3168
   24MOL   N63926445   2.722   6.929   1.067  0.0376  0.1320  0.4433
   24MOL   H64026446   2.697   6.468   2.580 -0.0794  0.2540 -0.0175
   24MOL   H64126447   2.610   6.323   2.541  0.5130 -0.0244  0.6207
   24MOL   H64226448   2.561   6.587   2.397 -1.3656  0.0343  0.4536
   24MOL   H64326449   2.478   6.554   2.540  0.7897 -1.7869  0.1342
   24MOL   H64426450   2.323   6.463   2.365  0.6592  1.7852 -0.3935
   24MOL   H64526451   2.430   6.326   2.371  0.4838  0.0516  0.2886
   24MOL   H64626452   2.492   6.561   2.187 -1.5763  1.0809  1.5392
   24MOL   H64726453   2.548   6.387   2.195 -1.4430 -2.1444 -0.1286
   24MOL   H64826454   2.288   6.356   2.159 -0.1769 -0.7038 -1.1778
   24MOL   H64926455   2.283   6.518   2.105 -0.9462 -1.0397 -1.0342
   24MOL   H65026456   2.468   6.325   1.966  0.6799  0.4599 -0.2631
   24MOL   H65126457   2.450   6.486   1.919  1.2380 -0.2854  1.6153
   24MOL   H65226458   2.228   6.282   1.916  1.6681 -0.1090 -0.1539
   24MOL   H65326459   2.206   6.453   1.872 -0.6346 -1.2885 -2.0339
   24MOL   H65426460   2.347   6.461   1.698 -0.6216  0.1014  0.0142
   24MOL   H65526461   2.413   6.295   1.739  0.8595  0.9155 -0.5676
   24MOL   H65626462   2.144   6.387   1.615 -2.1465 -1.4679 -2.6673
   24MOL   H65726463   2.153   6.226   1.667 -0.6594  1.0049  0.8051
   24MOL   H65826464   2.348   6.203   1.502  2.2987  2.6755 -0.2175
   24MOL   H65926465   2.182   6.232   1.444 -0.0742 -1.6964  0.6538
   24MOL   H66026466   2.386   6.277   1.268  0.7081 -0.9994  2.3547
   24MOL   H66126467   2.352   6.498   1.148  0.4985 -1.9072 -1.0961
   24MOL   H66226468   2.456   6.560   1.279  0.3543 -1.5863  2.4540
   24MOL   H66326469   2.530   6.334   1.072  0.7728  0.1816 -1.9891
   24MOL   H66426470   2.640   6.368   1.193 -0.9666  1.2201  1.6973
   24MOL   H66526471   2.669   6.465   0.964  0.5033 -0.5076  0.4356
   24MOL   H66626472   2.535   6.579   0.996  0.0293 -0.6971 -0.0757
   24MOL   H66726473   2.811   6.560   1.147  0.0173 -1.1335 -2.9942
   24MOL   H66826474   2.692   6.672   1.183  0.9451 -2.2255  1.1405
   24MOL   H66926475   2.903   6.733   1.019 -0.6966 -1.4170  3.5165
   24MOL   H67026476   2.821   6.641   0.900  3.3835  0.4477 -0.3019
   24MOL   H67126477   2.758   6.874   0.865  1.5719 -0.6779  0.0200
   24MOL   H67226478   2.619   6.808   0.924 -0.9786  0.9277  1.3656
   24MOL   H67326479   2.800   6.915   1.130  0.4567 -1.1251 -0.3315
   24MOL   C67426480   2.632   7.023   1.091 -0.1059  0.4600 -0.7435
   24MOL   O67526481   2.527   7.039   1.016 -0.0872  0.7879 -0.2664
   24MOL   C67626482   2.657   7.103   1.224 -0.1127  0.2195 -0.4617
   24MOL   C67726483   2.617   7.254   1.207  0.5671  0.3623  0.3526
   24MOL   C67826484   2.710   7.327   1.105  0.5929  0.0521  0.2060
   24MOL   C67926485   2.710   7.480   1.139 -0.3252  0.0511  0.1938
   24MOL   C68026486   2.789   7.566   1.036  0.0214 -0.9371  0.2492
   24MOL   C68126487   2.753   0.025   1.034 -0.0105 -0.4005 -0.4013
   24MOL   C68226488   2.849   0.112   0.950 -0.0242  0.1226 -0.2383
   24MOL   C68326489   2.990   0.125   0.988 -0.1855 -0.0146  0.6136
   24MOL   C68426490   3.087   0.045   0.904  0.1237 -0.0150  0.1387
   24MOL   C68526491   3.230   0.092   0.928 -0.7653  0.2357 -0.2515
   24MOL   C68626492   3.334   0.057   0.816 -0.0569  0.0217  0.3901
   24MOL   O68726493   3.297   0.028   0.704  0.0821  0.3175  0.1470
   24MOL   N68826494   3.456   0.065   0.853  0.1169  0.4298 -0.0224
   24MOL   C68926495   3.573   0.018   0.783  0.3134  0.5868  0.1267
   24MOL   C69026496   3.638   7.578   0.837 -0.3952 -0.1183  0.5506
   24MOL   C69126497   3.531   7.473   0.834  0.0648 -0.4624 -0.4975
   24MOL   C69226498   3.583   7.348   0.903  0.0041  0.3336 -0.5317
   24MOL   C69326499   3.653   7.242   0.815 -0.1630 -0.1664 -0.4419
   24MOL   C69426500   3.569   7.178   0.704  0.3353  0.0530  0.1121
   24MOL   N69526501   3.451   7.105   0.769 -0.4298  0.4086  0.3556
   24MOL   H69626502   2.760   7.089   1.254 -0.3798 -3.9554 -1.1678
   24MOL   H69726503   2.599   7.069   1.311 -0.0439  1.2898  0.0100
   24MOL   H69826504   2.621   7.301   1.305 -0.7393 -2.1444  1.6361
   24MOL   H69926505   2.516   7.251   1.168  0.2286 -1.5542  1.3052
   24MOL   H70026506   2.806   7.277   1.117  0.5147 -0.1288  0.0663
   24MOL   H70126507   2.681   7.301   1.003  1.6232  0.7267 -0.2582
   24MOL   H70226508   2.749   7.497   1.240  2.2700 -1.0620 -0.5800
   24MOL   H70326509   2.607   7.514   1.138 -1.2051 -2.1969  3.6857
   24MOL   H70426510   2.765   7.534   0.934  0.7482  0.6507 -0.4411
   24MOL   H70526511   2.896   7.555   1.055  0.7230  2.6528 -1.1878
   24MOL   H70626512   2.655   0.038   0.988 -0.1810  1.7312  0.5049
   24MOL   H70726513   2.741   0.060   1.137 -1.1107 -0.4166 -0.5215
   24MOL   H70826514   2.841   0.070   0.850 -0.0840 -1.2627  0.3343
   24MOL   H70926515   2.808   0.212   0.933  1.1392  0.3157 -2.0640
   24MOL   H71026516   3.021   0.228   0.974 -0.8895  0.0075 -0.8718
   24MOL   H71126517   2.997   0.110   1.096 -0.0646  0.9302  0.7384
   24MOL   H71226518   3.056   0.051   0.799 -2.8499  1.2833  1.0328
   24MOL   H71326519   3.080   7.628   0.909  2.1627 -0.0739  2.0351
   24MOL   H71426520   3.227   0.201   0.933 -0.8244  0.1764  1.0262
   24MOL   H71526521   3.265   0.051   1.022 -1.1806  0.5720  0.0501
   24MOL   H71626522   3.474   0.089   0.949  4.0220 -0.4379 -0.4500
   24MOL   H71726523   3.536   0.023   0.681 -0.9375  0.1524  0.5470
   24MOL   H71826524   3.639   0.104   0.791 -0.7984  1.3620  1.1742
   24MOL   H71926525   3.668   7.602   0.939 -0.7840  0.6006  0.5038
   24MOL   H72026526   3.723   7.537   0.783 -0.7292  0.7841 -0.6928
   24MOL   H72126527   3.452   7.505   0.901  2.0370 -0.9518  2.1580
   24MOL   H72226528   3.498   7.457   0.731 -1.2009 -2.6326  0.2210
   24MOL   H72326529   3.497   7.296   0.945  0.6752  0.0348  0.4888
   24MOL   H72426530   3.655   7.365   0.983  3.1600  0.3059 -3.2167
   24MOL   H72526531   3.681   7.160   0.881  0.2192 -2.3412 -3.2371
   24MOL   H72626532   3.740   7.286   0.765  2.0102 -2.9357  0.7503
   24MOL   H72726533   3.532   7.258   0.640  1.7564  0.7338  0.1119
   24MOL   H72826534   3.627   7.100   0.655  1.1818  0.3044  0.6883
   24MOL   H72926535   3.373   7.164   0.794 -0.8099  0.4620 -0.9306
   24MOL   C73026536   3.461   6.980   0.823 -0.0612 -0.1109  0.0671
   24MOL   O73126537   3.562   6.918   0.816  0.2725  0.8414  0.1549
   24MOL   C73226538   3.341   6.920   0.892 -0.0355  0.0991  0.5602
   24MOL   C73326539   3.378   6.859   1.032  0.6350  0.2410  0.4116
   24MOL   C73426540   3.389   6.705   1.015  0.0104  0.2882 -0.5126
   24MOL   C73526541   3.253   6.632   1.001 -0.2083 -0.1623  0.3551
   24MOL   C73626542   3.274   6.478   1.006 -0.1967  0.0309  0.5970
   24MOL   C73726543   3.143   6.389   1.022 -0.2543 -0.6657  0.2654
   24MOL   C73826544   3.168   6.238   1.003 -0.4727 -0.3404  0.7008
   24MOL   C73926545   3.197   6.215   0.857 -0.1257  0.6582 -1.1360
   24MOL   C74026546   3.196   6.061   0.830 -0.5254  0.4374  0.0751
   24MOL   C74126547   3.213   6.031   0.676 -0.4668 -0.0613 -0.3193
   24MOL   C74226548   3.192   5.886   0.636 -0.0697 -0.7243  0.8470
   24MOL   O74326549   3.223   5.798   0.709 -0.6211 -0.0861 -0.3853
   24MOL   N74426550   3.152   5.869   0.512  0.4793 -0.0992 -0.7931
   24MOL   C74526551   3.130   5.741   0.446  0.7387 -0.2586  0.4490
   24MOL   C74626552   3.085   5.759   0.302 -0.3566  0.3746  0.0813
   24MOL   C74726553   2.947   5.802   0.281  0.7031 -0.0020  0.4330
   24MOL   C74826554   2.898   5.818   0.133  0.1995  0.6361 -0.1404
   24MOL   C74926555   2.756   5.871   0.124 -0.2713  0.2287  0.0098
   24MOL   C75026556   2.734   5.939   7.681 -0.0637  0.3099 -0.1539
   24MOL   N75126557   2.604   6.015   7.674 -0.4086 -0.6573 -0.2943
   24MOL   H75226558   3.285   6.851   0.828  2.0566 -1.2661  0.1440
   24MOL   H75326559   3.286   7.011   0.916  1.9549  1.0721  1.5727
   24MOL   H75426560   3.300   6.878   1.107 -0.6379 -0.6739 -0.6672
   24MOL   H75526561   3.470   6.903   1.070  0.6596 -0.1865  0.8566
   24MOL   H75626562   3.436   6.673   1.108 -0.4880  3.7885  1.0095
   24MOL   H75726563   3.449   6.673   0.930  0.8811 -1.2004  0.6280
   24MOL   H75826564   3.193   6.671   0.919  0.9573  0.2353 -0.3022
   24MOL   H75926565   3.195   6.656   1.091 -2.2635 -1.7189 -0.4994
   24MOL   H76026566   3.341   6.457   1.089 -1.0364  0.3464  1.3675
   24MOL   H76126567   3.329   6.443   0.919  0.4058 -0.1244  1.0421
   24MOL   H76226568   3.097   6.411   1.118 -0.9966 -1.1063  0.0103
   24MOL   H76326569   3.068   6.424   0.951 -1.5916  0.2162  2.0677
   24MOL   H76426570   3.254   6.207   1.062  0.4450 -1.1079 -1.0237
   24MOL   H76526571   3.079   6.189   1.044 -0.8590  0.4160  0.7758
   24MOL   H76626572   3.114   6.267   0.808 -1.5672 -0.0248  0.5116
   24MOL   H76726573   3.282   6.271   0.817  0.4445  0.6824  0.1090
   24MOL   H76826574   3.107   6.005   0.861  0.9162 -2.9312 -1.6892
   24MOL   H76926575   3.278   6.030   0.894 -0.4550 -0.6187 -0.5155
   24MOL   H77026576   3.143   6.101   0.630 -1.3300 -0.6649  0.0744
   24MOL   H77126577   3.312   6.060   0.640 -1.2580  1.7972 -1.0903
   24MOL   H77226578   3.156   5.950   0.453  0.6352 -0.5755 -1.4412
   24MOL   H77326579   3.077   5.668   0.508  0.8165 -0.6547  0.0530
   24MOL   H77426580   3.229   5.698   0.433  1.3960  2.0450 -2.6736
   24MOL   H77526581   3.112   5.674   0.239 -1.1270  1.6027 -1.9864
   24MOL   H77626582   3.144   5.833   0.247 -1.4109 -0.4249 -2.2068
   24MOL   H77726583   2.921   5.885   0.347  1.0729 -0.8470  1.6280
   24MOL   H77826584   2.884   5.722   0.318 -0.4856  0.4928 -0.4786
   24MOL   H77926585   2.960   5.888   0.078 -0.1053  0.5141 -0.6383
   24MOL   H78026586   2.881   5.724   0.080 -0.7005  1.3132 -1.0653
   24MOL   H78126587   2.742   5.939   0.208  0.9570  0.5825 -0.0595
   24MOL   H78226588   2.681   5.794   0.138 -0.6560  0.8504  1.4500
   24MOL   H78326589   2.811   6.003   7.637 -0.5363  0.7569 -0.3298
   24MOL   H78426590   2.720   5.852   7.618  0.8551  0.2062 -0.2302
   24MOL   H78526591   2.528   5.948   7.668  0.0682 -1.2319  0.0186
   24MOL   C78626592   2.583   6.147   0.001 -0.2747 -0.2605  0.6204
   24MOL   O78726593   2.675   6.221   0.013 -0.5613 -0.1221  0.1209
   24MOL   C78826594   2.440   6.195   0.024 -0.3658 -0.3673  0.4862
   24MOL   C78926595   2.389   6.287   7.604 -0.3854  0.4817  0.2769
   24MOL   C79026596   2.352   6.212   7.472 -0.0347 -0.0908 -0.0799
   24MOL   C79126597   2.336   6.287   7.339 -0.1266 -0.3177  0.2939
   24MOL   C79226598   2.192   6.340   7.330 -1.2836 -0.0189 -0.0204
   24MOL   C79326599   2.181   6.460   7.229 -0.3742 -0.4311 -0.7777
   24MOL   C79426600   2.052   6.538   7.255  0.4655  0.1978  0.5066
   24MOL   C79526601   1.922   6.449   7.249  0.0065  0.8594  0.6104
   24MOL   C79626602   1.803   6.527   7.286  1.1320  0.1100  0.2841
   24MOL   C79726603   1.661   6.462   7.287  0.0041  0.1653  0.0179
   24MOL   C79826604   1.544   6.561   7.270  0.2807 -0.0357 -0.0118
   24MOL   O79926605   1.488   6.566   7.164 -0.5885 -0.6169  0.0021
   24MOL   N80026606   1.515   6.636   7.374  0.1594 -0.0165 -0.0947
   24MOL   C80126607   1.412   6.742   7.382  0.6579  0.1280 -0.5594
   24MOL   C80226608   1.436   6.823   7.508 -0.8357 -0.3144 -0.3573
   24MOL   C80326609   1.301   6.896   7.539  0.1821 -0.1002 -1.2220
   24MOL   C80426610   1.316   6.969   7.675 -0.1258 -0.2164 -0.0803
   24MOL   C80526611   1.180   7.003   0.043  0.2719 -0.8077 -0.1908
   24MOL   C80626612   1.172   7.072   0.181  0.0399 -1.1129 -0.4177
   24MOL   N80726613   1.259   7.191   0.187 -0.9774  0.3621  0.6282
   24MOL   H80826614   2.440   6.253   0.116  1.0432 -0.9100  0.8323
   24MOL   H80926615   2.367   6.115   0.037  0.5404 -1.0715  1.2298
   24MOL   H81026616   2.308   6.346   7.647 -0.6444  0.9060 -0.7840
   24MOL   H81126617   2.462   6.364   7.581  0.8363  0.0329  2.5289
   24MOL   H81226618   2.261   6.154   7.489 -2.0133  1.9847 -3.2227
   24MOL   H81326619   2.432   6.140   7.455 -1.0164 -1.4627  0.9323
   24MOL   H81426620   2.408   6.368   7.327 -0.9777  0.2351 -1.2695
   24MOL   H81526621   2.346   6.214   7.258  1.7958 -0.2541  0.4440
   24MOL   H81626622   2.125   6.267   7.285 -1.2975  1.2524 -2.1428
   24MOL   H81726623   2.144   6.379   7.420 -0.0039  0.8244  0.3093
   24MOL   H81826624   2.262   6.532   7.236 -0.4540 -0.2579 -1.5840
   24MOL   H81926625   2.182   6.429   7.125 -0.7504 -0.9875 -0.6194
   24MOL   H82026626   2.060   6.573   7.358  2.6962  0.7529  0.1581
   24MOL   H82126627   2.052   6.625   7.190 -0.8335 -1.4575 -1.7802
   24MOL   H82226628   1.915   6.400   7.152  0.2625  0.8480  0.5982
   24MOL   H82326629   1.921   6.366   7.319  1.3843 -1.7536 -2.3505
   24MOL   H82426630   1.796   6.610   7.216 -0.5830 -0.0423  0.2519
   24MOL   H82526631   1.821   6.558   7.388  1.5876  0.0386  0.2250
   24MOL   H82626632   1.640   6.392   7.205 -1.2862  1.6760 -0.9612
   24MOL   H82726633   1.648   6.402   7.377  0.6833 -1.3548 -0.8807
   24MOL   H82826634   1.554   6.612   7.464  1.9980 -0.6421 -1.0346
   24MOL   H82926635   1.314   6.694   7.394  0.3887  0.4262 -1.5203
   24MOL   H83026636   1.412   6.795   7.287 -1.9527  3.4550  1.1735
   24MOL   H83126637   1.509   6.900   7.484 -1.7060 -0.1309 -2.5196
   24MOL   H83226638   1.476   6.769   7.594  1.8757  1.0692 -0.7006
   24MOL   H83326639   1.282   6.962   7.454 -0.3819  1.2317 -0.0863
   24MOL   H83426640   1.218   6.825   7.537 -0.0768  0.2290 -2.8891
   24MOL   H83526641   1.370   7.063   7.660  1.7652 -1.3198 -0.3464
   24MOL   H83626642   1.369   6.900   0.050  1.7884 -0.1466 -1.4913
   24MOL   H83726643   1.112   6.917   0.036 -0.7578 -0.0508  0.3878
   24MOL   H83826644   1.132   7.073   7.666  1.3324  2.0416  1.8840
   24MOL   H83926645   1.213   6.999   0.251  0.6702 -0.5973 -0.2558
   24MOL   H84026646   1.068   7.098   0.203 -0.0608 -1.6321 -0.2702
   24MOL   H84126647   1.354   7.169   0.214 -0.5735  1.5457  0.1954
   24MOL   C84226648   1.222   7.314   0.156 -0.4371 -0.2536 -0.4158
   24MOL   O84326649   1.106   7.338   0.120 -0.3294 -0.7801 -0.1319
   24MOL   C84426650   1.329   7.423   0.168 -0.1407 -0.2979 -0.0902
   24MOL   C84526651   1.289   7.534   0.270 -0.3665  0.6173  0.0875
   24MOL   C84626652   1.297   7.486   0.419 -0.1210  0.1721 -0.4203
   24MOL   C84726653   1.445   7.459   0.468 -0.0092  0.5589  0.6204
   24MOL   C84826654   1.462   7.404   0.614 -0.5868  0.1947  0.5375
   24MOL   C84926655   1.425   7.255   0.641  0.0973 -0.5037 -0.5567
   24MOL   C85026656   1.519   7.146   0.595  0.5530 -0.1719  0.2169
   24MOL   C85126657   1.464   7.047   0.490 -0.3721  0.3825 -0.1452
   24MOL   C85226658   1.578   6.976   0.408 -0.3332 -0.4151 -0.0816
   24MOL   C85326659   1.539   6.864   0.312 -0.7129 -0.2473 -0.0180
   24MOL   C85426660   1.457   6.749   0.364  0.0846  0.1010  0.2562
   24MOL   O85526661   1.340   6.726   0.317  0.7486 -0.0597 -0.0373
   24MOL   N85626662   1.520   6.689   0.465 -0.3845 -0.0915 -0.4315
   24MOL   C85726663   1.473   6.577   0.548 -0.0927  0.2583 -0.0263
   24MOL   C85826664   1.356   6.617   0.643 -0.3163 -0.5229  0.0983
   24MOL   C85926665   1.215   6.604   0.594  0.1385  0.1728 -0.2721
   24MOL   C86026666   1.147   6.737   0.587 -0.6256 -0.4543  0.7274
   24MOL   C86126667   1.004   6.741   0.522 -0.3646  0.3589 -0.0688
   24MOL   C86226668   0.966   6.881   0.496 -0.1274 -0.0841  0.3585
   24MOL   N86326669   0.825   6.894   0.453 -0.4192  0.0674 -0.0932
   24MOL   H86426670   1.337   7.469   0.070 -1.5052 -1.8253 -0.9513
   24MOL   H86526671   1.429   7.387   0.192 -0.1376 -0.0400  0.2919
   24MOL   H86626672   1.183   7.553   0.253 -0.5886  0.8917  1.7142
   24MOL   H86726673   1.338   7.629   0.248 -0.3850  0.8066  0.8425
   24MOL   H86826674   1.250   7.554   0.491 -1.5364  0.5005 -1.6241
   24MOL   H86926675   1.248   7.389   0.429 -0.6383  0.5452  0.6939
   24MOL   H87026676   1.489   7.559   0.472  0.2350  0.4342  0.9590
   24MOL   H87126677   1.508   7.398   0.404 -0.0059 -2.1056  3.0733
   24MOL   H87226678   1.558   7.422   0.664 -0.4188  0.7595  0.0268
   24MOL   H87326679   1.395   7.471   0.668  0.0091 -0.5885  2.2992
   24MOL   H87426680   1.416   7.256   0.749  0.4509  3.4354 -0.4635
   24MOL   H87526681   1.321   7.238   0.611 -0.9468  0.5809  2.2687
   24MOL   H87626682   1.610   7.193   0.557  0.0414  0.2353 -0.5230
   24MOL   H87726683   1.560   7.082   0.673  2.8309 -0.6054 -1.2853
   24MOL   H87826684   1.397   7.099   0.421  0.5100  0.2816 -1.1016
   24MOL   H87926685   1.403   6.968   0.535  1.9872  1.3670  5.0526
   24MOL   H88026686   1.648   6.935   0.481 -1.2925  0.7335  1.5252
   24MOL   H88126687   1.630   7.052   0.349  0.5035 -0.4080  0.6419
   24MOL   H88226688   1.473   6.923   0.248 -1.7384  0.9925  2.1077
   24MOL   H88326689   1.624   6.833   0.251 -1.0530  2.0412 -1.7548
   24MOL   H88426690   1.608   6.734   0.488 -0.6806  0.6182 -0.6602
   24MOL   H88526691   1.543   6.540   0.622  2.4384  0.2064 -2.3584
   24MOL   H88626692   1.434   6.493   0.491 -2.0311  2.1146 -1.5307
   24MOL   H88726693   1.378   6.720   0.670  0.1467 -0.4285 -0.6513
   24MOL   H88826694   1.347   6.557   0.734  1.6790  0.1394  0.7647
   24MOL   H88926695   1.150   6.529   0.638  1.0906 -0.4502  0.0881
   24MOL   H89026696   1.226   6.555   0.498 -1.4145  2.4776 -1.6763
   24MOL   H89126697   1.212   6.808   0.536 -0.5716 -0.1965  1.1593
   24MOL   H89226698   1.140   6.777   0.688  0.1304 -0.7240  0.8875
   24MOL   H89326699   1.000   6.684   0.429  2.3069 -0.4748  0.2825
   24MOL   H89426700   0.933   6.691   0.587 -0.0855  0.6644  0.4769
   24MOL   H89526701   0.968   6.941   0.587  1.8464 -0.4140  0.5601
   24MOL   H89626702   1.037   6.921   0.423  1.0256 -2.9068 -0.1259
   24MOL   H89726703   0.760   6.932   0.521 -0.8343  0.5612 -0.7550
   24MOL   C89826704   0.780   6.899   0.329 -0.5542 -0.8678  0.5365
   24MOL   O89926705   0.854   6.887   0.230 -0.4920  0.3557 -0.1071
   24MOL   C90026706   0.630   6.902   0.315 -0.7514 -0.1251  0.1799
   24MOL   C90126707   0.581   6.852   0.182 -0.3687  0.2132 -0.0303
   24MOL   C90226708   0.554   6.705   0.148 -0.2364 -0.1749 -0.0973
   24MOL   C90326709   0.471   6.680   0.022 -0.3603  0.1002 -0.2154
   24MOL   C90426710   0.316   6.701   0.031 -0.8300 -0.3797 -0.2271
   24MOL   C90526711   0.247   6.651   7.595 -0.3020 -0.5639  0.8032
   24MOL   C90626712   0.305   6.702   7.463 -0.4085 -0.1280 -0.3871
   24MOL   C90726713   0.278   6.850   7.439 -0.4265 -0.4366 -0.1661
   24MOL   C90826714   0.148   6.875   7.370 -0.5411  0.8130  0.5047
   24MOL   C90926715   0.107   7.020   7.365  0.7015  0.1545 -0.1076
   24MOL   C91026716   0.161   7.095   7.247 -0.3754 -0.8334 -0.1689
   24MOL   O91126717   0.254   7.043   7.179  0.2755  0.5370  0.2494
   24MOL   N91226718   0.114   7.217   7.211 -0.2446  0.3219  0.0115
   24MOL   C91326719   0.156   7.311   7.109 -0.0264 -1.0343 -0.3403
   24MOL   C91426720   0.039   7.416   7.083 -0.4138 -0.4168  0.0537
   24MOL   C91526721   0.031   7.524   7.192  0.3726  0.2030  0.2318
   24MOL   C91626722   7.617   7.635   7.179  0.0290 -0.6386 -0.3256
   24MOL   C91726723   7.469   7.595   7.222 -0.3989 -0.2819 -0.1146
   24MOL   C91826724   7.382   7.542   7.110  0.5263 -0.0775 -0.0417
   24MOL   N91926725   7.250   7.538   7.174  0.5922  0.3532  0.1893
   24MOL   H92026726   0.580   6.851   0.397 -0.2393  0.6659  0.9998
   24MOL   H92126727   0.602   7.008   0.318  0.5232  0.1957  3.4816
   24MOL   H92226728   0.631   6.902   0.099  1.9921  0.4365  1.4915
   24MOL   H92326729   0.481   6.895   0.170 -0.0023  1.1149  0.0860
   24MOL   H92426730   0.514   6.657   0.237  0.8345 -0.3265  0.3094
   24MOL   H92526731   0.654   6.666   0.126  0.1812  1.7660 -1.8177
   24MOL   H92626732   0.521   6.739   7.637  2.2218  2.2370  2.9645
   24MOL   H92726733   0.479   6.579   7.675 -0.7906 -0.4789  1.1904
   24MOL   H92826734   0.289   6.806   0.040 -0.4860 -0.2577 -0.5942
   24MOL   H92926735   0.269   6.655   0.118 -0.5041 -0.5054 -0.1161
   24MOL   H93026736   0.252   6.542   7.593 -0.8826 -0.5738 -1.4153
   24MOL   H93126737   0.139   6.664   7.590 -0.1673  0.3891  0.2180
   24MOL   H93226738   0.259   6.645   7.382 -0.6399 -0.0021 -0.3426
   24MOL   H93326739   0.413   6.692   7.458 -0.1969  1.5010  0.5810
   24MOL   H93426740   0.360   6.906   7.395 -0.6460  0.3273  0.3873
   24MOL   H93526741   0.276   6.897   7.537 -2.0159  2.3453 -1.4740
   24MOL   H93626742   0.152   6.829   7.271 -0.9272 -1.3415  1.4384
   24MOL   H93726743   0.069   6.819   7.421  0.6013  0.9432  2.4947
   24MOL   H93826744   7.690   7.031   7.361  0.2718 -3.5091 -0.2346
   24MOL   H93926745   0.141   7.071   7.456 -0.2694  0.0089  0.3483
   24MOL   H94026746   0.047   7.252   7.278 -0.9625 -0.8652 -0.0732
   24MOL   H94126747   0.174   7.257   7.016 -0.1494 -2.5628  0.5029
   24MOL   H94226748   0.252   7.354   7.139 -0.6701 -0.8220  1.4790
   24MOL   H94326749   0.064   7.465   6.990  1.1375 -0.7883  0.2533
   24MOL   H94426750   7.644   7.358   7.053 -1.0546  0.8019 -0.4596
   24MOL   H94526751   7.688   7.476   7.283 -1.1073 -0.3786 -0.6259
   24MOL   H94626752   0.128   7.571   7.212 -0.0347  1.8772 -1.5716
   24MOL   H94726753   7.619   7.665   7.074 -0.2058  0.3530 -0.0536
   24MOL   H94826754   7.644   0.024   7.247  0.9848  0.7392 -2.2831
   24MOL   H94926755   7.468   7.530   7.310 -1.5265  2.2719  1.8559
   24MOL   H95026756   7.424   7.687   7.260 -0.2445 -0.3860  0.3219
   24MOL   H95126757   7.412   7.440   7.087  0.0570 -0.7273  2.0989
   24MOL   H95226758   7.398   7.613   7.029  3.4265  0.7708  1.2016
   24MOL   H95326759   7.225   7.586   7.260 -0.0978  0.6767 -0.1917
   24MOL   C95426760   7.137   7.516   7.108 -0.2957  0.4808  0.2062
   24MOL   O95526761   7.125   7.478   6.990 -0.1331  0.4454 -0.1037
   24MOL   C95626762   7.019   7.526   7.204 -0.4931  0.1020  0.3234
   24MOL   C95726763   6.957   7.663   7.207  0.4509 -0.2107 -0.0523
   24MOL   C95826764   6.813   7.659   7.265 -0.4233 -0.0923 -0.2695
   24MOL   C95926765   6.713   7.596   7.175 -0.4402  0.5761  0.1717
   24MOL   C96026766   6.702   7.637   7.029 -0.8765 -0.2892  0.8876
   24MOL   C96126767   6.619   7.544   6.940  0.6487 -0.2171 -0.0786
   24MOL   C96226768   6.704   7.428   6.875  0.5351  0.7832  0.0808
   24MOL   C96326769   6.796   7.490   6.765  0.0749  0.2102  0.2115
   24MOL   C96426770   6.908   7.401   6.723 -0.5645  0.8334 -0.5785
   24MOL   C96526771   6.983   7.443   6.595 -0.4612  0.5642  0.0120
   24MOL   C96626772   7.085   7.340   6.544 -0.4144  1.0764 -0.9400
   24MOL   O96726773   7.083   7.294   6.434  0.4876  0.0133  0.2044
   24MOL   N96826774   7.177   7.301   6.634  0.0178  0.0226 -0.8484
   24MOL   C96926775   7.284   7.202   6.606 -0.4366 -0.4304  0.5709
   24MOL   C97026776   7.250   7.063   6.669 -0.1066  0.1407 -0.7536
   24MOL   C97126777   7.340   6.963   6.607 -0.7945 -0.1543  0.5107
   24MOL   C97226778   7.332   6.816   6.658  0.6162 -0.1969  0.0037
   24MOL   C97326779   7.428   6.730   6.575  0.2116  0.5455  1.1813
   24MOL   C97426780   7.394   6.574   6.576 -0.8680 -0.0387 -0.1110
   24MOL   N97526781   7.259   6.531   6.534 -0.0515 -0.0023 -0.6949
   24MOL   H97626782   6.950   7.449   7.170  0.4537 -0.6674  0.1218
   24MOL   H97726783   7.042   7.494   7.305 -0.3144  2.9929  1.2688
   24MOL   H97826784   6.947   0.018   7.108  1.6257  1.9305  0.8245
   24MOL   H97926785   7.019   0.039   7.264 -1.0815  0.4684  0.8338
   24MOL   H98026786   6.818   7.610   7.363 -1.2246  1.1519  0.4121
   24MOL   H98126787   6.779   0.069   7.284 -2.7256 -0.8723 -0.0439
   24MOL   H98226788   6.730   7.488   7.178 -1.9173  0.3487  3.6483
   24MOL   H98326789   6.614   7.598   7.221  0.2770  0.9604  1.7455
   24MOL   H98426790   6.641   0.035   7.042 -0.5020  0.1756 -0.4295
   24MOL   H98526791   6.794   7.673   6.982 -1.2858 -1.7767 -1.1149
   24MOL   H98626792   6.544   7.489   6.996  0.5441  0.9850  0.9740
   24MOL   H98726793   6.579   7.600   6.855 -0.1768 -1.7252 -0.7144
   24MOL   H98826794   6.773   7.393   6.952  0.2007 -1.8130 -0.7594
   24MOL   H98926795   6.640   7.345   6.845  0.3838 -0.0186  2.5173
   24MOL   H99026796   6.733   7.515   6.679  0.3353  2.2389  0.5902
   24MOL   H99126797   6.841   7.582   6.803 -1.1623  0.1410  1.9080
   24MOL   H99226798   6.861   7.306   6.699 -0.4402  0.6324 -0.0293
   24MOL   H99326799   6.973   7.387   6.809  0.2752  1.2584 -1.1210
   24MOL   H99426800   6.908   7.454   6.516 -0.2011 -1.1590 -0.4955
   24MOL   H99526801   7.026   7.541   6.617 -1.2981  0.4330  2.3366
   24MOL   H99626802   7.179   7.344   6.725  1.4006  0.2061 -0.9535
   24MOL   H99726803   7.383   7.237   6.636 -0.1290  1.2462 -2.2701
   24MOL   H99826804   7.278   7.192   6.498 -0.6783 -1.1222  0.6432
   24MOL   H99926805   7.151   7.036   6.633  0.1036 -1.6724  0.0025
   24MOL     H126806   7.249   7.072   6.777 -0.8497 -0.5192 -0.7032
   24MOL     H226807   7.445   6.985   6.630 -0.4906 -1.0715  0.0353
   24MOL     H326808   7.325   6.952   6.499 -2.1590  1.4690  0.5161
   24MOL     H426809   7.362   6.811   6.762 -0.1519 -0.8646  0.1988
   24MOL     H526810   7.229   6.781   6.651 -0.0535  1.2499  2.2132
   24MOL     H626811   7.529   6.744   6.613  0.5149 -0.5778  0.8100
   24MOL     H726812   7.431   6.758   6.470  0.6452 -1.5004  0.6377
   24MOL     H826813   7.479   6.521   6.533 -0.4667  1.7407 -1.5346
   24MOL     H926814   7.401   6.546   6.681 -0.5931 -3.3064 -0.9275
   24MOL    H1026815   7.212   6.479   6.606  1.3889  0.2845  0.4708
   24MOL    C1126816   7.205   6.571   6.416 -0.2600  0.8347 -0.5214
   24MOL    O1226817   7.251   6.630   6.323  0.3567  0.0584 -0.6963
   24MOL    C1326818   7.054   6.521   6.417 -0.4022 -0.1918  0.0908
   24MOL    C1426819   6.947   6.626   6.385  0.0540 -0.7485 -0.3909
   24MOL    C1526820   6.953   6.754   6.465 -0.2708  0.4533 -0.6657
   24MOL    C1626821   6.842   6.849   6.424  0.8390  0.3011 -0.2123
   24MOL    C1726822   6.850   6.984   6.505 -0.5165  0.4277  0.2676
   24MOL    C1826823   6.723   7.064   6.475 -0.1597  0.0498 -0.1194
   24MOL    C1926824   6.736   7.206   6.423 -0.7047  0.5008  0.4787
   24MOL    C2026825   6.638   7.266   6.325 -0.3653 -0.0977 -0.2238
   24MOL    C2126826   6.660   7.413   6.305  0.2947 -0.4682  0.5857
   24MOL    C2226827   6.580   7.470   6.188  0.1961  0.1028  0.2809
   24MOL    C2326828   6.644   7.580   6.094 -0.1835  0.6022 -0.5975
   24MOL    O2426829   6.753   7.636   6.125 -0.1689  0.3650 -0.1963
   24MOL    N2526830   6.570   7.616   5.990 -0.4834 -0.4541 -0.3430
   24MOL    C2626831   6.435   7.573   5.956 -0.5874  0.4046  0.5780
   24MOL    C2726832   6.431   7.538   5.814  0.1410 -0.3918 -0.3047
   24MOL    C2826833   6.288   7.531   5.759 -0.1616  0.3212 -0.6619
   24MOL    C2926834   6.293   7.478   5.610  0.0339  0.3756 -0.0635
   24MOL    C3026835   6.148   7.423   5.567  0.0997 -0.0421  0.0481
   24MOL    C3126836   6.038   7.527   5.555  0.1409 -0.0865 -0.1539
   24MOL    N3226837   5.905   7.456   5.527  0.1087 -0.1607  0.4479
   24MOL    H3326838   7.030   6.459   6.504 -2.3608  0.4767  0.0383
   24MOL    H3426839   7.053   6.443   6.341  0.7348  1.2554 -1.4139
   24MOL    H3526840   6.855   6.571   6.402 -0.1964  0.3984  2.2637
   24MOL    H3626841   6.966   6.656   6.282 -0.7085 -0.1209 -0.3509
   24MOL    H3726842   7.039   6.811   6.432 -0.3710  0.0736 -1.5905
   24MOL    H3826843   6.965   6.740   6.573  2.1208  1.2950 -0.7983
   24MOL    H3926844   6.840   6.863   6.315  1.1180  0.0770 -0.2474
   24MOL    H4026845   6.740   6.814   6.444  0.7449  0.0853 -1.0142
   24MOL    H4126846   6.853   6.971   6.614 -3.5281  3.5691  0.8112
   24MOL    H4226847   6.945   7.032   6.484  0.2338  0.2505  2.9865
   24MOL    H4326848   6.691   7.011   6.385  1.0634  0.2678 -0.6895
   24MOL    H4426849   6.644   7.055   6.549 -1.1058 -0.5231 -1.1818
   24MOL    H4526850   6.732   7.275   6.507 -1.5917  1.3020 -0.2087
   24MOL    H4626851   6.830   7.197   6.369  0.2354  0.9259  1.9907
   24MOL    H4726852   6.652   7.229   6.224 -1.9124  2.3234 -1.3694
   24MOL    H4826853   6.531   7.255   6.344 -0.3725  3.3127  2.3085
   24MOL    H4926854   6.766   7.426   6.284  0.6876 -2.4495  1.1604
   24MOL    H5026855   6.655   7.464   6.401  1.6955  1.3647 -0.2901
   24MOL    H5126856   6.554   7.387   6.122 -0.1965  0.9862 -0.6971
   24MOL    H5226857   6.482   7.504   6.222 -0.5890 -1.7846 -0.0185
   24MOL    H5326858   6.612   0.007   5.950  1.4479 -0.5252  1.4515
   24MOL    H5426859   6.371   7.660   5.969 -1.1857 -0.1656  1.5568
   24MOL    H5526860   6.386   7.495   6.014 -2.5082 -0.0566 -1.5494
   24MOL    H5626861   6.473   7.438   5.817 -3.0857 -1.7905 -0.2605
   24MOL    H5726862   6.483   7.609   5.749  0.8835  0.8586  1.5867
   24MOL    H5826863   6.235   7.626   5.758  0.4465  0.6626 -0.5632
   24MOL    H5926864   6.235   7.460   5.822 -2.0983  3.6812  1.6020
   24MOL    H6026865   6.370   7.403   5.596  0.8535  1.0897  0.5007
   24MOL    H6126866   6.308   7.562   5.542  0.6943  0.7492  0.5345
   24MOL    H6226867   6.123   7.334   5.625 -2.2972  0.1773 -0.6134
   24MOL    H6326868   6.165   7.387   5.466  1.0294 -2.1003  0.9055
   24MOL    H6426869   6.070   7.598   5.479  0.2761  0.4523  0.3988
   24MOL    H6526870   6.024   7.585   5.647  0.9755 -1.2109  0.6942
   24MOL    H6626871   5.894   7.414   5.436 -0.2321  1.7036 -0.3862
   24MOL    C6726872   5.806   7.453   5.615  0.3927  0.3355 -0.1952
   24MOL    O6826873   5.813   7.494   5.729  0.2241 -0.1211 -0.3357
   24MOL    C6926874   5.673   7.395   5.567  0.0717 -0.1574 -0.3948
   24MOL    C7026875   5.614   7.305   5.683  0.1821  0.0304 -0.6613
   24MOL    C7126876   5.477   7.228   5.656 -0.2629  0.0040  0.4457
   24MOL    C7226877   5.411   7.165   5.784 -0.0765 -0.0224 -1.2565
   24MOL    C7326878   5.281   7.082   5.760  0.5222  0.6713 -0.5513
   24MOL    C7426879   5.205   7.054   5.895 -0.0994 -0.3128  0.3571
   24MOL    C7526880   5.122   7.178   5.938 -0.0668 -0.0209  0.2288
   24MOL    C7626881   5.058   7.161   6.073 -0.4544  0.6464 -0.5712
   24MOL    C7726882   4.922   7.228   6.086  0.3200 -0.2217 -0.0859
   24MOL    C7826883   4.840   7.167   6.195  0.2164 -0.1855  0.0210
   24MOL    C7926884   4.819   7.017   6.179  0.3458 -0.4917  0.2257
   24MOL    O8026885   4.744   6.975   6.089 -0.2654 -0.5493 -0.1490
   24MOL    N8126886   4.869   6.943   6.275  0.7441 -0.4878  0.3388
   24MOL    C8226887   4.860   6.799   6.296  0.6131 -0.0608 -0.5809
   24MOL    C8326888   4.952   6.733   6.210 -0.0557 -0.4994  0.0962
   24MOL    C8426889   4.979   6.582   6.234  0.3287 -0.3780  0.0004
   24MOL    C8526890   5.051   6.515   6.118  0.0594 -0.2329 -0.5609
   24MOL    C8626891   5.091   6.366   6.139  1.1294  0.6946 -0.4494
   24MOL    C8726892   5.177   6.313   6.028  0.1621 -0.3338  0.1203
   24MOL    N8826893   5.118   6.211   5.938 -0.1798  0.5142  0.0948
   24MOL    H8926894   5.673   7.338   5.475  1.7841 -4.6971  2.2474
   24MOL    H9026895   5.603   7.475   5.544  0.1547  0.4671  1.4251
   24MOL    H9126896   5.687   7.240   5.731  0.8381 -0.2777 -2.0330
   24MOL    H9226897   5.590   7.371   5.766 -0.4090 -0.8431 -0.1317
   24MOL    H9326898   5.409   7.292   5.600  1.4673 -0.1182 -1.8683
   24MOL    H9426899   5.485   7.146   5.585  0.4382 -0.5163  1.1188
   24MOL    H9526900   5.491   7.117   5.841  0.4086  1.1883 -0.9023
   24MOL    H9626901   5.373   7.242   5.850  1.1980 -0.2879 -0.1764
   24MOL    H9726902   5.215   7.130   5.687 -1.9824  0.8037  1.7510
   24MOL    H9826903   5.311   6.987   5.715 -1.9300 -0.4320  0.0807
   24MOL    H9926904   5.146   6.963   5.888  2.5728 -2.0706 -0.1393
   24MOL   H10026905   5.283   7.028   5.967 -0.3573 -3.5802 -0.4886
   24MOL   H10126906   5.048   7.191   5.859 -0.7611 -0.5075  0.7893
   24MOL   H10226907   5.179   7.270   5.950 -1.7669  1.0113  0.5282
   24MOL   H10326908   5.055   7.052   6.080  1.8580  0.4280 -2.3997
   24MOL   H10426909   5.117   7.206   6.153 -1.8607  1.4367  0.0505
   24MOL   H10526910   4.859   7.222   5.997 -1.4397 -2.6984  1.2735
   24MOL   H10626911   4.937   7.336   6.083  0.1634 -0.2232 -1.0437
   24MOL   H10726912   4.884   7.201   6.289  0.0320 -0.7270  0.3028
   24MOL   H10826913   4.739   7.209   6.200  0.7069  1.1062 -0.6007
   24MOL   H10926914   4.908   6.988   6.357 -0.0842 -0.6716  0.8393
   24MOL   H11026915   4.759   6.757   6.294  0.7925 -0.4908 -0.6662
   24MOL   H11126916   4.893   6.788   6.399  1.2397 -0.1025 -0.7843
   24MOL   H11226917   5.044   6.791   6.219 -1.4170  1.6576  0.5107
   24MOL   H11326918   4.914   6.744   6.108 -0.7515 -1.5181  0.2386
   24MOL   H11426919   4.884   6.534   6.258  0.3447 -0.2046  0.4128
   24MOL   H11526920   5.032   6.575   6.328 -1.4942 -0.5074  1.0549
   24MOL   H11626921   4.995   6.527   6.026  0.8824  2.0264 -0.7970
   24MOL   H11726922   5.143   6.572   6.102  0.3310  0.3284  2.5495
   24MOL   H11826923   5.136   6.358   6.238 -0.0814  0.0465  0.0620
   24MOL   H11926924   5.006   6.298   6.149  1.5341  0.1284 -0.8521
   24MOL   H12026925   5.202   6.385   5.950 -2.1374  0.5475  0.1633
   24MOL   H12126926   5.270   6.284   6.075 -0.3690  0.3377  1.6010
   24MOL   H12226927   5.044   6.240   5.876 -0.4349  1.3753  0.7976
   24MOL   H12326928   5.185   6.178   5.870  0.4579 -1.6554  1.7029
   25MOL     C126929   0.183   4.741   0.710  0.4276  0.2234 -0.4129
   25MOL     O226930   0.064   4.777   0.716 -0.3366  0.2729  0.1301
   25MOL     C326931   0.279   4.725   0.829  0.0790  0.2241  0.2699
   25MOL     C426932   0.333   4.582   0.855  0.3366 -0.4572 -0.4929
   25MOL     C526933   0.440   4.537   0.753  0.0018  0.3718 -0.2618
   25MOL     C626934   0.489   4.387   0.783 -0.3530 -0.2609  0.3052
   25MOL     C726935   0.618   4.362   0.706 -0.1690 -0.8590  0.4488
   25MOL     C826936   0.681   4.227   0.724 -0.0617 -0.4723  0.3225
   25MOL     C926937   0.806   4.202   0.637 -0.3112 -0.2066 -0.6435
   25MOL    C1026938   0.925   4.301   0.647 -0.7121 -0.2834  0.2077
   25MOL    C1126939   1.048   4.249   0.572  0.0464 -0.6524 -0.3903
   25MOL    C1226940   1.153   4.359   0.555  0.1780 -0.3432  0.2178
   25MOL    C1326941   1.273   4.314   0.473  0.5448  0.7802 -0.3566
   25MOL    O1426942   1.260   4.224   0.381  0.3101 -0.2167 -0.4217
   25MOL    N1526943   1.394   4.370   0.498  0.2173  0.3765  0.6379
   25MOL    C1626944   1.516   4.339   0.428  0.5819  0.0082 -0.0653
   25MOL    C1726945   1.543   4.451   0.328  0.5287 -0.5682 -0.1878
   25MOL    C1826946   1.684   4.444   0.275  0.3532  0.6591  0.1294
   25MOL    C1926947   1.712   4.535   0.151 -0.3249  0.3848 -0.6527
   25MOL    C2026948   1.663   4.676   0.166 -0.0870 -0.8240  0.1381
   25MOL    C2126949   1.730   4.774   0.066  0.8262  0.5192  0.5294
   25MOL    N2226950   1.759   4.898   0.138 -0.2257  0.6955  0.3571
   25MOL    H2326951   0.227   4.768   0.915 -0.7082 -2.3041  1.0808
   25MOL    H2426952   0.361   4.793   0.802 -0.0652  0.0918 -0.5118
   25MOL    H2526953   0.253   4.508   0.848  0.8678 -1.0665 -0.2182
   25MOL    H2626954   0.375   4.585   0.955 -0.5990 -0.7896 -0.0845
   25MOL    H2726955   0.521   4.610   0.748  0.9721 -0.6562  0.2663
   25MOL    H2826956   0.385   4.536   0.659 -1.1672  1.6036  0.3887
   25MOL    H2926957   0.505   4.391   0.891  0.6997  0.5319  0.1284
   25MOL    H3026958   0.412   4.312   0.765  1.8075 -2.1085 -1.5300
   25MOL    H3126959   0.693   4.438   0.729  0.5945 -1.4754  0.0075
   25MOL    H3226960   0.594   4.373   0.600  1.3106  0.3131  0.2237
   25MOL    H3326961   0.695   4.206   0.829  0.4371  1.8477  0.7444
   25MOL    H3426962   0.599   4.161   0.693 -0.8577  2.1029 -3.4375
   25MOL    H3526963   0.842   4.102   0.660 -0.6377  0.0628  1.1270
   25MOL    H3626964   0.783   4.202   0.531  1.1347 -0.0279 -0.9721
   25MOL    H3726965   0.891   4.401   0.622  0.7234 -0.0379 -0.7779
   25MOL    H3826966   0.964   4.315   0.748  0.2492 -0.7791 -0.0882
   25MOL    H3926967   1.009   4.206   0.480 -2.6816 -1.0677  0.9099
   25MOL    H4026968   1.096   4.163   0.619  0.3062  0.6126  1.7327
   25MOL    H4126969   1.110   4.450   0.513 -0.6345 -0.7927  0.0557
   25MOL    H4226970   1.178   4.383   0.658 -0.4441  1.1133  0.0343
   25MOL    H4326971   1.401   4.421   0.585  0.1438 -0.2553  1.0119
   25MOL    H4426972   1.511   4.242   0.378  2.1499 -0.7651  1.2421
   25MOL    H4526973   1.600   4.319   0.495  0.1097 -1.3649  0.1122
   25MOL    H4626974   1.509   4.543   0.375 -2.5191 -2.2901  1.1263
   25MOL    H4726975   1.475   4.435   0.244  1.6290 -1.3832 -0.9404
   25MOL    H4826976   1.748   4.469   0.359  2.0725 -1.6830 -0.4325
   25MOL    H4926977   1.725   4.348   0.243  1.0230  1.0630 -0.2047
   25MOL    H5026978   1.654   4.485   0.073 -1.2614  0.0958  0.2194
   25MOL    H5126979   1.816   4.531   0.119 -0.5945  0.6459 -1.5785
   25MOL    H5226980   1.555   4.668   0.149  0.2446  0.5471 -2.8896
   25MOL    H5326981   1.677   4.697   0.272  0.5537 -1.2607  0.1378
   25MOL    H5426982   1.818   4.729   0.021  0.6935 -0.4863  1.2672
   25MOL    H5526983   1.650   4.783   7.684  0.1628 -1.9158  0.9278
   25MOL    H5626984   1.722   4.922   0.229  0.9135  1.9576  0.4924
   25MOL    H5726985   0.224   4.711   0.614  0.0894  0.7737 -0.7304
   25MOL    C5826986   1.795   4.998   0.064  0.4009 -0.8776  0.2004
   25MOL    O5926987   1.813   4.988   7.631  0.0864 -0.8816  0.0177
   25MOL    C6026988   1.811   5.138   0.134 -0.1333 -0.1041  0.0243
   25MOL    C6126989   1.731   5.250   0.051  0.3058  0.2007 -0.3478
   25MOL    C6226990   1.578   5.252   0.078  0.6010 -1.0212  0.2391
   25MOL    C6326991   1.524   5.380   0.158 -0.8945  0.2456 -0.0652
   25MOL    C6426992   1.375   5.350   0.203 -0.0012 -0.4371 -0.4939
   25MOL    C6526993   1.317   5.482   0.268 -0.1363 -0.4390 -0.0253
   25MOL    C6626994   1.170   5.461   0.332  0.5567 -0.1369  0.4003
   25MOL    C6726995   1.159   5.336   0.413 -0.1778  0.1007 -0.1770
   25MOL    C6826996   1.017   5.318   0.468  0.0970  0.1703  0.1672
   25MOL    C6926997   0.988   5.189   0.545 -0.2129 -0.1065 -0.0431
   25MOL    C7026998   1.091   5.140   0.650  0.6544  0.8353 -0.8693
   25MOL    O7126999   1.194   5.083   0.612  0.4077  0.2244  0.3379
   25MOL    N7227000   1.058   5.164   0.776 -1.2269 -0.7162 -0.0584
   25MOL    C7327001   1.136   5.109   0.888  0.2887  0.0058 -0.1280
   25MOL    C7427002   1.182   5.226   0.987  0.4781 -0.1389 -0.0504
   25MOL    C7527003   1.310   5.310   0.944 -1.2460 -0.3831  0.2555
   25MOL    C7627004   1.357   5.396   1.064  0.9361  0.2372  0.9281
   25MOL    C7727005   1.260   5.509   1.099  0.2157  0.0750  0.0928
   25MOL    C7827006   1.303   5.600   1.217  0.2297  0.5341  0.2394
   25MOL    N7927007   1.433   5.650   1.194  0.1503  0.0438 -0.7060
   25MOL    H8027008   1.916   5.166   0.126 -0.6189  1.5196 -0.8301
   25MOL    H8127009   1.780   5.139   0.238 -1.4902  0.7084 -0.3747
   25MOL    H8227010   1.781   5.345   0.072  0.3797  0.1818 -0.4322
   25MOL    H8327011   1.759   5.238   7.638 -0.4800  0.6005 -0.6020
   25MOL    H8427012   1.550   5.159   0.126  0.9156 -1.4839 -0.4764
   25MOL    H8527013   1.532   5.247   7.671 -0.1291 -0.6511  0.5552
   25MOL    H8627014   1.536   5.473   0.102 -1.1096 -0.3756 -1.1473
   25MOL    H8727015   1.579   5.399   0.250  0.6659  1.9040 -1.3050
   25MOL    H8827016   1.303   5.331   0.124  0.3555 -0.6614 -0.7690
   25MOL    H8927017   1.378   5.273   0.280  1.4022  0.7355  0.6515
   25MOL    H9027018   1.308   5.563   0.196 -0.3526 -1.5030 -1.1972
   25MOL    H9127019   1.387   5.529   0.338 -0.2017 -2.7529  1.6546
   25MOL    H9227020   1.096   5.445   0.254  0.4659 -0.2825  0.5165
   25MOL    H9327021   1.126   5.547   0.381  0.9060  0.2975 -0.0419
   25MOL    H9427022   1.185   5.252   0.347  0.9366  0.1638  0.1653
   25MOL    H9527023   1.232   5.335   0.494  0.5410 -2.1568 -0.8163
   25MOL    H9627024   0.938   5.329   0.394  0.2280  0.5571  0.0801
   25MOL    H9727025   1.008   5.400   0.539 -1.3147 -1.2318  1.6315
   25MOL    H9827026   0.889   5.173   0.588  0.1090  0.9489  1.1229
   25MOL    H9927027   0.989   5.112   0.468 -0.3712 -1.0609  0.9059
   25MOL   H10027028   0.979   5.225   0.795  0.6670  0.9908  2.7473
   25MOL   H10127029   1.223   5.058   0.847  0.4692  1.0874 -1.1301
   25MOL   H10227030   1.064   5.047   0.940 -0.4882  1.5880  0.7355
   25MOL   H10327031   1.103   5.300   0.997 -0.8874 -1.5861 -0.0228
   25MOL   H10427032   1.195   5.181   1.086 -3.3811 -2.8638 -0.6511
   25MOL   H10527033   1.291   5.366   0.853  0.4727  1.2972  0.8920
   25MOL   H10627034   1.396   5.243   0.931  0.0330  1.2118  0.3336
   25MOL   H10727035   1.384   5.322   1.140  1.4411 -0.2515  0.2848
   25MOL   H10827036   1.461   5.425   1.050  0.9642  0.1100  0.8663
   25MOL   H10927037   1.163   5.469   1.126 -1.2119  2.1480 -1.8231
   25MOL   H11027038   1.232   5.563   1.009 -0.0412 -2.3470 -1.3272
   25MOL   H11127039   1.302   5.543   1.310 -0.5025 -2.1231 -1.3432
   25MOL   H11227040   1.222   5.668   1.240  0.2192  0.5492  0.1578
   25MOL   H11327041   1.510   5.612   1.248 -1.4518 -1.7803  0.3807
   25MOL   C11427042   1.454   5.750   1.114 -0.0650 -0.3803  0.3935
   25MOL   O11527043   1.381   5.786   1.023  0.0684 -0.6002 -0.0196
   25MOL   C11627044   1.587   5.830   1.140  1.1891  0.6051  0.1480
   25MOL   C11727045   1.551   5.982   1.166  0.1570  0.6477 -0.7224
   25MOL   C11827046   1.489   6.060   1.044 -0.5760  0.4597 -0.4564
   25MOL   C11927047   1.472   6.212   1.074  0.5730  0.2403  0.2072
   25MOL   C12027048   1.391   6.284   0.961  0.0203  0.0333  0.1955
   25MOL   C12127049   1.250   6.232   0.942  0.7845 -0.4990 -0.2292
   25MOL   C12227050   1.179   6.300   0.825  0.1129 -0.0629  0.9899
   25MOL   C12327051   1.028   6.260   0.817  0.2763 -0.6950 -0.0496
   25MOL   C12427052   0.970   6.261   0.672  0.4134 -0.3983  0.6575
   25MOL   C12527053   1.014   6.164   0.563  0.1383 -0.4723  0.2111
   25MOL   C12627054   1.139   6.197   0.483  0.4250  0.5224  0.3409
   25MOL   O12727055   1.163   6.310   0.448 -0.3049  0.1380  0.2223
   25MOL   N12827056   1.228   6.100   0.459 -0.2220 -0.4445 -0.6094
   25MOL   C12927057   1.367   6.123   0.422 -1.2070  0.4211  0.3087
   25MOL   C13027058   1.461   6.198   0.528 -0.6702 -0.1470 -0.3613
   25MOL   C13127059   1.607   6.218   0.486  0.4336 -0.5510 -0.3852
   25MOL   C13227060   1.696   6.230   0.603 -0.6839  0.2059  0.5994
   25MOL   C13327061   1.840   6.256   0.581 -0.0410 -0.3209 -0.2259
   25MOL   C13427062   1.883   6.396   0.531 -0.2228 -0.6286  0.0316
   25MOL   N13527063   1.813   6.503   0.601 -0.3468 -0.0289 -0.5771
   25MOL   H13627064   1.642   5.785   1.223 -1.4656 -0.0233  1.6358
   25MOL   H13727065   1.654   5.818   1.055 -0.9732 -1.7200 -1.3100
   25MOL   H13827066   1.631   6.040   1.211 -0.6284 -0.0443  1.6592
   25MOL   H13927067   1.475   5.968   1.244 -0.2318 -1.7410 -1.4862
   25MOL   H14027068   1.564   6.045   0.967 -2.0134 -2.2673 -1.4016
   25MOL   H14127069   1.391   6.019   1.016 -1.6206  1.7741  1.1853
   25MOL   H14227070   1.414   6.228   1.165 -1.8862  1.3291 -1.4867
   25MOL   H14327071   1.570   6.258   1.089  2.2657 -2.8328 -0.9768
   25MOL   H14427072   1.382   6.388   0.991  0.6122  1.2090 -3.4863
   25MOL   H14527073   1.434   6.287   0.861 -0.4463  0.0623 -0.0038
   25MOL   H14627074   1.186   6.244   1.029  0.9560 -0.2126 -0.1397
   25MOL   H14727075   1.255   6.128   0.912 -2.0279 -0.5749 -0.5895
   25MOL   H14827076   1.188   6.409   0.827 -0.5268 -0.0226  1.8562
   25MOL   H14927077   1.232   6.262   0.738  0.2400 -1.1282  1.5284
   25MOL   H15027078   0.972   6.327   0.883  1.0107 -0.1295  0.0066
   25MOL   H15127079   1.022   6.163   0.867  0.3927 -1.2468 -1.0973
   25MOL   H15227080   0.981   6.362   0.632  0.9342 -0.3514  0.9107
   25MOL   H15327081   0.862   6.248   0.682  0.6309 -1.7934  1.4096
   25MOL   H15427082   0.933   6.148   0.492 -0.9105  0.8505  1.0933
   25MOL   H15527083   1.037   6.063   0.598  0.7212  0.4880  2.6321
   25MOL   H15627084   1.212   6.009   0.499  1.2521 -0.3207  0.2974
   25MOL   H15727085   1.350   6.168   0.324 -1.0955 -0.5103 -0.1380
   25MOL   H15827086   1.415   6.027   0.402 -1.1292  0.3413  0.8722
   25MOL   H15927087   1.468   6.131   0.614 -1.2592  3.2803  2.4604
   25MOL   H16027088   1.419   6.284   0.579  0.1012 -1.1945  2.1244
   25MOL   H16127089   1.646   6.137   0.424  3.6261 -0.2199  1.0459
   25MOL   H16227090   1.612   6.306   0.422 -2.0090 -0.2797 -0.2182
   25MOL   H16327091   1.652   6.301   0.672  1.7637  2.0834  0.3132
   25MOL   H16427092   1.695   6.136   0.657 -0.8896 -0.2973 -0.2649
   25MOL   H16527093   1.884   6.180   0.516 -0.4998  0.0816 -1.0137
   25MOL   H16627094   1.885   6.234   0.678 -2.8559 -1.4454  0.8556
   25MOL   H16727095   1.989   6.420   0.543 -0.0662 -1.6182  0.7079
   25MOL   H16827096   1.859   6.400   0.425  1.0806 -0.8423 -0.2764
   25MOL   H16927097   1.757   6.569   0.549 -0.2418  1.4303  1.1319
   25MOL   C17027098   1.817   6.519   0.733 -0.2820  0.2842  0.8509
   25MOL   O17127099   1.895   6.455   0.803  0.4562 -0.2419 -0.2706
   25MOL   C17227100   1.736   6.633   0.793  0.0356 -0.5425  0.6601
   25MOL   C17327101   1.642   6.580   0.903  0.7393  0.1462 -0.0783
   25MOL   C17427102   1.576   6.694   0.994 -0.5748  0.4558  0.2081
   25MOL   C17527103   1.466   6.770   0.917 -0.2892  0.3081 -0.0842
   25MOL   C17627104   1.402   6.887   0.997 -0.1642 -0.4034  0.0644
   25MOL   C17727105   1.289   6.962   0.926 -0.8621 -0.8369 -0.1499
   25MOL   C17827106   1.159   6.894   0.958  0.4013  0.0790 -1.3133
   25MOL   C17927107   1.035   6.970   0.920  0.1773 -0.1392  1.1250
   25MOL   C18027108   0.903   6.891   0.941  0.2469  0.5338  0.1253
   25MOL   C18127109   0.773   6.942   0.877 -0.0151  0.4830 -0.1179
   25MOL   C18227110   0.725   7.075   0.941  0.1369  0.1652  0.1213
   25MOL   O18327111   0.711   7.078   1.064  0.2299 -0.0953 -0.3034
   25MOL   N18427112   0.693   7.180   0.870 -0.0830  0.2026  0.2127
   25MOL   C18527113   0.646   7.309   0.925 -0.3059  1.0042 -1.2716
   25MOL   C18627114   0.638   7.419   0.827 -0.2436 -0.6784  0.2293
   25MOL   C18727115   0.551   7.539   0.870 -0.7624  0.1582  0.8586
   25MOL   C18827116   0.568   7.663   0.784  0.2734 -0.2857 -0.2300
   25MOL   C18927117   0.489   7.661   0.655 -0.2728  0.2402  0.0843
   25MOL   C19027118   0.525   0.075   0.546 -0.0559 -0.7639  0.1969
   25MOL   N19127119   0.664   0.065   0.514 -0.1424 -0.3352 -0.2679
   25MOL   H19227120   1.805   6.706   0.835 -0.2926  0.6344 -0.8000
   25MOL   H19327121   1.682   6.676   0.708  1.9080  1.6796  0.5241
   25MOL   H19427122   1.691   6.507   0.968  0.5292  0.1185  0.0498
   25MOL   H19527123   1.573   6.511   0.855 -0.4384  0.4206  1.1774
   25MOL   H19627124   1.651   6.761   1.034  1.8665 -1.1244 -1.5964
   25MOL   H19727125   1.551   6.649   1.090  1.5083 -0.3336  0.4051
   25MOL   H19827126   1.507   6.830   0.837 -0.5232 -0.2172 -0.6028
   25MOL   H19927127   1.386   6.706   0.880  1.0400 -1.4482 -0.0064
   25MOL   H20027128   1.370   6.841   1.091  1.6211  0.4927  1.1662
   25MOL   H20127129   1.479   6.953   1.038 -1.3111 -0.0382  1.6715
   25MOL   H20227130   1.306   6.966   0.819 -0.6711  3.0122 -0.0594
   25MOL   H20327131   1.282   7.064   0.965 -3.4736 -1.9136  2.4157
   25MOL   H20427132   1.164   6.803   0.898  4.6798 -1.1673  0.7594
   25MOL   H20527133   1.139   6.869   1.062  1.5414  0.7079 -0.9398
   25MOL   H20627134   1.036   7.066   0.972 -0.0470 -0.3966  1.6136
   25MOL   H20727135   1.040   7.003   0.816  1.6126 -1.7542  0.6718
   25MOL   H20827136   0.880   6.878   1.047 -0.6399 -0.1413 -0.1435
   25MOL   H20927137   0.913   6.792   0.898 -0.3463  1.1351 -1.4127
   25MOL   H21027138   0.783   6.952   0.769 -2.8017 -2.8222 -0.7944
   25MOL   H21127139   0.698   6.864   0.892 -1.3522  1.8087  0.1889
   25MOL   H21227140   0.698   7.163   0.770 -2.2352  0.0995  0.0954
   25MOL   H21327141   0.715   7.345   1.001 -1.1010 -0.2692  0.1036
   25MOL   H21427142   0.542   7.300   0.959 -0.0057 -1.1440 -0.8441
   25MOL   H21527143   0.740   7.453   0.811 -0.0799 -0.0324  2.4980
   25MOL   H21627144   0.590   7.382   0.736 -0.0670  0.6820 -0.4258
   25MOL   H21727145   0.445   7.516   0.860 -1.0008  0.8963  1.6123
   25MOL   H21827146   0.575   7.561   0.974  1.9660 -0.4226  0.3665
   25MOL   H21927147   0.675   7.674   0.767  0.4397 -2.1381 -0.5643
   25MOL   H22027148   0.530   0.054   0.843 -1.4019 -0.1026 -1.5011
   25MOL   H22127149   0.381   7.658   0.668 -0.4850 -0.0282 -1.6359
   25MOL   H22227150   0.501   7.568   0.600 -0.2381  0.7019 -0.7101
   25MOL   H22327151   0.500   0.177   0.574 -0.0624 -0.5038 -0.7268
   25MOL   H22427152   0.455   0.053   0.465 -2.6108 -1.3512  2.4840
   25MOL   H22527153   0.722   0.146   0.531  2.7928 -2.4689  0.2768
   25MOL   C22627154   0.733   7.668   0.435 -0.0193  0.3196 -0.2841
   25MOL   O22727155   0.691   7.564   0.387 -0.4844 -0.1959  0.0958
   25MOL   C22827156   0.883   7.686   0.421 -0.0866  0.3741  0.7871
   25MOL   C22927157   0.923   0.059   0.281  0.1667 -0.6253 -0.4010
   25MOL   C23027158   1.056   0.127   0.311 -0.1705  0.4077 -0.6582
   25MOL   C23127159   1.118   0.167   0.176 -0.3261  0.2803 -0.4161
   25MOL   C23227160   1.046   0.282   0.104  0.0100 -0.4928 -0.4381
   25MOL   C23327161   1.117   0.421   0.110 -0.4808  0.1392  0.1439
   25MOL   C23427162   1.010   0.527   0.071  0.0540 -0.0442 -0.2542
   25MOL   C23527163   1.070   0.665   0.029  0.8790  0.1658  0.0848
   25MOL   C23627164   1.153   0.732   0.147  0.2955  0.1584 -0.2021
   25MOL   C23727165   1.205   0.872   0.128  0.7017  0.0930 -0.1775
   25MOL   C23827166   1.339   0.873   0.058  0.8506 -0.1720 -0.1443
   25MOL   O23927167   1.347   0.824   7.635 -0.5213  0.6964 -0.3165
   25MOL   N24027168   1.446   0.920   0.121  0.2660  0.7810  0.3206
   25MOL   C24127169   1.580   0.925   0.073 -0.4395 -0.0569  0.5886
   25MOL   C24227170   1.595   1.054   7.684  0.1561  0.0801  0.3717
   25MOL   C24327171   1.731   1.073   7.628 -0.3289 -0.4618  0.1979
   25MOL   C24427172   1.734   1.203   7.538 -0.1146  0.2048 -0.2772
   25MOL   C24527173   1.707   1.342   7.606  0.3353  0.7107 -0.3485
   25MOL   C24627174   1.754   1.463   7.525 -0.4898 -0.1631  0.2760
   25MOL   N24727175   1.737   1.591   7.594 -0.6407  0.5455 -0.5913
   25MOL   H24827176   0.940   7.598   0.453 -1.8921 -1.2794 -0.4257
   25MOL   H24927177   0.909   0.069   0.497  0.2863 -1.2172  2.2684
   25MOL   H25027178   0.920   7.685   0.194 -1.2641 -0.2339 -0.6601
   25MOL   H25127179   0.855   0.142   0.261 -1.1704 -1.6401 -0.1240
   25MOL   H25227180   1.055   0.212   0.379 -0.3794  0.1516 -0.3422
   25MOL   H25327181   1.117   0.057   0.368 -0.4084  0.0764 -0.8077
   25MOL   H25427182   1.117   0.075   0.117  2.4319 -0.1743  0.1503
   25MOL   H25527183   1.223   0.191   0.192 -0.2829  1.0989 -1.8804
   25MOL   H25627184   0.941   0.287   0.134 -0.5531 -3.5758 -1.7409
   25MOL   H25727185   1.043   0.257   7.690  0.3145 -0.4416 -0.4604
   25MOL   H25827186   1.143   0.444   0.213  2.6830  1.5229 -0.9229
   25MOL   H25927187   1.204   0.440   0.049  0.3420 -5.1928 -0.5337
   25MOL   H26027188   0.941   0.551   0.152 -0.9933  1.0054 -1.4309
   25MOL   H26127189   0.952   0.490   7.678  0.5576  2.6887 -1.8902
   25MOL   H26227190   1.133   0.649   7.634  0.2855 -1.4134 -0.0621
   25MOL   H26327191   0.993   0.730   7.679  0.9888 -0.5292 -1.2140
   25MOL   H26427192   1.091   0.745   0.235  0.3605  0.5675 -0.2164
   25MOL   H26527193   1.236   0.668   0.177  1.0007  0.8214 -0.7188
   25MOL   H26627194   1.137   0.937   0.073 -0.5513  0.0394  1.2664
   25MOL   H26727195   1.219   0.917   0.227  0.3818  1.3047 -0.6739
   25MOL   H26827196   1.438   0.965   0.211 -0.1838 -1.0461  1.2161
   25MOL   H26927197   1.606   0.837   0.013  0.1064  0.4876  0.0122
   25MOL   H27027198   1.651   0.931   0.155  0.8031 -3.2349 -0.1610
   25MOL   H27127199   1.567   1.140   0.053 -0.1781  0.2387 -0.0042
   25MOL   H27227200   1.519   1.038   7.607 -0.3309 -0.2304  0.9108
   25MOL   H27327201   1.805   1.086   0.016 -0.8166 -2.7056  1.0557
   25MOL   H27427202   1.769   0.989   7.570  0.3300 -0.4670  0.6294
   25MOL   H27527203   1.668   1.180   7.454 -1.4602  0.4239  0.7031
   25MOL   H27627204   1.830   1.211   7.487 -0.1073  0.4906 -0.2230
   25MOL   H27727205   1.748   1.349   0.015 -2.1738  1.2343  0.6621
   25MOL   H27827206   1.599   1.332   7.613  0.2584 -0.0825 -2.3441
   25MOL   H27927207   1.697   1.473   7.433  0.2570 -0.0355 -0.1817
   25MOL   H28027208   1.856   1.462   7.486 -0.3613 -0.0466  0.6117
   25MOL   H28127209   1.657   1.648   7.570 -0.1181  1.5613  0.0611
   25MOL   C28227210   1.816   1.637   0.002 -0.3758  0.5706  0.0328
   25MOL   O28327211   1.914   1.573   0.031 -0.4333  0.1543  0.4808
   25MOL   C28427212   1.786   1.775   0.063 -0.0310  0.0546  0.4316
   25MOL   C28527213   1.888   1.809   0.174 -0.0026 -0.5751 -0.1348
   25MOL   C28627214   2.031   1.831   0.135  0.5468 -0.3464 -0.2962
   25MOL   C28727215   2.049   1.951   0.031  0.0746 -0.7354 -1.0467
   25MOL   C28827216   2.181   2.029   0.041  0.4979  0.5765 -0.3438
   25MOL   C28927217   2.308   1.939   0.013  0.7085 -0.6924  0.3407
   25MOL   C29027218   2.435   2.028   0.031  0.3767  0.0381  0.4097
   25MOL   C29127219   2.445   2.157   7.635  0.2006 -0.1653 -0.4066
   25MOL   C29227220   2.569   2.237   7.659 -1.1571 -0.2943  0.0853
   25MOL   C29327221   2.569   2.340   0.089  0.2500  0.1421  0.0933
   25MOL   C29427222   2.715   2.397   0.110  0.3405 -0.1385 -0.2158
   25MOL   O29527223   2.791   2.397   0.016 -0.0543 -0.5131 -1.0391
   25MOL   N29627224   2.745   2.452   0.230 -0.0154 -0.5063 -0.2292
   25MOL   C29727225   2.865   2.534   0.271  0.5033 -0.6430 -0.4467
   25MOL   C29827226   2.932   2.465   0.385  0.2499 -0.0817 -0.0344
   25MOL   C29927227   3.030   2.562   0.449  0.2526  0.3821 -0.4655
   25MOL   C30027228   3.155   2.596   0.375  0.3822  0.7872  0.3818
   25MOL   C30127229   3.235   2.473   0.326 -1.0496 -0.9881 -0.0484
   25MOL   C30227230   3.363   2.517   0.250  0.0100  0.3563 -0.2150
   25MOL   N30327231   3.455   2.403   0.225  0.5325  0.3913  0.3155
   25MOL   H30427232   1.785   1.851   7.677  0.3607  0.4079  0.7704
   25MOL   H30527233   1.685   1.767   0.104  0.6955  0.4217  2.3323
   25MOL   H30627234   1.893   1.732   0.251  3.5482 -0.4195 -0.1284
   25MOL   H30727235   1.857   1.895   0.234 -1.0998 -0.6641 -0.5752
   25MOL   H30827236   2.075   1.849   0.234 -1.2362 -1.0012  0.6457
   25MOL   H30927237   2.081   1.737   0.114  0.9268 -0.4213  0.8848
   25MOL   H31027238   1.987   2.033   0.065  1.1904 -0.5910  0.7035
   25MOL   H31127239   2.018   1.920   7.622  2.6460 -0.8746 -1.8381
   25MOL   H31227240   2.172   2.114   7.666 -2.7829  0.6549  0.1476
   25MOL   H31327241   2.175   2.069   0.142 -2.4038 -3.8104  1.3813
   25MOL   H31427242   2.306   1.855   0.083 -1.4525 -1.3050 -0.4224
   25MOL   H31527243   2.295   1.900   7.604  1.2496 -0.3112  0.1188
   25MOL   H31627244   2.509   1.958   7.684  0.2450 -0.8358  1.7051
   25MOL   H31727245   2.448   2.037   0.139  0.6219 -2.1703  0.5977
   25MOL   H31827246   2.369   2.230   7.665 -0.1272 -1.0527  0.9617
   25MOL   H31927247   2.437   2.142   7.527  0.0821  0.1075 -0.4374
   25MOL   H32027248   2.646   2.164   7.684 -1.3478 -0.9967 -1.3324
   25MOL   H32127249   2.606   2.282   7.567  0.8626 -0.4627  0.7911
   25MOL   H32227250   2.499   2.422   0.070 -1.9966 -1.5901  0.6653
   25MOL   H32327251   2.537   2.288   0.180 -0.9232 -0.6797 -0.7841
   25MOL   H32427252   2.670   2.460   0.298  0.1876  0.6723 -0.1304
   25MOL   H32527253   2.828   2.634   0.292  0.8976 -0.3538 -1.1092
   25MOL   H32627254   2.935   2.551   0.190 -0.1869  2.0828 -0.5256
   25MOL   H32727255   2.966   2.368   0.349 -0.2328  0.5115 -2.1629
   25MOL   H32827256   2.860   2.445   0.463  1.1899 -0.7558  0.6730
   25MOL   H32927257   3.069   2.513   0.538 -1.7343 -0.4267 -0.0096
   25MOL   H33027258   2.974   2.652   0.474 -0.8667  0.3181 -2.6843
   25MOL   H33127259   3.117   2.650   0.289  1.4264  0.7796 -0.0940
   25MOL   H33227260   3.227   2.665   0.420  1.8503 -1.0567  0.9644
   25MOL   H33327261   3.180   2.401   0.266 -0.3237 -0.9992 -0.7126
   25MOL   H33427262   3.263   2.420   0.417 -0.0894  0.8248  0.7406
   25MOL   H33527263   3.340   2.560   0.152  0.3971 -2.8743 -1.7671
   25MOL   H33627264   3.418   2.596   0.302 -1.9891  0.8848  1.1416
   25MOL   H33727265   3.453   2.333   0.297 -0.4253  0.8272  0.7273
   25MOL   C33827266   3.558   2.404   0.146 -0.3736  0.1957 -0.0306
   25MOL   O33927267   3.588   2.494   0.071  0.1486  0.2545  0.0958
   25MOL   C34027268   3.651   2.292   0.159 -0.2169 -0.5778  0.6697
   25MOL   C34127269   3.761   2.277   0.051 -0.5179  0.1551  0.3206
   25MOL   C34227270   3.866   2.162   0.089 -0.5126 -0.3260 -0.2470
   25MOL   C34327271   3.793   2.026   0.096 -0.2227  0.3774 -0.3955
   25MOL   C34427272   3.893   1.919   0.138 -0.5667 -1.0175  0.0781
   25MOL   C34527273   3.826   1.788   0.157  0.2493  0.7784  0.0828
   25MOL   C34627274   3.930   1.669   0.146  0.4934  0.2131  0.0945
   25MOL   C34727275   3.882   1.539   0.206  0.4631  0.3427  0.2562
   25MOL   C34827276   3.887   1.519   0.359  0.1314 -0.1353 -0.7339
   25MOL   C34927277   3.888   1.369   0.406 -0.1469 -0.1663  0.1916
   25MOL   C35027278   3.934   1.364   0.554  0.0081  0.0395  0.8058
   25MOL   O35127279   4.041   1.419   0.583 -0.3986 -0.5559 -0.0160
   25MOL   N35227280   3.848   1.304   0.637 -0.5177 -0.2337 -0.6090
   25MOL   C35327281   3.888   1.257   0.771 -0.5593 -0.9860 -0.2179
   25MOL   C35427282   3.768   1.272   0.866 -0.7656  0.0154  0.3623
   25MOL   C35527283   3.801   1.293   1.008 -0.0771  0.6474 -0.5044
   25MOL   C35627284   3.678   1.311   1.093 -0.8333 -0.6039 -0.0033
   25MOL   C35727285   3.623   1.457   1.096 -0.7080 -0.0071 -0.0589
   25MOL   C35827286   3.527   1.499   0.983 -0.1902 -0.0344  0.8090
   25MOL   N35927287   3.477   1.635   1.004  0.0885  1.3976 -0.0304
   25MOL   H36027288   3.596   2.201   0.183  0.1114 -0.9045  0.1992
   25MOL   H36127289   3.715   2.314   0.245  0.3048  2.1269 -0.3538
   25MOL   H36227290   3.710   2.268   7.647  0.6618 -2.1291 -0.1277
   25MOL   H36327291   3.823   2.366   0.056  1.4915 -1.0652 -1.8445
   25MOL   H36427292   3.908   2.192   0.185  2.0153  0.2567 -1.5019
   25MOL   H36527293   3.941   2.149   0.011 -0.9039 -0.7631 -0.5511
   25MOL   H36627294   3.711   2.031   0.168  0.1399 -1.8006  0.1875
   25MOL   H36727295   3.761   2.006   7.686 -0.3336 -0.6949 -0.1524
   25MOL   H36827296   3.972   1.908   0.064 -2.1221  0.6865 -1.8695
   25MOL   H36927297   3.945   1.946   0.230  1.3742 -1.4468 -0.8701
   25MOL   H37027298   3.773   1.780   0.251  0.3537 -0.9032  0.0116
   25MOL   H37127299   3.763   1.768   0.071  0.0371  0.2135  0.3682
   25MOL   H37227300   3.936   1.657   0.038  1.8407  0.4390  0.1476
   25MOL   H37327301   4.030   1.686   0.186  1.3445 -2.1032 -0.9445
   25MOL   H37427302   3.777   1.526   0.179  0.1666 -0.8581  1.8853
   25MOL   H37527303   3.940   1.455   0.168 -0.8427  0.1349 -1.3201
   25MOL   H37627304   3.794   1.565   0.394  1.1099  1.9542 -0.8300
   25MOL   H37727305   3.970   1.567   0.411 -0.8905 -0.1711  0.9769
   25MOL   H37827306   3.793   1.318   0.388 -1.4295  2.2804 -0.2123
   25MOL   H37927307   3.968   1.320   0.350  1.2960  0.7872  1.3741
   25MOL   H38027308   3.755   1.282   0.604  0.1973 -3.0873 -0.8706
   25MOL   H38127309   3.971   1.314   0.813 -0.7126  0.6505 -2.0714
   25MOL   H38227310   3.925   1.154   0.768  0.6774 -0.5096 -1.7460
   25MOL   H38327311   3.698   1.189   0.871 -0.4701 -0.2742 -0.2913
   25MOL   H38427312   3.715   1.362   0.835  1.8476  2.1164  1.7378
   25MOL   H38527313   3.859   1.207   1.041  0.0906  1.8072  2.3535
   25MOL   H38627314   3.875   1.373   1.020  1.8831 -0.9704 -1.4085
   25MOL   H38727315   3.596   1.260   1.042 -1.5313  0.9786 -0.5163
   25MOL   H38827316   3.697   1.273   1.194 -1.1972 -0.4588  0.1200
   25MOL   H38927317   3.711   1.522   1.097 -0.7083  0.1158 -3.3168
   25MOL   H39027318   3.575   1.480   1.192 -0.9632  1.2381 -0.4704
   25MOL   H39127319   3.587   1.513   0.892 -1.0468  0.9644  0.3830
   25MOL   H39227320   3.447   1.429   0.960  0.8091 -0.4529 -1.5719
   25MOL   H39327321   3.514   1.717   0.958  0.7222  1.1349  0.0132
   25MOL   C39427322   3.374   1.656   1.085  0.4044  0.0417 -0.2537
   25MOL   O39527323   3.334   1.568   1.167 -0.0079 -0.2133 -0.5666
   25MOL   C39627324   3.315   1.798   1.084 -0.3853  0.3164 -0.1012
   25MOL   C39727325   3.159   1.793   1.062 -0.8264  0.1992 -0.4972
   25MOL   C39827326   3.123   1.777   0.912 -0.6083 -0.4941  0.2443
   25MOL   C39927327   3.158   1.901   0.829  0.0356  0.1826  0.0896
   25MOL   C40027328   3.102   1.895   0.681  0.8655 -0.5992  0.1145
   25MOL   C40127329   3.148   1.994   0.578  0.0833 -0.5452  0.1473
   25MOL   C40227330   3.100   1.961   0.441 -0.0346  0.5446  0.3590
   25MOL   C40327331   3.110   2.079   0.340 -0.2154 -0.6406 -0.2740
   25MOL   C40427332   3.057   2.045   0.202 -0.2546 -0.6608 -0.1350
   25MOL   C40527333   3.069   2.164   0.100 -0.2314 -0.6999  0.1121
   25MOL   C40627334   3.034   2.119   7.651  0.0129 -1.0039  0.1974
   25MOL   O40727335   3.091   2.027   7.597  0.1923 -0.4452  0.5100
   25MOL   N40827336   2.936   2.183   7.588  0.4079 -0.2253 -0.3367
   25MOL   C40927337   2.869   2.133   7.463 -0.1756  0.1013  0.0476
   25MOL   C41027338   2.900   2.202   7.320 -0.0752 -0.3956 -0.4261
   25MOL   C41127339   2.799   2.171   7.215 -0.4798  0.6084  0.1131
   25MOL   C41227340   2.832   2.239   7.073  0.3143 -0.7863 -0.6267
   25MOL   C41327341   2.766   2.162   6.950 -1.1947 -0.2452 -0.1617
   25MOL   C41427342   2.819   2.199   6.817 -0.3677  0.1201 -0.1394
   25MOL   N41527343   2.775   2.113   6.708  0.8958 -0.1486  0.1607
   25MOL   H41627344   3.374   1.868   1.026 -0.4585 -0.2576 -0.8855
   25MOL   H41727345   3.324   1.827   1.189 -2.3761  1.4132 -0.1975
   25MOL   H41827346   3.113   1.885   1.099 -2.1144 -0.2942 -0.8516
   25MOL   H41927347   3.112   1.723   1.130  0.1954 -0.1137 -0.0966
   25MOL   H42027348   3.017   1.754   0.920 -1.0172  0.1998 -2.7030
   25MOL   H42127349   3.172   1.688   0.871  1.5553 -0.3296  2.3675
   25MOL   H42227350   3.264   1.925   0.822 -0.6702  3.7053  0.5446
   25MOL   H42327351   3.122   1.988   0.885  0.6795  0.4672  0.0604
   25MOL   H42427352   3.100   1.791   0.650 -0.8265 -0.0880 -1.6515
   25MOL   H42527353   2.997   1.925   0.688  1.3951  1.4579 -0.3351
   25MOL   H42627354   3.105   2.091   0.601 -0.1023 -0.2112 -1.5176
   25MOL   H42727355   3.255   2.010   0.584 -0.4430  3.7127 -0.4876
   25MOL   H42827356   3.133   1.867   0.396  0.1232  0.9448 -0.3687
   25MOL   H42927357   2.994   1.941   0.454 -0.6253  1.7698 -2.2695
   25MOL   H43027358   3.069   2.169   0.384  2.1522  0.5468 -0.3820
   25MOL   H43127359   3.214   2.109   0.324 -1.0434  1.7079 -1.3426
   25MOL   H43227360   2.953   2.014   0.214 -1.3956  2.9441  0.0600
   25MOL   H43327361   3.112   1.959   0.164 -1.0406 -1.1992 -0.0686
   25MOL   H43427362   3.005   2.245   0.136  1.4727 -0.1208  1.8802
   25MOL   H43527363   3.169   2.204   0.114 -0.4908 -0.7443  2.1299
   25MOL   H43627364   2.890   2.254   7.643  0.2477 -0.9734  0.5112
   25MOL   H43727365   2.764   2.150   7.486 -0.1921  0.2710 -0.1579
   25MOL   H43827366   2.878   2.025   7.451  0.8749 -0.0730  2.2446
   25MOL   H43927367   3.005   2.186   7.293  0.4009 -0.2085  1.2543
   25MOL   H44027368   2.893   2.310   7.331  0.6312 -0.6506  2.9566
   25MOL   H44127369   2.801   2.062   7.207  3.1213  0.5380  1.1779
   25MOL   H44227370   2.705   2.213   7.252 -1.2229 -0.4525 -0.5377
   25MOL   H44327371   2.818   2.346   7.061  0.3932 -0.7169 -0.1101
   25MOL   H44427372   2.940   2.225   7.063  0.2021 -1.1125 -1.4331
   25MOL   H44527373   2.772   2.057   6.979 -0.6636  0.3287  1.8991
   25MOL   H44627374   2.660   2.186   6.940 -1.4266 -1.9339 -2.1676
   25MOL   H44727375   2.795   2.302   6.793 -0.1655  0.5024  1.2566
   25MOL   H44827376   2.928   2.193   6.819 -0.2671  1.9378  0.4141
   25MOL   H44927377   2.784   2.016   6.732  0.3985  0.2542  2.0909
   25MOL   C45027378   2.744   2.154   6.585 -0.2656 -0.2985 -0.4307
   25MOL   O45127379   2.757   2.269   6.544  0.4372  0.0231 -0.5359
   25MOL   C45227380   2.690   2.051   6.484  0.2121 -0.4990  0.5569
   25MOL   C45327381   2.538   2.080   6.448 -0.6416  0.3708 -0.3615
   25MOL   C45427382   2.436   2.036   6.550  0.0755  0.1110  0.0029
   25MOL   C45527383   2.300   2.096   6.515 -0.9887 -0.2787  0.1571
   25MOL   C45627384   2.236   2.043   6.384 -0.5033 -0.6647  0.2479
   25MOL   C45727385   2.095   2.102   6.376  0.0470 -0.0365  0.4611
   25MOL   C45827386   1.992   2.017   6.282 -1.2069 -0.2008  0.2996
   25MOL   C45927387   1.861   2.089   6.283  0.3733 -0.3017  1.0538
   25MOL   C46027388   1.748   2.013   6.209  0.0871  0.7457  0.8883
   25MOL   C46127389   1.697   1.888   6.277  0.2789 -0.4224  0.4151
   25MOL   C46227390   1.577   1.913   6.366  0.3155  0.2131 -0.9099
   25MOL   O46327391   1.567   2.007   6.446  0.3025 -0.5258 -0.1674
   25MOL   N46427392   1.481   1.820   6.351  0.2176  0.2706 -0.4283
   25MOL   C46527393   1.336   1.842   6.370 -0.2241  0.5396 -0.4283
   25MOL   C46627394   1.268   1.718   6.319  0.2518  0.1781  0.3686
   25MOL   C46727395   1.272   1.696   6.172  0.6504  0.4104  0.1147
   25MOL   C46827396   1.194   1.576   6.131 -0.0121  0.8309 -0.0780
   25MOL   C46927397   1.202   1.529   5.988 -0.4820  0.5644 -0.1597
   25MOL   C47027398   1.116   1.615   5.891 -0.2986  0.0515  0.5910
   25MOL   N47127399   1.134   1.582   5.751  0.0361 -0.3270  0.6071
   25MOL   H47227400   2.757   2.067   6.399 -0.5903 -3.8419 -0.7959
   25MOL   H47327401   2.708   1.951   6.522 -0.9621 -1.5235 -1.4718
   25MOL   H47427402   2.514   2.029   6.355  0.5060 -2.6229  0.9221
   25MOL   H47527403   2.523   2.185   6.422  0.1286  1.0820  1.9714
   25MOL   H47627404   2.463   2.079   6.647 -0.8926 -1.8979  1.2080
   25MOL   H47727405   2.430   1.930   6.576  1.4239  0.1326  0.4264
   25MOL   H47827406   2.303   2.205   6.515  0.1412 -0.2907 -1.3585
   25MOL   H47927407   2.238   2.073   6.602 -1.1409 -1.2495 -0.2025
   25MOL   H48027408   2.231   1.935   6.380 -0.5786 -0.5854 -3.3760
   25MOL   H48127409   2.290   2.078   6.296  1.8160 -0.9849  1.4991
   25MOL   H48227410   2.099   2.200   6.329 -1.5022 -0.0925  0.1672
   25MOL   H48327411   2.055   2.128   6.474  0.2693  1.2121  0.2299
   25MOL   H48427412   2.026   2.020   6.178  0.4677  0.0594  0.8478
   25MOL   H48527413   1.992   1.911   6.309 -0.2833 -0.3276 -0.1689
   25MOL   H48627414   1.840   2.115   6.387  1.2011 -1.3296  1.4777
   25MOL   H48727415   1.872   2.184   6.231  0.7636 -0.5779  0.6343
   25MOL   H48827416   1.776   2.002   6.104 -0.2921  1.1027  0.7459
   25MOL   H48927417   1.663   2.080   6.199 -0.2323  0.1218 -0.8158
   25MOL   H49027418   1.666   1.815   6.202  3.7942  1.7724 -3.4049
   25MOL   H49127419   1.777   1.830   6.324  1.3371 -0.2196 -1.1047
   25MOL   H49227420   1.494   1.732   6.304  0.7557  0.6603 -1.0204
   25MOL   H49327421   1.306   1.932   6.316 -2.5659 -0.4090 -0.7270
   25MOL   H49427422   1.333   1.852   6.479  1.5619 -1.5934 -0.1357
   25MOL   H49527423   1.307   1.623   6.357 -0.5067 -0.8567 -1.4140
   25MOL   H49627424   1.163   1.726   6.348  0.9572  1.6730  2.6817
   25MOL   H49727425   1.377   1.692   6.142  0.9094  2.2463  0.6778
   25MOL   H49827426   1.229   1.780   6.117 -0.2551  1.0476  1.7655
   25MOL   H49927427   1.090   1.594   6.159 -0.5497 -0.9232 -0.8913
   25MOL   H50027428   1.216   1.494   6.199 -1.3388 -0.1289 -0.7784
   25MOL   H50127429   1.310   1.535   5.973 -0.4016 -0.6118 -0.0567
   25MOL   H50227430   1.187   1.422   5.979  2.3590  0.2109 -1.1383
   25MOL   H50327431   1.017   1.571   5.902 -0.6326  1.2717  2.7696
   25MOL   H50427432   1.128   1.721   5.911  0.7126  0.1343 -0.4636
   25MOL   H50527433   1.105   1.488   5.728 -0.8532 -0.9490  4.1214
   25MOL   C50627434   1.145   1.674   5.653 -0.2222 -0.4730 -0.3258
   25MOL   O50727435   1.156   1.790   5.675 -0.8368 -0.2340  0.6460
   25MOL   C50827436   1.128   1.620   5.512 -0.1999  0.3074 -0.2606
   25MOL   C50927437   0.975   1.578   5.498 -0.2600  0.0266 -0.2365
   25MOL   C51027438   0.929   1.541   5.355  0.0597 -0.2273 -0.4307
   25MOL   C51127439   0.793   1.475   5.358 -0.3354 -0.0906  0.1380
   25MOL   C51227440   0.750   1.450   5.214 -0.4733 -0.8385  0.0721
   25MOL   C51327441   0.668   1.569   5.139 -0.7166 -0.0028 -0.3907
   25MOL   C51427442   0.601   1.524   5.008 -0.4493  0.0316  0.0925
   25MOL   C51527443   0.460   1.574   4.979 -0.2156  0.4259 -0.6241
   25MOL   C51627444   0.350   1.505   5.058 -0.3081  0.0878 -0.0281
   25MOL   C51727445   0.326   1.357   5.017 -0.0325  0.0127  0.8078
   25MOL   C51827446   0.191   1.338   4.944 -0.1716  0.2502 -0.5058
   25MOL   O51927447   0.158   1.410   4.850  0.5321 -0.0286  0.5816
   25MOL   N52027448   0.112   1.238   4.992 -0.0865 -0.0948  1.0356
   25MOL   C52127449   7.665   1.223   4.936 -0.1223 -0.1064 -0.1701
   25MOL   C52227450   7.577   1.146   5.034  0.2628  0.0234  0.6912
   25MOL   C52327451   7.626   1.005   5.074  0.2913 -0.1160  0.2410
   25MOL   C52427452   7.523   0.939   5.167 -0.0358  0.4936 -0.2106
   25MOL   C52527453   7.575   0.796   5.214  0.0996 -0.0807 -0.9851
   25MOL   C52627454   7.506   0.750   5.345 -0.5758  0.1547  0.1414
   25MOL   N52727455   7.525   0.611   5.378 -0.6542 -0.5432 -0.6232
   25MOL   H52827456   1.201   1.539   5.513  0.6569  1.0642 -0.5648
   25MOL   H52927457   1.159   1.703   5.449  1.1372 -1.0801 -1.4579
   25MOL   H53027458   0.915   1.660   5.538 -1.9342 -1.0073 -0.5494
   25MOL   H53127459   0.949   1.493   5.561  0.9512  2.0551  3.0838
   25MOL   H53227460   0.994   1.467   5.307 -0.1715 -0.8542  0.2179
   25MOL   H53327461   0.919   1.630   5.293 -0.4926  0.3468  0.4914
   25MOL   H53427462   0.804   1.383   5.414 -0.4415 -0.3047 -0.1902
   25MOL   H53527463   0.715   1.535   5.406  3.5426  3.9615  1.6941
   25MOL   H53627464   0.828   1.413   5.147 -0.8643 -0.9273 -0.3384
   25MOL   H53727465   0.682   1.365   5.212 -0.7399 -0.6037 -1.0783
   25MOL   H53827466   0.596   1.615   5.207  0.2813  1.7735 -0.4811
   25MOL   H53927467   0.740   1.648   5.115  0.7546 -0.5756  2.0175
   25MOL   H54027468   0.670   1.553   4.929 -0.2568 -0.6683  0.0031
   25MOL   H54127469   0.585   1.417   4.995  0.0401 -0.2273  1.4794
   25MOL   H54227470   0.452   1.682   4.992 -0.4344  0.7475 -3.0751
   25MOL   H54327471   0.435   1.567   4.873 -2.2083  0.4038 -0.1722
   25MOL   H54427472   0.257   1.559   5.045  0.0594  1.2266  1.8178
   25MOL   H54527473   0.383   1.504   5.162  1.6183 -2.2306 -0.6140
   25MOL   H54627474   0.409   1.304   4.970 -0.3839 -2.4984  2.8985
   25MOL   H54727475   0.308   1.301   5.108 -2.3708  0.0370  0.3856
   25MOL   H54827476   0.139   1.169   5.061 -0.1297 -2.2401 -1.0419
   25MOL   H54927477   7.678   1.176   4.838  0.5996  1.0619 -0.6474
   25MOL   H55027478   7.614   1.317   4.919 -1.5603 -0.7985  0.2102
   25MOL   H55127479   7.478   1.132   4.991  0.2471  0.3930  0.6031
   25MOL   H55227480   7.565   1.204   5.126  0.5983 -0.4430  1.0310
   25MOL   H55327481   0.035   1.019   5.114 -0.0858  0.2510  1.0845
   25MOL   H55427482   7.639   0.951   4.981  0.8178  1.8548 -0.8715
   25MOL   H55527483   7.425   0.929   5.121 -0.0432  2.1662 -0.5846
   25MOL   H55627484   7.504   1.002   5.254 -0.2193 -0.5514  0.5159
   25MOL   H55727485   7.555   0.720   5.139 -0.5058 -0.8338 -0.0567
   25MOL   H55827486   7.683   0.805   5.223  0.2083 -1.9818 -0.2823
   25MOL   H55927487   7.533   0.805   5.435 -0.9213  0.6941 -0.0825
   25MOL   H56027488   7.398   0.765   5.340 -0.7393 -1.2303 -0.7905
   25MOL   H56127489   7.598   0.586   5.443 -0.6167 -2.4938 -1.3756
   25MOL   C56227490   7.443   0.509   5.332 -0.3756 -0.2043 -0.3699
   25MOL   O56327491   7.354   0.508   5.242  0.1686  0.3179  0.5210
   25MOL   C56427492   7.457   0.385   5.415 -0.2288  0.4938  0.0425
   25MOL   C56527493   7.415   0.253   5.338  0.0711  0.3636  0.5165
   25MOL   C56627494   7.446   0.131   5.416  0.5522 -0.7011 -0.7748
   25MOL   C56727495   7.355   0.114   5.539  0.4731  0.1314 -0.2662
   25MOL   C56827496   7.407   0.021   5.651  0.3352  0.3301  0.1159
   25MOL   C56927497   7.409   7.571   5.607 -0.4391 -0.8280 -0.2643
   25MOL   C57027498   7.457   7.472   5.721 -0.1792  0.5686  1.0440
   25MOL   C57127499   7.475   7.330   5.664  0.6491 -0.0454 -0.0572
   25MOL   C57227500   7.517   7.227   5.772  0.4016  0.5730 -0.0806
   25MOL   C57327501   7.655   7.245   5.845  0.3461 -0.0531  0.0609
   25MOL   C57427502   0.086   7.282   5.745  0.3684 -0.3100 -0.1101
   25MOL   O57527503   0.104   7.226   5.638 -0.2117 -0.7045  0.2909
   25MOL   N57627504   0.163   7.386   5.779 -0.4007  0.4511  0.3258
   25MOL   C57727505   0.267   7.435   5.695  0.4449  0.2229 -0.4763
   25MOL   C57827506   0.296   7.586   5.731  0.9407  0.4505 -0.3900
   25MOL   C57927507   0.183   7.683   5.697 -0.8812 -0.3808  0.3950
   25MOL   C58027508   0.231   0.134   5.714  0.0641  0.2980 -0.1270
   25MOL   C58127509   0.139   0.242   5.663 -0.1757  0.7173  0.3578
   25MOL   C58227510   0.219   0.381   5.669 -0.6121  0.0140  0.5834
   25MOL   N58327511   0.265   0.408   5.530 -0.0595 -0.8200  0.0732
   25MOL   H58427512   7.562   0.365   5.434 -0.5595 -0.0998  1.3484
   25MOL   H58527513   7.406   0.406   5.509 -1.4000  0.0069 -0.4779
   25MOL   H58627514   7.312   0.263   5.305  0.5199 -2.1685 -1.8438
   25MOL   H58727515   7.461   0.256   5.239 -1.4233 -0.5088 -0.2194
   25MOL   H58827516   7.553   0.119   5.433  1.1559  1.5001 -2.7369
   25MOL   H58927517   7.430   0.047   5.349  0.3478  0.1456 -1.7818
   25MOL   H59027518   7.348   0.210   5.589  2.2380  0.0187  0.2335
   25MOL   H59127519   7.251   0.091   5.516 -0.3110 -1.0614  4.0560
   25MOL   H59227520   7.511   0.052   5.663  0.5455 -0.1323 -0.4413
   25MOL   H59327521   7.348   0.022   5.742 -1.5883  1.1693 -1.1043
   25MOL   H59427522   7.308   7.535   5.586 -0.8981  1.0420 -1.3171
   25MOL   H59527523   7.470   7.560   5.518  0.2142 -0.9433  0.1964
   25MOL   H59627524   7.555   7.512   5.749  0.5141  0.2714 -0.8550
   25MOL   H59727525   7.394   7.491   5.807  0.0615  3.2096  0.7043
   25MOL   H59827526   7.553   7.326   5.588  1.8623 -1.2065  1.2151
   25MOL   H59927527   7.379   7.298   5.622  0.8631 -0.2055 -0.4306
   25MOL   H60027528   7.504   7.127   5.731  0.2002 -0.4059  2.2941
   25MOL   H60127529   7.441   7.241   5.849  0.5482 -1.5788  0.4777
   25MOL   H60227530   7.634   7.338   5.899 -2.3513  0.1533 -1.2361
   25MOL   H60327531   7.682   7.172   5.921 -3.4309 -1.1663  0.4199
   25MOL   H60427532   0.140   7.448   5.856  1.4298  0.0487  1.2272
   25MOL   H60527533   0.253   7.431   5.587  1.6906  1.0161 -0.6747
   25MOL   H60627534   0.356   7.375   5.717 -0.0599  0.2222  1.6672
   25MOL   H60727535   0.385   7.613   5.676  0.8442 -0.3629 -0.9619
   25MOL   H60827536   0.327   7.597   5.835  2.9080 -0.1916 -0.8952
   25MOL   H60927537   0.097   7.660   5.760  0.2110 -1.9635  1.3794
   25MOL   H61027538   0.138   7.663   5.600 -0.7258  0.7960  0.0778
   25MOL   H61127539   0.249   0.152   5.820 -2.8391 -1.9246  0.7869
   25MOL   H61227540   0.323   0.151   5.658  0.6520  0.1626  0.7845
   25MOL   H61327541   0.056   0.246   5.733 -0.2655 -1.2414  0.4011
   25MOL   H61427542   0.101   0.209   5.566 -2.5456 -0.1106  1.5376
   25MOL   H61527543   0.155   0.457   5.714 -0.9258  0.4177 -0.5262
   25MOL   H61627544   0.301   0.372   5.739  0.0647  0.5755 -0.1313
   25MOL   H61727545   0.354   0.369   5.502 -1.0141 -1.5391 -2.0351
   25MOL   C61827546   0.188   0.470   5.441 -0.0659 -0.2388 -0.6509
   25MOL   O61927547   0.075   0.511   5.464 -0.7129  0.2173 -0.1189
   25MOL   C62027548   0.242   0.494   5.306  0.1385 -0.2014 -0.1615
   25MOL   C62127549   0.143   0.488   5.183 -0.1860  0.0216 -0.7616
   25MOL   C62227550   0.114   0.343   5.159  0.3776 -0.4432 -1.0336
   25MOL   C62327551   0.080   0.312   5.015  0.5722  0.5375 -0.9460
   25MOL   C62427552   7.624   0.349   4.979 -0.3439  0.1040  0.0950
   25MOL   C62527553   7.581   0.316   4.838  0.3453  0.1570  0.2173
   25MOL   C62627554   7.426   0.335   4.801  0.0181 -0.3165  0.3547
   25MOL   C62727555   7.339   0.271   4.904  1.0435  0.3981 -0.6061
   25MOL   C62827556   7.198   0.240   4.857 -0.3197  0.9733  0.4401
   25MOL   C62927557   7.104   0.242   4.972 -0.3794 -0.2292  0.5007
   25MOL   C63027558   6.963   0.205   4.935  0.0641 -0.1549  0.1253
   25MOL   O63127559   6.915   0.096   4.977  0.0298  0.2205 -0.0578
   25MOL   N63227560   6.893   0.283   4.853  0.0008 -0.0827  0.1712
   25MOL   C63327561   6.756   0.274   4.808 -0.0031  0.2610  1.1148
   25MOL   C63427562   6.743   0.342   4.671  0.9317 -0.0732  0.4002
   25MOL   C63527563   6.808   0.258   4.559  0.4675  0.2463 -0.0010
   25MOL   C63627564   6.955   0.290   4.545 -0.8105  0.0224  0.3185
   25MOL   C63727565   6.977   0.409   4.457  0.6157  0.8675 -0.0657
   25MOL   C63827566   7.126   0.453   4.427  0.7772  0.4343 -0.6592
   25MOL   N63927567   7.137   0.538   4.306 -0.4244  0.3158 -0.0565
   25MOL   H64027568   0.337   0.441   5.293 -1.9434 -4.5645  1.1077
   25MOL   H64127569   0.261   0.601   5.304  1.1120 -0.3265  1.2968
   25MOL   H64227570   0.194   0.534   5.099  0.0415  1.1573 -0.0223
   25MOL   H64327571   0.044   0.531   5.196 -0.1048  0.1513 -0.5647
   25MOL   H64427572   0.046   0.302   5.234  0.3199  3.2898  1.1106
   25MOL   H64527573   0.205   0.283   5.169  0.5373  0.1069  1.1511
   25MOL   H64627574   0.148   0.357   4.942 -1.5044  2.5863 -1.6673
   25MOL   H64727575   0.092   0.205   5.003 -1.9453  0.2115 -0.8818
   25MOL   H64827576   7.553   0.312   5.053 -0.3595  0.6713  0.3634
   25MOL   H64927577   7.613   0.456   4.996  1.4769  0.2168  0.6698
   25MOL   H65027578   7.600   0.210   4.823  0.3394  0.1539  0.2326
   25MOL   H65127579   7.641   0.361   4.759  0.8234 -0.2619  0.3426
   25MOL   H65227580   7.396   0.439   4.804  1.1689  0.0365 -0.1631
   25MOL   H65327581   7.413   0.292   4.701  0.7847 -1.8871  0.9069
   25MOL   H65427582   7.381   0.178   4.942 -2.3437 -2.1018 -2.5951
   25MOL   H65527583   7.330   0.332   4.994 -3.4473 -0.4782 -0.3062
   25MOL   H65627584   7.199   0.138   4.818  0.4493  0.1739  2.4904
   25MOL   H65727585   7.180   0.312   4.777  1.1720  0.1321 -0.6753
   25MOL   H65827586   7.148   0.162   5.031  0.2178  1.1650  1.9821
   25MOL   H65927587   7.101   0.340   5.020 -0.9932  0.5260 -1.0160
   25MOL   H66027588   6.945   0.359   4.811  0.7836 -0.5624  0.2654
   25MOL   H66127589   6.720   0.172   4.796 -2.0294  0.9865  0.7230
   25MOL   H66227590   6.695   0.333   4.876  0.3023  0.4295  1.2442
   25MOL   H66327591   6.765   0.449   4.671 -0.7214  0.2920  1.9193
   25MOL   H66427592   6.636   0.345   4.650  0.8566 -0.7766  0.6617
   25MOL   H66527593   6.798   0.154   4.591  1.4958 -0.8757 -3.1033
   25MOL   H66627594   6.758   0.277   4.464  0.1720 -0.3661  0.0269
   25MOL   H66727595   7.008   0.205   4.500 -0.0999  1.1013 -0.9339
   25MOL   H66827596   7.006   0.293   4.641 -1.3465 -0.6109  0.6338
   25MOL   H66927597   6.913   0.383   4.372 -2.1785  1.1541  1.8638
   25MOL   H67027598   6.930   0.495   4.505  0.0463  0.2663  0.4769
   25MOL   H67127599   7.159   0.496   4.522 -4.6041 -2.0083  2.5487
   25MOL   H67227600   7.190   0.365   4.427  0.4283  0.1491  2.2125
   25MOL   H67327601   7.052   0.575   4.266 -0.2099  0.1758 -0.6479
   25MOL   C67427602   7.258   0.569   4.251  0.3168 -0.0557 -0.2976
   25MOL   O67527603   7.273   0.651   4.162  0.1014  0.1529  0.5001
   25MOL   C67627604   7.388   0.501   4.310 -0.3267  0.0196 -0.6091
   25MOL   C67727605   7.522   0.554   4.262  0.8917 -0.4448  0.3425
   25MOL   C67827606   7.639   0.480   4.319  0.3157  0.3570 -0.1418
   25MOL   C67927607   7.645   0.481   4.465 -0.4435  0.0285  1.1844
   25MOL   C68027608   0.002   0.619   4.520 -0.7356  0.3770  0.1602
   25MOL   C68127609   0.016   0.620   4.673  0.3272 -1.1203  0.1387
   25MOL   C68227610   0.092   0.745   4.721  0.1272  0.4003  0.1187
   25MOL   C68327611   0.148   0.725   4.861 -0.2992 -0.2027 -0.2456
   25MOL   C68427612   0.225   0.842   4.912 -0.0013 -0.2840  0.2277
   25MOL   C68527613   0.278   0.815   5.057 -0.1124  0.3901  0.4179
   25MOL   C68627614   0.350   0.936   5.112 -0.8114  0.9881 -0.0604
   25MOL   O68727615   0.300   1.042   5.134 -0.4251 -0.6597 -0.0529
   25MOL   N68827616   0.485   0.924   5.119  0.2830  0.1939  0.2043
   25MOL   C68927617   0.569   1.036   5.109  0.4993  0.6395 -0.2782
   25MOL   C69027618   0.721   1.001   5.116  0.4053  0.1146 -0.5489
   25MOL   C69127619   0.771   0.948   5.255  0.9156 -0.1611  0.5905
   25MOL   C69227620   0.833   1.064   5.327  0.0203 -0.4804  0.1114
   25MOL   C69327621   0.973   1.107   5.272  0.5850 -0.2792 -0.3451
   25MOL   C69427622   1.056   1.173   5.379 -0.1512 -0.5888  0.2077
   25MOL   N69527623   1.175   1.240   5.320  0.4001 -0.2556  0.1833
   25MOL   H69627624   7.380   0.394   4.295 -0.9701 -0.0056 -0.1100
   25MOL   H69727625   7.388   0.518   4.418  0.5212  0.0646 -0.6090
   25MOL   H69827626   7.535   0.659   4.285  1.4317 -0.3570 -0.3507
   25MOL   H69927627   7.535   0.555   4.154  1.6310  1.8214  0.4259
   25MOL   H70027628   7.649   0.376   4.286  1.3972  0.1292  0.8736
   25MOL   H70127629   0.036   0.526   4.274  1.3380 -0.4773  0.9878
   25MOL   H70227630   0.022   0.402   4.496 -0.3162 -0.5135 -0.4183
   25MOL   H70327631   7.552   0.455   4.515 -0.9610  0.7794  0.6147
   25MOL   H70427632   7.617   0.689   4.486 -0.2936  0.4483 -0.7118
   25MOL   H70527633   0.101   0.638   4.476  1.3043 -3.2344  2.9687
   25MOL   H70627634   7.606   0.612   4.711 -0.2500 -1.2277 -1.4136
   25MOL   H70727635   0.085   0.541   4.702  0.2637 -0.8735  0.9597
   25MOL   H70827636   0.170   0.783   4.655 -0.1823 -0.7682 -0.9518
   25MOL   H70927637   0.016   0.823   4.731  0.2794  0.4471  0.9563
   25MOL   H71027638   0.061   0.704   4.923  1.9132 -0.5283  2.8483
   25MOL   H71127639   0.216   0.641   4.873  1.2878  1.0064 -0.5769
   25MOL   H71227640   0.179   0.939   4.896  2.0573  0.6054 -0.3955
   25MOL   H71327641   0.314   0.838   4.850  0.2371 -0.4009  0.5697
   25MOL   H71427642   0.201   0.789   5.130 -0.3927  1.6822  0.6008
   25MOL   H71527643   0.346   0.731   5.057  0.5301  0.9050 -0.5764
   25MOL   H71627644   0.534   0.836   5.122 -0.7826 -0.4278 -0.3919
   25MOL   H71727645   0.553   1.093   5.018 -2.4942 -2.1810 -1.6302
   25MOL   H71827646   0.549   1.093   5.200  1.3714 -2.7008  2.0998
   25MOL   H71927647   0.759   1.094   5.074 -0.2651  2.2197  3.2673
   25MOL   H72027648   0.743   0.924   5.043  1.2118  0.8221 -1.0597
   25MOL   H72127649   0.687   0.911   5.314  0.6154  0.3175  0.4647
   25MOL   H72227650   0.841   0.865   5.260 -0.1581 -1.2115 -1.4870
   25MOL   H72327651   0.851   1.025   5.427  0.2284 -0.8628 -0.0761
   25MOL   H72427652   0.759   1.144   5.329 -0.4430 -0.7284 -3.3548
   25MOL   H72527653   0.968   1.170   5.183  0.1196  1.3880  0.8487
   25MOL   H72627654   1.025   1.016   5.243 -0.2965 -0.2246 -2.1516
   25MOL   H72727655   0.990   1.240   5.434  0.3013  1.3455 -1.5472
   25MOL   H72827656   1.084   1.097   5.451  1.2206 -0.2172  0.0780
   25MOL   H72927657   1.166   1.340   5.331  3.1722  0.1941 -1.2492
   25MOL   C73027658   1.292   1.191   5.279  0.5616 -0.0712  0.1757
   25MOL   O73127659   1.309   1.067   5.265  0.0843  0.0458  0.3189
   25MOL   C73227660   1.407   1.279   5.230 -0.0813  0.7852  0.3139
   25MOL   C73327661   1.404   1.425   5.263 -0.1176 -0.7201 -0.2877
   25MOL   C73427662   1.507   1.516   5.187 -0.3544  0.7899 -0.3159
   25MOL   C73527663   1.585   1.613   5.278  0.4040 -0.4928  0.5395
   25MOL   C73627664   1.499   1.712   5.356 -0.2074 -0.5694 -0.1798
   25MOL   C73727665   1.413   1.820   5.278 -0.2330 -0.1521 -0.1180
   25MOL   C73827666   1.495   1.909   5.182 -0.1054 -0.2984  0.2545
   25MOL   C73927667   1.418   2.008   5.098  0.0648  0.8952 -0.2327
   25MOL   C74027668   1.479   2.054   4.963 -0.6730 -0.1739 -0.1916
   25MOL   C74127669   1.571   2.173   4.981 -0.1845 -0.0655  0.0455
   25MOL   C74227670   1.505   2.310   5.010 -0.2834 -0.1444  0.3320
   25MOL   O74327671   1.391   2.337   4.980 -0.2173 -0.0529  0.2476
   25MOL   N74427672   1.578   2.388   5.091 -0.5838  0.0926  0.3836
   25MOL   C74527673   1.533   2.512   5.155 -0.5368 -0.8682  0.3024
   25MOL   C74627674   1.422   2.490   5.259  0.0644  0.0195 -0.0446
   25MOL   C74727675   1.445   2.359   5.337 -0.3278 -0.7000  0.1273
   25MOL   C74827676   1.394   2.370   5.480  0.7740 -0.2490  0.4235
   25MOL   C74927677   1.426   2.247   5.569  0.3083 -0.8893 -0.4290
   25MOL   C75027678   1.334   2.206   5.682  0.5305  0.1416  0.2468
   25MOL   N75127679   1.354   2.078   5.747 -0.4867  0.1466  0.2745
   25MOL   H75227680   1.416   1.283   5.122  1.1996  1.5325  0.4386
   25MOL   H75327681   1.494   1.242   5.284  1.3961 -0.3955 -2.7329
   25MOL   H75427682   1.417   1.419   5.372 -0.3816  1.4761 -0.1179
   25MOL   H75527683   1.307   1.475   5.265 -0.1646 -0.8272  0.2089
   25MOL   H75627684   1.446   1.563   5.110  0.2010 -0.5063 -1.5710
   25MOL   H75727685   1.585   1.458   5.138  1.6360  1.4954  1.9038
   25MOL   H75827686   1.664   1.661   5.220 -0.4108  1.0865  0.7267
   25MOL   H75927687   1.630   1.555   5.358 -0.0690  1.1135  1.9984
   25MOL   H76027688   1.563   1.761   5.430 -0.3061 -1.8938  0.8135
   25MOL   H76127689   1.434   1.649   5.418  1.7077 -1.3546  1.0636
   25MOL   H76227690   1.342   1.763   5.217 -2.1885  0.5738  1.4450
   25MOL   H76327691   1.356   1.876   5.352  0.3442 -0.7952  0.8200
   25MOL   H76427692   1.563   1.971   5.241 -0.6381 -1.5338  2.2286
   25MOL   H76527693   1.547   1.848   5.107 -0.0120  0.5880 -0.4044
   25MOL   H76627694   1.319   1.966   5.083  0.6078 -0.6758  0.4304
   25MOL   H76727695   1.389   2.095   5.157 -0.9687  1.0477 -0.9672
   25MOL   H76827696   1.404   2.106   4.904  0.6546  1.2558 -0.6749
   25MOL   H76927697   1.522   1.977   4.899  1.7141 -2.3706  3.8237
   25MOL   H77027698   1.646   2.152   5.057 -0.5220 -1.7754 -0.0929
   25MOL   H77127699   1.620   2.186   4.884  0.2562  2.7238  0.5728
   25MOL   H77227700   1.674   2.358   5.095 -0.6310 -0.2048 -0.4506
   25MOL   H77327701   1.490   2.567   5.071  1.4493  0.9850  0.4375
   25MOL   H77427702   1.615   2.571   5.195 -1.7392  0.5217  0.7512
   25MOL   H77527703   1.323   2.478   5.216 -0.0992 -2.1949  0.8812
   25MOL   H77627704   1.401   2.579   5.319 -0.6105  0.3710 -0.7929
   25MOL   H77727705   1.545   2.315   5.340  0.1126  0.3393  1.2604
   25MOL   H77827706   1.395   2.277   5.285 -0.1537 -0.2228 -0.7892
   25MOL   H77927707   1.452   2.454   5.519  0.0181  0.0852  0.8384
   25MOL   H78027708   1.290   2.399   5.467  1.5238  0.9041 -3.6884
   25MOL   H78127709   1.532   2.248   5.596  0.6852 -2.3446 -1.7502
   25MOL   H78227710   1.419   2.156   5.510 -1.5110  0.0306 -1.6863
   25MOL   H78327711   1.324   2.281   5.759 -1.5690  1.4171 -1.2064
   25MOL   H78427712   1.238   2.207   5.629  1.7283 -0.1716 -2.0264
   25MOL   H78527713   1.335   1.993   5.696  0.2220 -0.2938  0.7355
   25MOL   C78627714   1.406   2.055   5.863 -0.0117 -0.0669  0.3307
   25MOL   O78727715   1.443   2.143   5.941  0.5756  0.2307  0.2062
   25MOL   C78827716   1.425   1.907   5.889  0.2268 -0.2465 -0.2889
   25MOL   C78927717   1.562   1.866   5.854 -0.3566  0.3286  0.2616
   25MOL   C79027718   1.604   1.716   5.873 -0.2765  0.1095  0.0365
   25MOL   C79127719   1.545   1.634   5.755 -0.1754 -0.0160  0.9678
   25MOL   C79227720   1.551   1.477   5.783  0.4273 -0.3336  0.2566
   25MOL   C79327721   1.511   1.400   5.674 -0.0068  0.1119 -0.0969
   25MOL   C79427722   1.559   1.254   5.679 -0.1402  0.0393 -0.0875
   25MOL   C79527723   1.564   1.200   5.540 -0.0436 -0.1658  0.3751
   25MOL   C79627724   1.588   1.046   5.531  0.1791 -1.0683 -0.3974
   25MOL   C79727725   1.727   0.995   5.557  0.2199 -0.0422 -0.3108
   25MOL   C79827726   1.825   1.028   5.445  0.2524 -0.5740 -0.4657
   25MOL   O79927727   1.789   1.044   5.326  0.0648  0.8382 -0.0296
   25MOL   N80027728   1.958   1.018   5.467 -0.2496  0.8117  0.1404
   25MOL   C80127729   2.052   1.004   5.363 -0.1953 -0.4415  0.2360
   25MOL   C80227730   2.068   1.128   5.273 -0.4051  0.4457  0.1095
   25MOL   C80327731   2.191   1.122   5.177  0.0265  0.4120  0.0164
   25MOL   C80427732   2.195   1.223   5.066  0.4936  0.1241 -0.3079
   25MOL   C80527733   2.092   1.216   4.953 -0.5265 -0.3490  0.2995
   25MOL   C80627734   2.121   1.303   4.834  0.1460  0.4591  0.3490
   25MOL   N80727735   2.018   1.290   4.730 -0.2400 -0.3034 -0.5921
   25MOL   H80827736   1.349   1.849   5.837 -0.1362 -0.7847  0.8311
   25MOL   H80927737   1.408   1.884   5.994  2.2000 -2.6049 -0.4356
   25MOL   H81027738   1.575   1.893   5.749  2.2231 -3.3383 -0.4488
   25MOL   H81127739   1.629   1.921   5.920  0.8416 -0.0496 -0.6337
   25MOL   H81227740   1.564   1.682   5.968 -1.5675  0.7292 -0.2675
   25MOL   H81327741   1.712   1.702   5.873 -0.3998 -0.8617  0.2952
   25MOL   H81427742   1.440   1.665   5.755 -0.3062 -0.4240 -0.4183
   25MOL   H81527743   1.585   1.666   5.659 -1.7905  0.1555  0.3237
   25MOL   H81627744   1.655   1.465   5.814  0.4707 -1.5275 -0.3491
   25MOL   H81727745   1.490   1.443   5.866  1.2810  0.1851  1.1129
   25MOL   H81827746   1.403   1.397   5.665  0.1288 -1.5014 -1.5004
   25MOL   H81927747   1.536   1.451   5.581  2.3414 -1.4133 -0.3547
   25MOL   H82027748   1.656   1.247   5.727 -1.2725 -1.0840  2.0854
   25MOL   H82127749   1.492   1.185   5.731 -1.8380 -0.6608 -3.0355
   25MOL   H82227750   1.478   1.232   5.482  1.2370  2.4598 -0.1292
   25MOL   H82327751   1.647   1.248   5.489  0.9504  0.2355  2.2950
   25MOL   H82427752   1.548   1.017   5.434 -1.1354  0.1592 -0.2288
   25MOL   H82527753   1.520   0.993   5.598  1.2714  0.0347  1.6537
   25MOL   H82627754   1.760   1.040   5.651 -0.5123 -0.4708  0.1495
   25MOL   H82727755   1.721   0.886   5.561 -1.4077  0.0677  0.6071
   25MOL   H82827756   1.996   0.994   5.557  1.0596  1.1840 -0.3017
   25MOL   H82927757   2.046   0.915   5.302  0.7051  1.1959 -2.3195
   25MOL   H83027758   2.143   0.996   5.421  0.7141 -0.2515 -1.1515
   25MOL   H83127759   2.066   1.215   5.339 -0.8649  0.0250  0.6631
   25MOL   H83227760   1.979   1.146   5.213 -0.1857  2.0060  0.2477
   25MOL   H83327761   2.280   1.143   5.236  0.5153  2.3031 -1.3452
   25MOL   H83427762   2.205   1.019   5.143 -0.7533  1.1503 -2.7167
   25MOL   H83527763   2.295   1.223   5.021  0.7159  1.8239  0.1577
   25MOL   H83627764   2.195   1.320   5.115 -1.1805 -0.5603  1.0923
   25MOL   H83727765   1.998   1.246   4.999 -1.4557 -0.0057 -1.7777
   25MOL   H83827766   2.083   1.119   4.906 -0.5656 -0.7552  1.1387
   25MOL   H83927767   2.226   1.297   4.808 -0.5279  0.7953 -2.6987
   25MOL   H84027768   2.116   1.403   4.879  1.9740  1.0963 -0.8223
   25MOL   H84127769   1.959   1.209   4.731  1.7232 -1.7892 -0.8391
   25MOL   C84227770   2.013   1.376   4.630  0.5404  0.1677  0.0567
   25MOL   O84327771   2.089   1.476   4.619  0.2492  0.0862 -0.1870
   25MOL   C84427772   1.900   1.364   4.533  0.1004 -0.2093  0.1047
   25MOL   C84527773   1.935   1.343   4.386 -0.2428 -0.0063  0.1089
   25MOL   C84627774   1.980   1.469   4.316 -0.3380 -0.4945 -0.3636
   25MOL   C84727775   1.986   1.456   4.163 -0.2525 -0.3131 -0.0717
   25MOL   C84827776   2.036   1.572   4.079 -0.3315 -0.4247  0.8964
   25MOL   C84927777   2.024   1.563   3.930 -0.7868  1.0851  0.0939
   25MOL   C85027778   1.877   1.570   3.889  0.5703  0.4202 -0.7109
   25MOL   C85127779   1.840   1.567   3.741 -0.6840 -0.2584 -0.5205
   25MOL   C85227780   1.695   1.543   3.725  0.4413 -0.5336  0.8767
   25MOL   C85327781   1.643   1.522   3.582 -0.1015  0.0026  0.1117
   25MOL   C85427782   1.628   1.657   3.512 -0.9618  0.0840 -0.1945
   25MOL   O85527783   1.528   1.728   3.523 -0.4672 -0.0718 -0.1607
   25MOL   N85627784   1.733   1.692   3.440 -0.6992  0.4054 -0.4511
   25MOL   C85727785   1.746   1.810   3.348  0.4541  0.0455 -0.7740
   25MOL   C85827786   1.855   1.910   3.382  0.0861 -0.1632 -0.2166
   25MOL   C85927787   1.826   2.049   3.333 -0.1894  0.5086 -0.4872
   25MOL   C86027788   1.858   2.085   3.190 -0.2225  0.5533 -0.0988
   25MOL   C86127789   2.011   2.068   3.167 -0.1809 -0.0836  0.5719
   25MOL   C86227790   2.049   2.099   3.019 -0.3683  0.4540 -0.0192
   25MOL   N86327791   1.995   2.229   2.979  0.2675 -0.1802 -0.4377
   25MOL   H86427792   1.848   1.458   4.546  0.8971  0.2940 -0.2795
   25MOL   H86527793   1.840   1.283   4.574 -0.7052  1.5943  2.5768
   25MOL   H86627794   1.851   1.297   4.334 -0.0645  0.2478 -0.4055
   25MOL   H86727795   2.005   1.260   4.383  2.1716  2.0079 -0.8602
   25MOL   H86827796   1.916   1.554   4.339  1.0752  0.2625  0.7953
   25MOL   H86927797   2.079   1.481   4.359 -0.2535  0.2479 -0.7629
   25MOL   H87027798   1.887   1.420   4.134  0.2721 -1.4767 -0.4637
   25MOL   H87127799   2.046   1.368   4.139 -0.6876 -0.2812 -1.3208
   25MOL   H87227800   1.978   1.662   4.102  0.0877 -0.0763  0.5836
   25MOL   H87327801   2.142   1.582   4.098  0.3923 -1.6860 -2.2596
   25MOL   H87427802   2.086   1.639   3.884 -0.5287  0.2811 -0.9130
   25MOL   H87527803   2.058   1.465   3.895 -2.0838 -0.0434  1.8784
   25MOL   H87627804   1.828   1.489   3.944 -0.5423  0.3233 -1.8225
   25MOL   H87727805   1.829   1.656   3.936  0.2591  0.4691 -1.1160
   25MOL   H87827806   1.885   1.482   3.690 -4.1898 -1.4549 -1.7690
   25MOL   H87927807   1.878   1.649   3.681  0.7474  0.7147  1.6177
   25MOL   H88027808   1.642   1.623   3.777  0.3218 -0.8143  1.1862
   25MOL   H88127809   1.658   1.464   3.789 -2.2859  0.5649  0.7374
   25MOL   H88227810   1.716   1.460   3.530  0.8651  1.6318 -0.5278
   25MOL   H88327811   1.543   1.481   3.570  1.0682 -2.8728 -0.2446
   25MOL   H88427812   1.800   1.617   3.429 -1.0036 -0.4603  2.8982
   25MOL   H88527813   1.650   1.860   3.362  0.7807  0.0370  1.7400
   25MOL   H88627814   1.747   1.775   3.245 -1.7740 -0.2569 -0.7129
   25MOL   H88727815   1.958   1.879   3.367  0.5954  0.1591  2.2947
   25MOL   H88827816   1.854   1.909   3.491  2.8455  0.9897 -0.1534
   25MOL   H88927817   1.876   2.119   3.400  0.3239 -0.9954  0.7333
   25MOL   H89027818   1.725   2.083   3.353 -0.9006 -0.7242 -1.8192
   25MOL   H89127819   1.826   2.188   3.183  0.7422  0.9892  1.4636
   25MOL   H89227820   1.792   2.027   3.126 -1.6266 -0.1299  1.9089
   25MOL   H89327821   2.055   2.142   3.233  1.7042 -0.3924 -0.3078
   25MOL   H89427822   2.039   1.964   3.186 -0.0126 -0.0593  0.4425
   25MOL   H89527823   2.158   2.098   3.009 -0.6159  0.0343 -3.1607
   25MOL   H89627824   2.000   2.021   2.960 -1.1485  1.3879 -0.6243
   25MOL   H89727825   1.971   2.300   3.047 -1.0732  1.5815 -2.6933
   25MOL   C89827826   1.945   2.262   2.864 -0.2266  0.2397  0.0370
   25MOL   O89927827   1.942   2.179   2.774 -0.1555  0.5335  0.1626
   25MOL   C90027828   1.909   2.410   2.835 -0.6002  0.7036 -0.1870
   25MOL   C90127829   1.763   2.430   2.804  0.0551 -1.0972 -0.5121
   25MOL   C90227830   1.677   2.409   2.940  0.4361  0.0878  0.0162
   25MOL   C90327831   1.533   2.439   2.918  0.2729 -1.8063  0.1933
   25MOL   C90427832   1.505   2.588   2.904 -0.3516  0.3857  0.3923
   25MOL   C90527833   1.368   2.624   2.952  0.4160  0.0879 -0.0746
   25MOL   C90627834   1.262   2.568   2.857 -0.1121  0.3357 -0.1417
   25MOL   C90727835   1.188   2.441   2.907 -0.3336 -0.6427 -0.4617
   25MOL   C90827836   1.074   2.469   3.001 -0.0321  0.0921  0.2590
   25MOL   C90927837   1.020   2.348   3.071 -0.2278 -0.3763 -0.0056
   25MOL   C91027838   0.969   2.240   2.981 -0.3477  0.0750 -0.5877
   25MOL   O91127839   1.040   2.144   2.952 -0.1995 -0.2000 -0.1404
   25MOL   N91227840   0.836   2.246   2.948  0.0432 -0.0448  0.1086
   25MOL   C91327841   0.772   2.125   2.889  0.1777 -0.7509 -0.5364
   25MOL   C91427842   0.706   2.034   2.985  0.1797 -0.3347  0.3171
   25MOL   C91527843   0.782   2.009   3.114 -0.0029  0.9849 -0.4047
   25MOL   C91627844   0.694   1.921   3.203  0.3690 -0.2386  0.5797
   25MOL   C91727845   0.768   1.868   3.324 -0.0750  0.5292 -0.5798
   25MOL   C91827846   0.685   1.777   3.412  0.3928  0.5562  0.4755
   25MOL   N91927847   0.772   1.700   3.494 -0.3747  0.3681  0.2517
   25MOL   H92027848   1.937   2.482   2.912 -0.7430 -1.1216  1.5900
   25MOL   H92127849   1.967   2.431   2.745  0.4424 -1.2974  0.0029
   25MOL   H92227850   1.731   2.362   2.725  1.5448  1.0053 -2.9842
   25MOL   H92327851   1.739   2.531   2.772 -2.4331 -2.0502 -1.7944
   25MOL   H92427852   1.717   2.476   3.016 -0.1243 -1.3819  1.6274
   25MOL   H92527853   1.707   2.311   2.975 -1.3111 -0.5170 -0.1489
   25MOL   H92627854   1.492   2.378   2.838 -1.6744  0.1949 -0.3971
   25MOL   H92727855   1.479   2.397   3.004  0.1223 -1.8803  0.0632
   25MOL   H92827856   1.518   2.610   2.798  1.1235  1.8689  0.8635
   25MOL   H92927857   1.581   2.648   2.954 -0.2823 -1.2181  2.2898
   25MOL   H93027858   1.341   2.597   3.054  0.6186 -2.6013 -0.6888
   25MOL   H93127859   1.349   2.731   2.961  1.4658  0.5112 -2.5495
   25MOL   H93227860   1.301   2.561   2.756 -1.2388  1.1022 -0.6387
   25MOL   H93327861   1.192   2.651   2.852  2.9964  2.9200 -3.6312
   25MOL   H93427862   1.265   2.382   2.958  1.1491  1.8659  0.3310
   25MOL   H93527863   1.166   2.372   2.826  1.0682 -0.7924 -0.7334
   25MOL   H93627864   1.115   2.542   3.071 -0.5393  1.9946 -1.4055
   25MOL   H93727865   1.006   2.538   2.951  0.9707  0.7286 -0.2367
   25MOL   H93827866   1.099   2.309   3.134  0.3921  2.0135  0.7722
   25MOL   H93927867   0.942   2.376   3.142 -1.7160 -0.2476 -1.6334
   25MOL   H94027868   0.770   2.318   2.973  0.4148  0.7666 -1.1876
   25MOL   H94127869   0.843   2.063   2.834 -0.4202 -1.4850 -0.4913
   25MOL   H94227870   0.706   2.163   2.811 -0.3075  1.2294  0.7971
   25MOL   H94327871   0.610   2.080   3.010  0.4858  1.6192 -1.8933
   25MOL   H94427872   0.677   1.943   2.932  0.3321 -0.5378  0.5792
   25MOL   H94527873   0.881   1.965   3.099 -0.4925 -0.4533  0.4613
   25MOL   H94627874   0.804   2.102   3.165  0.8297  0.0399  1.0003
   25MOL   H94727875   0.655   1.835   3.148  0.2547  0.4458 -0.4334
   25MOL   H94827876   0.606   1.972   3.242  0.8530  0.8046  0.3174
   25MOL   H94927877   0.858   1.821   3.285 -0.1766  0.7299 -1.0613
   25MOL   H95027878   0.798   1.949   3.390  1.4592  0.3854 -1.0940
   25MOL   H95127879   0.625   1.711   3.349 -0.7258  2.0795 -0.0701
   25MOL   H95227880   0.625   1.843   3.474  0.0868  0.4269  0.3159
   25MOL   H95327881   0.848   1.748   3.540 -0.0057  1.4705 -1.4778
   25MOL   C95427882   0.756   1.569   3.525 -0.4388  0.4245 -0.4074
   25MOL   O95527883   0.665   1.507   3.479  0.2638 -0.0231  0.6781
   25MOL   C95627884   0.838   1.516   3.643 -0.6257 -0.2016  0.7079
   25MOL   C95727885   0.814   1.368   3.672  0.3080  0.3660  0.3249
   25MOL   C95827886   0.836   1.264   3.555 -0.8030 -0.6844  0.5590
   25MOL   C95927887   0.811   1.113   3.602 -0.1266  0.2226  0.5697
   25MOL   C96027888   0.930   1.072   3.682  0.1439 -0.2470 -0.0331
   25MOL   C96127889   0.901   0.949   3.765  0.6460  0.9274 -0.7543
   25MOL   C96227890   0.821   0.981   3.889  0.3204  0.1667  0.0183
   25MOL   C96327891   0.925   1.048   3.993  0.4057  0.1137  0.3524
   25MOL   C96427892   0.841   1.087   4.116  0.0002  0.2809 -0.6993
   25MOL   C96527893   0.913   1.131   4.250  0.0383 -0.4588  0.0835
   25MOL   C96627894   1.039   1.209   4.237  1.1957  0.9166  0.6931
   25MOL   O96727895   1.146   1.156   4.247 -0.0362 -0.1582  0.0022
   25MOL   N96827896   1.022   1.336   4.223 -0.7377  0.4291  0.2585
   25MOL   C96927897   0.914   1.427   4.189  0.8438 -0.2450  0.0577
   25MOL   C97027898   0.924   1.486   4.050 -0.1467  0.0705 -1.0938
   25MOL   C97127899   1.057   1.568   4.032  0.4113  1.1685  0.0955
   25MOL   C97227900   1.064   1.658   3.903 -0.7729  0.5313 -0.1801
   25MOL   C97327901   1.203   1.723   3.873 -0.2892  0.5886 -0.8630
   25MOL   C97427902   1.209   1.811   3.739  0.1789  0.4562  0.9169
   25MOL   N97527903   1.120   1.927   3.749  0.1192 -0.1558 -0.1461
   25MOL   H97627904   0.942   1.539   3.620 -1.0371  0.9984 -0.0422
   25MOL   H97727905   0.803   1.575   3.728  1.2635 -0.2822  1.5526
   25MOL   H97827906   0.718   1.347   3.718  1.2713 -2.9720  0.9688
   25MOL   H97927907   0.890   1.349   3.748  1.7534  1.0395 -0.9246
   25MOL   H98027908   0.756   1.278   3.483  1.1497 -2.1562 -2.0027
   25MOL   H98127909   0.924   1.280   3.493  0.7194 -0.6644  2.6921
   25MOL   H98227910   0.713   1.102   3.650 -0.8048 -1.7159 -1.1936
   25MOL   H98327911   0.813   1.050   3.513 -0.7473  0.1918  0.5721
   25MOL   H98427912   1.009   1.039   3.614 -1.5488 -2.9939 -0.7482
   25MOL   H98527913   0.963   1.160   3.737 -0.2048 -0.3154  0.2841
   25MOL   H98627914   0.845   0.877   3.705 -1.0055  3.0914 -1.8677
   25MOL   H98727915   0.993   0.896   3.790  0.2322  0.0941 -0.9470
   25MOL   H98827916   0.741   1.051   3.863  0.3837  0.8204  1.5153
   25MOL   H98927917   0.765   0.892   3.918 -0.1146 -1.0250 -4.1374
   25MOL   H99027918   1.005   0.976   4.015  0.1202 -0.5305 -0.6621
   25MOL   H99127919   0.981   1.126   3.941  1.6173  0.2742  1.8586
   25MOL   H99227920   0.780   0.999   4.137 -0.1029  0.3049 -0.8938
   25MOL   H99327921   0.771   1.160   4.075  0.3744  1.3510  0.5452
   25MOL   H99427922   0.859   1.190   4.324  3.1835  2.6052  0.0854
   25MOL   H99527923   0.939   1.032   4.288  0.5453 -0.0339  0.8745
   25MOL   H99627924   1.108   1.388   4.230 -0.7757  0.5694 -0.2741
   25MOL   H99727925   0.905   1.507   4.263 -2.1252 -0.5423  0.0775
   25MOL   H99827926   0.817   1.378   4.195 -0.6637  2.6090  0.2469
   25MOL   H99927927   0.838   1.550   4.032 -1.5696 -1.2986  0.6752
   25MOL     H127928   0.924   1.414   3.968 -0.4554 -0.7163 -0.4008
   25MOL     H227929   1.139   1.496   4.025 -0.2183  0.6861 -2.6691
   25MOL     H327930   1.062   1.635   4.118 -1.6116 -1.8526  2.6640
   25MOL     H427931   1.030   1.606   3.814  1.1928  1.3500 -1.4373
   25MOL     H527932   0.991   1.739   3.899 -3.1517 -1.6450 -2.0992
   25MOL     H627933   1.285   1.651   3.875  0.6900  1.6496 -1.6142
   25MOL     H727934   1.225   1.793   3.954 -0.2923  0.7006 -0.9582
   25MOL     H827935   1.310   1.847   3.727  0.9294 -1.9085 -0.1454
   25MOL     H927936   1.185   1.750   3.652  1.5188  1.2110  0.0062
   25MOL    H1027937   1.153   2.007   3.800 -2.8703  0.7432  0.4750
   25MOL    C1127938   0.992   1.927   3.703  0.0589  0.5692 -0.2976
   25MOL    O1227939   0.940   1.839   3.639  0.7046 -0.3878  0.5816
   25MOL    C1327940   0.908   2.048   3.744 -0.3220  0.2378 -1.0816
   25MOL    C1427941   0.747   2.034   3.729 -0.1604 -0.2231  0.3806
   25MOL    C1527942   0.688   1.936   3.836  0.5863 -0.2357 -0.2846
   25MOL    C1627943   0.540   1.944   3.854 -0.3712  0.3666  0.6671
   25MOL    C1727944   0.457   1.869   3.749  0.0071  0.0436  0.5971
   25MOL    C1827945   0.310   1.885   3.781  0.2947 -0.1457 -0.6334
   25MOL    C1927946   0.213   1.840   3.670  0.6110 -0.4645  0.0702
   25MOL    C2027947   0.065   1.863   3.724  0.6316  0.1986  0.0667
   25MOL    C2127948   7.644   1.828   3.623 -0.0682  0.1480 -0.3273
   25MOL    C2227949   7.624   1.685   3.583  0.3744  0.1135  0.2383
   25MOL    C2327950   7.604   1.589   3.698  0.4590 -0.8940  0.5601
   25MOL    O2427951   7.501   1.595   3.765  0.2157  0.1297  0.2714
   25MOL    N2527952   0.011   1.508   3.726 -0.0345  0.1989  0.3890
   25MOL    C2627953   0.045   1.455   3.861  0.3468 -0.3834  0.2483
   25MOL    C2727954   0.019   1.300   3.874  0.0506 -0.2001 -0.1257
   25MOL    C2827955   0.036   1.242   4.016  0.0104 -0.3796 -0.2502
   25MOL    C2927956   0.107   1.109   4.022  0.0504  0.2759 -0.4871
   25MOL    C3027957   0.094   1.042   4.161  0.4641  0.2590 -0.2086
   25MOL    C3127958   0.160   0.906   4.177  0.3707 -0.0072  0.0713
   25MOL    N3227959   0.299   0.922   4.203 -0.5489 -0.2511  0.6954
   25MOL    H3327960   0.943   2.128   3.679 -0.7818 -0.6533 -2.4475
   25MOL    H3427961   0.921   2.061   3.851 -0.2958  0.0713 -1.0650
   25MOL    H3527962   0.707   2.018   3.629  0.6674  1.0212 -0.1712
   25MOL    H3627963   0.715   2.132   3.763  0.2022 -0.3195  1.0295
   25MOL    H3727964   0.728   1.956   3.935 -2.0859  2.0086  0.4371
   25MOL    H3827965   0.702   1.828   3.825 -0.0587 -0.2432 -1.1531
   25MOL    H3927966   0.514   1.913   3.955  1.0756  0.9502  1.2302
   25MOL    H4027967   0.500   2.046   3.856  1.9168  1.2597  3.5825
   25MOL    H4127968   0.469   1.921   3.654  0.4584  0.7719  1.0453
   25MOL    H4227969   0.483   1.765   3.727 -0.2051  0.0855  0.1518
   25MOL    H4327970   0.293   1.817   3.864  0.0607  1.0508  0.3251
   25MOL    H4427971   0.280   1.981   3.823  0.3528 -0.0700 -0.7657
   25MOL    H4527972   0.226   1.906   3.585  1.5102  1.8833  1.9546
   25MOL    H4627973   0.224   1.735   3.644  0.5954  0.0038 -1.8431
   25MOL    H4727974   0.052   1.813   3.819 -2.2588  0.6315 -0.0713
   25MOL    H4827975   0.056   1.969   3.746 -1.2206 -0.1923  1.2300
   25MOL    H4927976   7.667   1.885   3.533  0.2045  0.3669 -0.1208
   25MOL    H5027977   7.550   1.857   3.671 -0.2529  0.3935 -0.8305
   25MOL    H5127978   7.538   1.667   3.518  0.0226 -0.7533  0.9228
   25MOL    H5227979   0.005   1.663   3.505 -0.7941  0.0226 -0.8450
   25MOL    H5327980   0.081   1.502   3.653  1.3320 -0.8461  1.7462
   25MOL    H5427981   7.669   1.497   3.935  0.3957  1.1286 -0.5519
   25MOL    H5527982   0.141   1.482   3.903  1.2472  1.3772 -2.8304
   25MOL    H5627983   0.083   1.249   3.802  1.6285  0.1306  1.0211
   25MOL    H5727984   7.610   1.280   3.835 -0.6599 -1.0194  2.0165
   25MOL    H5827985   7.627   1.233   4.058  0.2713  0.1654  0.4961
   25MOL    H5927986   0.092   1.307   4.083 -0.5212  2.1629 -2.1802
   25MOL    H6027987   0.215   1.123   4.008  0.1190  0.5058  0.2463
   25MOL    H6127988   0.065   1.037   3.951 -0.9616  1.0972 -0.7304
   25MOL    H6227989   7.680   1.042   4.189  0.2778  0.7366 -0.9065
   25MOL    H6327990   0.141   1.106   4.236  0.9228 -0.4617  0.1253
   25MOL    H6427991   0.140   0.844   4.089 -0.2507 -0.6946  0.6887
   25MOL    H6527992   0.106   0.846   4.250 -0.0063  0.4543  0.1742
   25MOL    H6627993   0.327   1.019   4.202  1.3910 -0.7897  0.1911
   25MOL    C6727994   0.392   0.833   4.224 -0.1334 -0.1879 -0.2548
   25MOL    O6827995   0.364   0.721   4.262  0.1410 -0.0990 -0.0212
   25MOL    C6927996   0.539   0.880   4.204  0.0168 -0.0087 -0.4107
   25MOL    C7027997   0.631   0.823   4.313  0.7503  0.2840 -0.3488
   25MOL    C7127998   0.635   0.909   4.439 -0.1037  0.1438 -0.0203
   25MOL    C7227999   0.703   0.834   4.552  0.0325  0.5520 -0.4822
   25MOL    C7328000   0.725   0.919   4.680  0.4333 -0.7667 -0.1060
   25MOL    C7428001   0.829   1.032   4.666  0.4143 -0.7522  0.1428
   25MOL    C7528002   0.846   1.112   4.795 -0.3406 -0.9826 -0.4181
   25MOL    C7628003   0.966   1.208   4.788  0.1503  0.5447  0.9003
   25MOL    C7728004   0.978   1.301   4.904  0.2193  1.0245 -0.3117
   25MOL    C7828005   1.120   1.356   4.900  0.6691 -0.1559 -0.7500
   25MOL    C7928006   1.132   1.476   4.984 -0.0374  0.1624 -0.3184
   25MOL    O8028007   1.118   1.468   5.103  0.1101 -0.7948 -0.4995
   25MOL    N8128008   1.175   1.590   4.927 -0.3310 -0.2343  0.2290
   25MOL    C8228009   1.186   1.732   4.984 -0.3910  0.8312 -0.5731
   25MOL    C8328010   1.089   1.825   4.910 -1.0705 -0.0541 -0.4376
   25MOL    C8428011   0.937   1.794   4.938 -0.1895  0.2898 -0.7926
   25MOL    C8528012   0.850   1.910   4.892 -0.1803 -0.5445  0.1252
   25MOL    C8628013   0.701   1.888   4.898  0.0474  0.1974 -0.3334
   25MOL    C8728014   0.621   2.020   4.851 -0.4012 -0.0020  1.1810
   25MOL    N8828015   0.479   1.994   4.859 -0.2161 -0.1510  0.2880
   25MOL    H8928016   0.551   0.989   4.205 -0.9447  0.1271 -2.2659
   25MOL    H9028017   0.576   0.851   4.106 -2.5043  1.3976 -1.8500
   25MOL    H9128018   0.593   0.725   4.342 -0.3998  1.0529  0.8262
   25MOL    H9228019   0.733   0.814   4.277  0.7189 -0.6078 -0.2286
   25MOL    H9328020   0.688   1.002   4.418  0.7646 -0.2354  0.4840
   25MOL    H9428021   0.531   0.929   4.468  0.3741  2.6648  0.0496
   25MOL    H9528022   0.652   0.743   4.582  1.2609 -0.7078 -2.1490
   25MOL    H9628023   0.794   0.788   4.516  1.0503  0.5640  1.9921
   25MOL    H9728024   0.632   0.964   4.715 -0.1780 -1.4336 -0.8621
   25MOL    H9828025   0.751   0.846   4.757 -1.4031 -0.6339  0.6715
   25MOL    H9928026   0.922   0.989   4.627  0.2977 -0.1715 -0.8040
   25MOL   H10028027   0.802   1.107   4.591  2.0646  2.7276  2.8743
   25MOL   H10128028   0.862   1.045   4.879  1.5661 -0.1583 -0.1038
   25MOL   H10228029   0.762   1.178   4.819  2.6361  2.1579  1.8434
   25MOL   H10328030   1.054   1.146   4.770 -0.7054 -0.1675 -0.9855
   25MOL   H10428031   0.967   1.265   4.695  0.4906 -4.7846 -2.5556
   25MOL   H10528032   0.955   1.256   5.001 -1.5581  0.1369 -1.1145
   25MOL   H10628033   0.894   1.371   4.896 -1.6923 -0.9191  1.9729
   25MOL   H10728034   1.186   1.279   4.941  0.1000  0.1538  0.7566
   25MOL   H10828035   1.154   1.367   4.797  0.4363  0.2181 -0.7856
   25MOL   H10928036   1.209   1.583   4.832 -2.7996 -0.5553 -0.6704
   25MOL   H11028037   1.289   1.764   4.999  0.1481 -0.2918 -1.6992
   25MOL   H11128038   1.146   1.728   5.085  0.1874  2.2331 -0.2841
   25MOL   H11228039   1.122   1.838   4.807  0.9179  0.4196  0.2411
   25MOL   H11328040   1.109   1.930   4.933  0.0362 -0.7270  1.8531
   25MOL   H11428041   0.913   1.793   5.044 -0.2059  0.7927 -0.7890
   25MOL   H11528042   0.907   1.702   4.889 -1.9986  0.3358  0.1961
   25MOL   H11628043   0.876   2.001   4.946 -0.0207  0.3484 -1.4218
   25MOL   H11728044   0.883   1.925   4.789 -1.5101 -0.2190 -0.2653
   25MOL   H11828045   0.662   1.816   4.827  0.9191  1.8958 -2.5935
   25MOL   H11928046   0.671   1.866   5.001 -0.9558 -1.2640 -0.9298
   25MOL   H12028047   0.648   2.105   4.914 -0.7696  0.8896  0.1564
   25MOL   H12128048   0.649   2.042   4.748  1.3690  0.4808  1.7367
   25MOL   H12228049   0.421   2.074   4.835 -2.3974 -1.7248  0.1658
   25MOL   H12328050   0.456   1.963   4.952 -0.8156 -0.3481  0.0778
   26MOL     C128051   3.663   3.026   6.575  0.6735 -0.5181 -0.5289
   26MOL     O228052   3.743   3.121   6.579 -0.4300  0.3254  0.3051
   26MOL     C328053   3.602   2.987   6.443 -0.3842 -0.3261  0.8915
   26MOL     C428054   3.589   3.101   6.334 -0.2333 -0.6646 -0.0960
   26MOL     C528055   3.517   3.053   6.206 -0.6820  0.6410  0.1500
   26MOL     C628056   3.460   3.165   6.129  0.5671 -0.3276  0.2498
   26MOL     C728057   3.433   3.124   5.981 -0.3732  0.5600 -0.7954
   26MOL     C828058   3.352   3.229   5.901  0.3916 -0.2218 -0.1592
   26MOL     C928059   3.324   3.200   5.756 -0.2470 -0.0943  0.1024
   26MOL    C1028060   3.253   3.311   5.680 -0.1846  0.0251 -0.1063
   26MOL    C1128061   3.103   3.281   5.632 -0.3141 -0.2241 -0.4857
   26MOL    C1228062   3.025   3.405   5.588 -0.3274 -0.1609 -0.1619
   26MOL    C1328063   2.987   3.502   5.702 -0.1310  0.1215 -0.3754
   26MOL    O1428064   3.009   3.477   5.817 -0.2409  0.3151 -0.0513
   26MOL    N1528065   2.922   3.612   5.668  0.2769 -0.4826  0.0727
   26MOL    C1628066   2.892   3.725   5.757 -0.5285  0.3353 -0.4673
   26MOL    C1728067   2.984   3.840   5.745  0.8164  0.2015 -0.1949
   26MOL    C1828068   2.948   3.965   5.820  0.4128  0.2874  0.0583
   26MOL    C1928069   3.040   4.078   5.769 -0.9125 -0.3846 -0.1117
   26MOL    C2028070   2.997   4.229   5.810 -0.6337 -0.5532  0.8832
   26MOL    C2128071   3.075   4.338   5.738 -0.0836  0.2989  0.3295
   26MOL    N2228072   3.013   4.471   5.753  0.7001 -0.0358 -0.0105
   26MOL    H2328073   3.498   2.958   6.459 -0.3425  0.1563  2.0898
   26MOL    H2428074   3.660   2.903   6.406  0.9500  2.1799 -3.0643
   26MOL    H2528075   3.687   3.128   6.294 -0.0413  1.3334  1.6286
   26MOL    H2628076   3.543   3.191   6.375  1.7066 -0.4800  1.7747
   26MOL    H2728077   3.432   2.988   6.227 -0.2238 -1.0267 -2.7467
   26MOL    H2828078   3.571   2.995   6.130 -2.0350 -0.4712  0.0165
   26MOL    H2928079   3.370   3.195   6.183  0.6756 -1.1866  0.9292
   26MOL    H3028080   3.515   3.258   6.123 -1.8165  1.0306 -1.0972
   26MOL    H3128081   3.378   3.030   5.974 -0.6828  0.7241 -0.5666
   26MOL    H3228082   3.528   3.104   5.933  0.0812 -1.0746  0.7431
   26MOL    H3328083   3.262   3.248   5.959  1.5717 -0.9580  1.9506
   26MOL    H3428084   3.394   3.330   5.910 -2.4356  0.7936  2.2891
   26MOL    H3528085   3.425   3.177   5.720 -1.2874 -3.3767 -0.8961
   26MOL    H3628086   3.264   3.110   5.745  2.0386 -1.5477 -0.9387
   26MOL    H3728087   3.252   3.397   5.747  1.8109  1.4883 -1.8713
   26MOL    H3828088   3.311   3.342   5.593 -2.4227  0.9597 -1.3227
   26MOL    H3928089   3.040   3.232   5.706 -2.0664  2.4837 -0.1124
   26MOL    H4028090   3.106   3.209   5.550  0.4068  0.2176 -0.8565
   26MOL    H4128091   3.091   3.462   5.522 -1.8185  0.9212 -0.7486
   26MOL    H4228092   2.941   3.369   5.529  0.2541 -0.2111 -0.9658
   26MOL    H4328093   2.897   3.606   5.570 -0.9811  1.4360  0.2480
   26MOL    H4428094   2.894   3.681   5.857 -2.2699  1.0253 -0.0973
   26MOL    H4528095   2.793   3.755   5.722  0.2950  0.9280 -2.3575
   26MOL    H4628096   3.002   3.870   5.642  0.3333 -0.1008 -0.3701
   26MOL    H4728097   3.080   3.809   5.785 -0.1406 -2.0273  0.4258
   26MOL    H4828098   2.846   3.994   5.793  0.2920 -0.3280 -0.1468
   26MOL    H4928099   2.963   3.959   5.928  2.1484  0.4377 -0.1677
   26MOL    H5028100   3.048   4.074   5.660  1.8438 -2.5871  0.0976
   26MOL    H5128101   3.141   4.060   5.806 -1.0157 -1.4116 -0.3157
   26MOL    H5228102   2.892   4.244   5.786 -0.1930  0.7156 -0.3449
   26MOL    H5328103   3.007   4.241   5.918  0.9623  2.0050  0.4946
   26MOL    H5428104   3.171   4.369   5.778 -1.1274  2.1727  1.4137
   26MOL    H5528105   3.094   4.309   5.634  0.7919  0.7978  0.3466
   26MOL    H5628106   3.003   4.497   5.850  0.9623  0.7906 -0.2023
   26MOL    H5728107   3.636   2.962   6.659  4.5611  1.0670  2.0470
   26MOL    C5828108   2.964   4.554   5.659  0.7940  0.0354  0.2952
   26MOL    O5928109   2.978   4.524   5.536  0.2952  0.5153  0.1995
   26MOL    C6028110   2.878   4.678   5.702  0.0562  0.7319 -0.4368
   26MOL    C6128111   2.875   4.798   5.613  0.4847  0.3819  0.1160
   26MOL    C6228112   2.774   4.900   5.672 -0.4395 -0.5933 -0.3231
   26MOL    C6328113   2.758   5.033   5.591  0.7958  0.4353 -0.5651
   26MOL    C6428114   2.648   5.115   5.646  0.4701 -0.5929  0.2937
   26MOL    C6528115   2.620   5.245   5.556  0.1944 -0.3947  0.6870
   26MOL    C6628116   2.484   5.326   5.596 -0.3848  0.3912 -0.1007
   26MOL    C6728117   2.466   5.456   5.521 -0.1805 -0.2448 -0.5490
   26MOL    C6828118   2.427   5.437   5.375 -0.3523  0.5907 -0.5305
   26MOL    C6928119   2.431   5.560   5.280 -0.3295 -0.2439 -0.4299
   26MOL    C7028120   2.574   5.604   5.253  0.1450 -0.0869 -0.1215
   26MOL    O7128121   2.629   5.687   5.318 -0.0923 -0.3937  0.1169
   26MOL    N7228122   2.635   5.538   5.151  0.8909  0.3397  0.3808
   26MOL    C7328123   2.772   5.541   5.104  0.3089 -0.2094 -0.2246
   26MOL    C7428124   2.855   5.465   5.206 -0.0554 -0.0094 -0.7475
   26MOL    C7528125   2.836   5.313   5.212  0.9106 -0.2515 -0.6915
   26MOL    C7628126   2.936   5.237   5.300 -0.1451  0.5276  0.1369
   26MOL    C7728127   3.067   5.200   5.232 -0.2608  0.6256 -0.0570
   26MOL    C7828128   3.179   5.154   5.321 -0.5775  0.1701  0.2306
   26MOL    N7928129   3.299   5.132   5.242 -0.5510 -0.0793  0.1445
   26MOL    H8028130   2.891   4.705   5.807 -1.8617 -1.8165  0.4959
   26MOL    H8128131   2.777   4.639   5.698  0.1094  0.5893 -0.3824
   26MOL    H8228132   2.967   4.853   5.597  0.7083 -0.2809 -0.9198
   26MOL    H8328133   2.839   4.765   5.516 -0.6258  1.1197  0.2660
   26MOL    H8428134   2.800   4.925   5.775 -0.7415 -0.9706 -0.1529
   26MOL    H8528135   2.678   4.847   5.676  0.3752 -2.1513 -0.8547
   26MOL    H8628136   2.735   5.006   5.488  1.4038 -1.2647 -0.2576
   26MOL    H8728137   2.849   5.093   5.596  1.1048  0.0061 -0.9786
   26MOL    H8828138   2.554   5.060   5.655  1.8651 -3.1580 -0.1146
   26MOL    H8928139   2.663   5.157   5.745 -1.2895  2.5088 -0.7020
   26MOL    H9028140   2.622   5.210   5.453 -0.0342  1.2911  0.1049
   26MOL    H9128141   2.699   5.319   5.559 -0.2756  0.1851 -0.7025
   26MOL    H9228142   2.493   5.347   5.703 -0.8839 -1.3582  0.2934
   26MOL    H9328143   2.397   5.261   5.590  0.7275 -1.0198 -1.1656
   26MOL    H9428144   2.407   5.528   5.577 -1.2750 -1.5968  0.0655
   26MOL    H9528145   2.565   5.501   5.515 -0.5618  0.7627  0.6438
   26MOL    H9628146   2.323   5.404   5.381  0.0877 -0.5543  1.4296
   26MOL    H9728147   2.493   5.366   5.325  0.6710  2.1612 -1.4506
   26MOL    H9828148   2.391   5.529   5.183  0.6715 -3.2056  0.0467
   26MOL    H9928149   2.385   5.650   5.319 -1.0424 -0.6088 -0.4265
   26MOL   H10028150   2.587   5.461   5.107 -0.8988  0.9704  1.1861
   26MOL   H10128151   2.800   5.647   5.105  1.8947 -0.5831 -1.8969
   26MOL   H10228152   2.781   5.497   5.005  0.4007  0.7405 -0.6506
   26MOL   H10328153   2.957   5.490   5.177  0.9888  0.7478  3.2537
   26MOL   H10428154   2.866   5.509   5.306  0.1303  0.1079 -0.8184
   26MOL   H10528155   2.842   5.279   5.109  0.1101  1.4898 -1.3291
   26MOL   H10628156   2.732   5.300   5.241  1.2386 -0.9315  0.2380
   26MOL   H10728157   2.974   5.291   5.387 -1.4472 -0.1449  1.1399
   26MOL   H10828158   2.892   5.149   5.346 -0.3629  0.8076  0.4694
   26MOL   H10928159   3.093   5.285   5.169  0.1001 -0.1788 -1.0101
   26MOL   H11028160   3.040   5.120   5.163 -0.6918  1.9489 -1.4446
   26MOL   H11128161   3.144   5.061   5.365 -1.6167  0.3908 -0.1033
   26MOL   H11228162   3.199   5.230   5.397  1.1294  1.7987 -1.7862
   26MOL   H11328163   3.297   5.048   5.185  1.8052 -0.8945  1.2152
   26MOL   C11428164   3.411   5.212   5.255  0.2536  0.2744 -0.2618
   26MOL   O11528165   3.402   5.321   5.313  0.1818 -0.0341  0.2597
   26MOL   C11628166   3.545   5.172   5.190  0.1610 -0.4776  0.5981
   26MOL   C11728167   3.645   5.292   5.158 -0.0586  0.1778 -0.1596
   26MOL   C11828168   3.767   5.236   5.073  0.4021 -1.0040 -0.6276
   26MOL   C11928169   3.865   5.346   5.018  1.1492 -0.3576 -0.0972
   26MOL   C12028170   3.951   5.423   5.125 -0.3547 -0.4349 -0.1986
   26MOL   C12128171   4.063   5.520   5.086 -0.5862 -0.7376  0.4514
   26MOL   C12228172   4.184   5.441   5.017  0.0893  0.0562 -0.9781
   26MOL   C12328173   4.265   5.346   5.111  1.0786 -0.6369 -0.3334
   26MOL   C12428174   4.304   5.207   5.067  0.1272  0.8952  0.1526
   26MOL   C12528175   4.179   5.115   5.068 -0.6397 -0.1049 -0.5504
   26MOL   C12628176   4.153   5.038   5.196  0.1017  0.9008 -0.3162
   26MOL   O12728177   4.201   5.082   5.302 -0.4546  0.5824  0.1112
   26MOL   N12828178   4.090   4.919   5.178  0.1683 -0.1500 -0.0825
   26MOL   C12928179   4.047   4.839   5.286  0.1074 -0.8885 -0.0801
   26MOL   C13028180   3.898   4.854   5.325 -0.6471 -0.4135  0.3391
   26MOL   C13128181   3.798   4.795   5.220 -0.5596 -0.0014 -0.4094
   26MOL   C13228182   3.686   4.712   5.276 -0.6021  0.7550  0.3720
   26MOL   C13328183   3.577   4.668   5.174 -0.4879  0.0937  0.3332
   26MOL   C13428184   3.489   4.778   5.117  0.2880 -0.5164 -0.1198
   26MOL   N13528185   3.366   4.730   5.054  0.2245 -0.4559  0.1152
   26MOL   H13628186   3.581   5.108   5.270 -1.2038  0.3363  1.8952
   26MOL   H13728187   3.523   5.108   5.104  0.4886 -1.4460  1.2366
   26MOL   H13828188   3.682   5.344   5.246  0.9872 -1.1562  0.2139
   26MOL   H13928189   3.591   5.366   5.099 -0.2727 -0.5039 -0.8332
   26MOL   H14028190   3.833   5.177   5.137 -0.0748  0.6291  1.4427
   26MOL   H14128191   3.725   5.182   4.988 -0.3338 -0.6886 -0.4715
   26MOL   H14228192   3.927   5.311   4.936 -0.2705 -0.4270 -1.1628
   26MOL   H14328193   3.809   5.426   4.969  2.5963 -1.2390 -3.3332
   26MOL   H14428194   3.879   5.497   5.160  0.9765  1.7744 -2.0000
   26MOL   H14528195   3.973   5.355   5.207  1.3844  0.8279  0.3939
   26MOL   H14628196   4.099   5.570   5.176  1.3989 -3.6569  1.3315
   26MOL   H14728197   4.019   5.596   5.020 -1.1391 -0.1768  1.4498
   26MOL   H14828198   4.151   5.381   4.932  0.5577 -0.0291 -1.1054
   26MOL   H14928199   4.253   5.519   4.984 -1.1000  1.2453 -0.6612
   26MOL   H15028200   4.215   5.337   5.207 -1.3797 -0.2557 -1.5311
   26MOL   H15128201   4.357   5.400   5.132  2.4949 -3.0013 -0.2233
   26MOL   H15228202   4.374   5.167   5.140 -0.3017 -0.4169 -0.1400
   26MOL   H15328203   4.363   5.196   4.977  0.6211 -0.1357  0.5956
   26MOL   H15428204   4.191   5.034   4.996  0.2045 -0.8219  0.3681
   26MOL   H15528205   4.086   5.168   5.048 -1.1949  0.3966  3.0326
   26MOL   H15628206   4.062   4.889   5.086  0.0526 -2.3771  0.6536
   26MOL   H15728207   4.100   4.862   5.378  0.1002 -1.9747  0.2120
   26MOL   H15828208   4.074   4.739   5.251  2.3107  0.1842 -1.5258
   26MOL   H15928209   3.884   4.962   5.333 -0.2096 -0.3616  0.4233
   26MOL   H16028210   3.878   4.816   5.425  2.0435  0.5236  1.2740
   26MOL   H16128211   3.759   4.880   5.164 -1.0161  0.4884  0.6446
   26MOL   H16228212   3.857   4.738   5.148  0.7622 -0.0828  0.7207
   26MOL   H16328213   3.728   4.629   5.332 -0.2955 -0.2262 -1.2768
   26MOL   H16428214   3.643   4.769   5.358 -2.3039  0.4889 -0.3049
   26MOL   H16528215   3.511   4.595   5.220  0.3849 -0.6589  0.4126
   26MOL   H16628216   3.620   4.616   5.088  0.0288 -0.5488  0.9739
   26MOL   H16728217   3.468   4.845   5.201  3.5009  0.4811 -0.0263
   26MOL   H16828218   3.547   4.841   5.049  1.6658 -0.5164  1.0214
   26MOL   H16928219   3.355   4.632   5.075  0.5556 -0.2631  1.2045
   26MOL   C17028220   3.257   4.810   5.038 -0.3611 -0.1341 -0.0736
   26MOL   O17128221   3.262   4.929   5.058 -0.3285  0.0741  0.3598
   26MOL   C17228222   3.131   4.742   5.008 -0.3262  0.3992  0.3589
   26MOL   C17328223   3.018   4.833   4.960 -0.2287  0.4255  0.3351
   26MOL   C17428224   3.039   4.893   4.820  0.3506  0.9129  0.7252
   26MOL   C17528225   2.913   4.947   4.743 -0.3007  0.4271 -0.0313
   26MOL   C17628226   2.846   5.070   4.809  0.4548 -0.7944  0.9507
   26MOL   C17728227   2.721   5.131   4.743 -0.4681 -0.2510 -0.5923
   26MOL   C17828228   2.702   5.274   4.791 -0.2100 -0.0619 -0.2306
   26MOL   C17928229   2.571   5.339   4.745  0.7858  0.1829  0.3235
   26MOL   C18028230   2.565   5.491   4.784  0.1831 -0.0389 -0.4756
   26MOL   C18128231   2.677   5.588   4.737  0.2497  0.1739 -0.4178
   26MOL   C18228232   2.667   5.623   4.587 -0.3149  0.5018  0.8549
   26MOL   O18328233   2.562   5.676   4.547 -0.3136 -0.0740 -0.0714
   26MOL   N18428234   2.768   5.599   4.505  0.0940  0.0796  0.0935
   26MOL   C18528235   2.768   5.611   4.359  0.3657  0.2226  1.0268
   26MOL   C18628236   2.743   5.475   4.295 -0.4009 -0.6546  0.0645
   26MOL   C18728237   2.602   5.409   4.316 -1.0584 -0.1547  0.1002
   26MOL   C18828238   2.571   5.281   4.233 -0.4945 -0.0677  0.6958
   26MOL   C18928239   2.651   5.162   4.288  0.6847  0.3032  0.1507
   26MOL   C19028240   2.598   5.026   4.229  0.4003 -0.3288  0.4680
   26MOL   N19128241   2.641   4.917   4.313  0.1995  0.2214  0.3530
   26MOL   H19228242   3.149   4.662   4.937 -2.6230 -1.1220  1.4136
   26MOL   H19328243   3.100   4.687   5.097  0.5300  2.4764  1.9905
   26MOL   H19428244   2.985   4.902   5.037  0.9647  1.9403 -0.4862
   26MOL   H19528245   2.938   4.759   4.953 -0.8578  1.0430  0.9168
   26MOL   H19628246   3.077   4.817   4.752 -0.3519 -0.4095  1.7671
   26MOL   H19728247   3.121   4.962   4.839 -0.5940  1.9467  1.1567
   26MOL   H19828248   2.952   4.984   4.649 -1.0688 -1.2323 -1.0155
   26MOL   H19928249   2.843   4.865   4.724  0.9399 -0.1756 -2.1384
   26MOL   H20028250   2.832   5.049   4.915  3.0318  1.5067  1.8087
   26MOL   H20128251   2.926   5.142   4.829  1.2390 -1.3352 -0.1965
   26MOL   H20228252   2.628   5.076   4.758 -0.3044 -0.2366  0.5286
   26MOL   H20328253   2.739   5.127   4.636 -0.7342 -2.3180 -0.5697
   26MOL   H20428254   2.730   5.293   4.894 -1.8151  2.8811 -0.2894
   26MOL   H20528255   2.783   5.323   4.736  1.9641 -4.0753 -0.8746
   26MOL   H20628256   2.554   5.338   4.637 -0.3493 -0.1335  0.4914
   26MOL   H20728257   2.484   5.285   4.781  1.3140 -0.1644  1.0747
   26MOL   H20828258   2.548   5.495   4.891  1.3560  4.1995 -0.3574
   26MOL   H20928259   2.481   5.537   4.731  1.3538  0.5169 -1.8860
   26MOL   H21028260   2.681   5.685   4.787 -0.9021 -1.0804  2.2231
   26MOL   H21128261   2.779   5.555   4.758  1.1250  2.2915 -1.1663
   26MOL   H21228262   2.852   5.592   4.561 -0.2618  0.7878  0.7252
   26MOL   H21328263   2.864   5.658   4.338 -0.3049  1.5925  0.9353
   26MOL   H21428264   2.692   5.686   4.334  1.0069  0.5904  0.1784
   26MOL   H21528265   2.744   5.494   4.188  1.7214  2.6153  0.5851
   26MOL   H21628266   2.818   5.400   4.319  1.5438  1.0585 -0.5404
   26MOL   H21728267   2.577   5.403   4.422  0.0949  0.5016  0.4109
   26MOL   H21828268   2.536   5.492   4.291  1.0057  2.2694  2.3609
   26MOL   H21928269   2.605   5.291   4.130 -3.9255 -0.9376 -0.5702
   26MOL   H22028270   2.464   5.264   4.237 -0.7830  1.6558  0.8393
   26MOL   H22128271   2.645   5.154   4.397  1.5654 -1.7490  0.0695
   26MOL   H22228272   2.760   5.161   4.283  0.7442  0.7882  1.1419
   26MOL   H22328273   2.639   5.015   4.129  1.5083 -0.5828  0.9333
   26MOL   H22428274   2.490   5.029   4.214  0.6789  1.2847 -1.4716
   26MOL   H22528275   2.611   4.920   4.409 -0.6899 -0.9381  0.1238
   26MOL   C22628276   2.736   4.827   4.293  0.6401  0.1326  0.4186
   26MOL   O22728277   2.809   4.822   4.197 -0.1025 -0.1618 -0.1961
   26MOL   C22828278   2.759   4.721   4.406  0.0905 -0.7576  0.0494
   26MOL   C22928279   2.870   4.616   4.381 -0.3346 -0.4471 -0.7646
   26MOL   C23028280   2.894   4.523   4.502  0.0069 -0.1825 -0.9437
   26MOL   C23128281   2.989   4.405   4.480 -0.8108  0.0498  0.0936
   26MOL   C23228282   3.020   4.330   4.609  0.2175 -0.6969  0.3920
   26MOL   C23328283   3.117   4.403   4.709  0.4716 -0.3099  1.1465
   26MOL   C23428284   3.202   4.322   4.801  0.8624 -0.1241 -0.0545
   26MOL   C23528285   3.122   4.213   4.874 -0.7943  0.1352 -0.3961
   26MOL   C23628286   3.221   4.142   4.971 -0.0676 -0.5833 -0.3360
   26MOL   C23728287   3.146   4.042   5.069 -0.8470 -0.5762  0.6436
   26MOL   C23828288   3.187   3.901   5.038 -0.4236  0.1893 -0.5487
   26MOL   O23928289   3.188   3.861   4.921  0.0474 -0.2966  0.1503
   26MOL   N24028290   3.216   3.833   5.153  0.3034 -0.0768 -0.4724
   26MOL   C24128291   3.235   3.689   5.167  0.2367 -0.5801  0.1353
   26MOL   C24228292   3.097   3.612   5.165 -0.3704  0.5549  0.3965
   26MOL   C24328293   3.113   3.458   5.165 -0.0002 -0.7692 -1.0633
   26MOL   C24428294   2.971   3.389   5.147  0.0248 -0.4591  0.1208
   26MOL   C24528295   2.983   3.234   5.176 -0.4321 -0.4132 -0.3143
   26MOL   C24628296   2.850   3.166   5.165 -0.0406 -0.3531 -1.0023
   26MOL   N24728297   2.770   3.188   5.041  0.2254 -0.0844 -0.1145
   26MOL   H24828298   2.662   4.672   4.424  0.3737 -0.9845  0.9852
   26MOL   H24928299   2.785   4.770   4.499  2.9173 -1.3806 -0.3669
   26MOL   H25028300   2.840   4.562   4.291 -0.1591  1.1549 -1.8078
   26MOL   H25128301   2.958   4.673   4.352 -0.2331 -0.2500 -0.0799
   26MOL   H25228302   2.948   4.585   4.574  1.2605 -0.2984 -1.7584
   26MOL   H25328303   2.805   4.497   4.560  0.7240  0.3708  0.4165
   26MOL   H25428304   3.082   4.442   4.436 -0.3144  0.9174  1.8068
   26MOL   H25528305   2.944   4.331   4.415 -0.4519 -0.8600  0.8724
   26MOL   H25628306   3.071   4.240   4.575 -0.6612 -1.5534  1.3327
   26MOL   H25728307   2.935   4.318   4.675  0.3719  0.7981  0.8856
   26MOL   H25828308   3.180   4.471   4.652 -0.1755  0.1063  0.9132
   26MOL   H25928309   3.066   4.472   4.776 -0.8210 -0.7535  0.6347
   26MOL   H26028310   3.259   4.380   4.874 -1.8034 -1.3500  3.1460
   26MOL   H26128311   3.271   4.272   4.733  0.0278 -1.3953  0.0303
   26MOL   H26228312   3.037   4.259   4.925  1.3793  2.2223  1.4474
   26MOL   H26328313   3.080   4.139   4.806 -3.4873  1.0595  0.1907
   26MOL   H26428314   3.298   4.096   4.909  0.4413 -1.2762  0.8007
   26MOL   H26528315   3.267   4.213   5.039 -0.4355  0.3174 -1.0157
   26MOL   H26628316   3.154   4.069   5.174  1.1794 -1.6768  0.8080
   26MOL   H26728317   3.042   4.044   5.039 -0.3631 -2.1029 -1.2623
   26MOL   H26828318   3.218   3.887   5.239  1.4128 -2.9131  1.3677
   26MOL   H26928319   3.278   3.664   5.264  1.4404  0.3874 -0.1263
   26MOL   H27028320   3.300   3.646   5.090  2.5900  2.0809  0.5134
   26MOL   H27128321   3.041   3.649   5.079 -0.0170  0.1776  0.0057
   26MOL   H27228322   3.042   3.623   5.259 -2.5627 -2.5644 -0.4116
   26MOL   H27328323   3.188   3.426   5.093  1.6701  1.9548 -0.6264
   26MOL   H27428324   3.160   3.422   5.257  0.8128  0.1357 -1.1030
   26MOL   H27528325   2.924   3.419   5.054  0.4649  0.5839  0.2257
   26MOL   H27628326   2.905   3.430   5.225 -0.5717 -0.1519 -0.5425
   26MOL   H27728327   3.024   3.210   5.274 -1.3724  0.5645  0.3378
   26MOL   H27828328   3.057   3.200   5.104 -0.9204 -1.7903 -0.1736
   26MOL   H27928329   2.800   3.193   5.258 -0.1638 -2.3526 -0.4684
   26MOL   H28028330   2.856   3.058   5.181  0.6409 -0.2020 -0.1905
   26MOL   H28128331   2.690   3.247   5.060 -0.1211 -0.7164  0.4315
   26MOL   C28228332   2.783   3.150   4.913 -0.4044 -0.1083 -0.7000
   26MOL   O28328333   2.869   3.072   4.877  0.1334 -0.4551 -0.7982
   26MOL   C28428334   2.670   3.192   4.820  0.0828 -0.1177  0.0300
   26MOL   C28528335   2.717   3.306   4.744 -0.1306 -0.2062  0.7986
   26MOL   C28628336   2.604   3.385   4.676 -0.3859 -0.4509 -0.1065
   26MOL   C28728337   2.640   3.485   4.573  0.5592 -0.3194  0.0271
   26MOL   C28828338   2.519   3.559   4.510 -0.3895  0.4612 -1.0773
   26MOL   C28928339   2.542   3.655   4.388 -0.2821  0.1937  0.4356
   26MOL   C29028340   2.409   3.711   4.328 -0.7355 -0.0996  0.2858
   26MOL   C29128341   2.439   3.801   4.216  0.2026 -0.4164  0.1317
   26MOL   C29228342   2.326   3.905   4.172  0.7221  0.1419 -0.3640
   26MOL   C29328343   2.299   4.019   4.276 -0.1301  0.0431 -0.3455
   26MOL   C29428344   2.247   4.147   4.207 -0.6743 -0.9573 -0.4086
   26MOL   O29528345   2.305   4.196   4.110 -0.1095  0.2615 -0.5465
   26MOL   N29628346   2.134   4.202   4.258  0.5520  0.2135  0.1432
   26MOL   C29728347   2.074   4.325   4.206 -0.1882  0.3375  0.0558
   26MOL   C29828348   1.954   4.353   4.295  0.4864 -0.1019 -0.0851
   26MOL   C29928349   1.902   4.490   4.275  0.4340 -0.4599  0.0706
   26MOL   C30028350   1.818   4.509   4.150  0.1935 -0.7387 -0.0151
   26MOL   C30128351   1.781   4.654   4.121  0.2813  0.9199  0.4536
   26MOL   C30228352   1.726   4.668   3.979 -0.7675 -0.4882 -0.1608
   26MOL   N30328353   1.706   4.805   3.944  0.3685  0.4029  0.3205
   26MOL   H30428354   2.639   3.106   4.759 -0.6357  0.7565 -0.8545
   26MOL   H30528355   2.583   3.215   4.881  0.7671  1.2696  0.4885
   26MOL   H30628356   2.794   3.284   4.670 -0.8211 -1.7646  0.5365
   26MOL   H30728357   2.763   3.372   4.818  0.0865 -1.4759  1.8190
   26MOL   H30828358   2.549   3.316   4.611  0.4751 -1.7730  0.5464
   26MOL   H30928359   2.543   3.431   4.753  1.9090  2.1717  0.2279
   26MOL   H31028360   2.692   3.431   4.494  1.7430  0.1323  0.4824
   26MOL   H31128361   2.705   3.563   4.613  1.8434 -2.0387  1.3625
   26MOL   H31228362   2.445   3.482   4.485 -1.3160  0.8526  0.3596
   26MOL   H31328363   2.468   3.614   4.590  0.9521  0.1504  0.0021
   26MOL   H31428364   2.599   3.743   4.419 -2.2053  1.0682  1.6172
   26MOL   H31528365   2.597   3.595   4.316 -0.4977  0.0169  0.4200
   26MOL   H31628366   2.364   3.775   4.403  0.4314 -0.9454  1.7419
   26MOL   H31728367   2.344   3.628   4.300 -0.8908 -0.1674  0.8356
   26MOL   H31828368   2.457   3.760   4.117 -1.3074  0.3938 -0.4976
   26MOL   H31928369   2.527   3.860   4.238 -1.3495  1.6000  1.1424
   26MOL   H32028370   2.344   3.946   4.073  1.1519 -1.1873 -0.8480
   26MOL   H32128371   2.230   3.854   4.159 -0.5459  1.5823  2.8446
   26MOL   H32228372   2.235   3.986   4.357  0.4526 -0.9682 -0.2833
   26MOL   H32328373   2.399   4.046   4.311  0.7643  1.3223 -3.6300
   26MOL   H32428374   2.070   4.147   4.315 -0.1822 -0.2584 -1.1104
   26MOL   H32528375   2.033   4.290   4.112  0.1534 -1.7890  0.6728
   26MOL   H32628376   2.131   4.415   4.184 -1.0624  0.5731 -1.3561
   26MOL   H32728377   1.999   4.340   4.394  0.0977  1.4107  0.3081
   26MOL   H32828378   1.880   4.274   4.289  1.1371 -0.6010 -2.0586
   26MOL   H32928379   1.983   4.561   4.262 -1.6248  1.4124 -2.9561
   26MOL   H33028380   1.838   4.520   4.359 -0.9183 -0.1449 -1.0641
   26MOL   H33128381   1.870   4.466   4.064  1.1267  0.1661  0.0806
   26MOL   H33228382   1.727   4.451   4.167 -0.1539 -0.0028  0.6704
   26MOL   H33328383   1.871   4.713   4.136  0.6911  0.0370  1.5116
   26MOL   H33428384   1.705   4.682   4.194 -2.1476  0.3795 -1.7958
   26MOL   H33528385   1.800   4.614   3.920 -0.3672 -0.9880  0.7926
   26MOL   H33628386   1.640   4.603   3.971 -0.8345 -0.2922 -1.0712
   26MOL   H33728387   1.657   4.855   4.017  0.5452 -0.2275  0.8724
   26MOL   C33828388   1.751   4.885   3.849 -0.4596 -0.6672  0.5742
   26MOL   O33928389   1.843   4.859   3.767  0.5322  0.5276 -0.1858
   26MOL   C34028390   1.699   5.030   3.837 -0.0835 -0.1830  0.1875
   26MOL   C34128391   1.593   5.038   3.720 -0.1735  0.0281  0.4442
   26MOL   C34228392   1.466   4.963   3.744 -0.3440  1.4803 -0.2931
   26MOL   C34328393   1.460   4.828   3.667 -0.3031 -0.2959 -0.6728
   26MOL   C34428394   1.328   4.752   3.674 -0.4308  0.2458  0.8021
   26MOL   C34528395   1.321   4.622   3.586 -0.1448  0.8795 -0.1071
   26MOL   C34628396   1.434   4.526   3.625 -0.2336  0.2843 -0.9747
   26MOL   C34728397   1.451   4.402   3.531 -0.2820  0.4020 -0.1312
   26MOL   C34828398   1.496   4.266   3.589 -0.0233 -0.5224 -0.4282
   26MOL   C34928399   1.652   4.239   3.613  0.2132  0.1991  0.2740
   26MOL   C35028400   1.722   4.355   3.678 -0.1022 -0.6019  0.3690
   26MOL   O35128401   1.668   4.421   3.769  0.5746 -0.1908 -0.4350
   26MOL   N35228402   1.843   4.393   3.629 -0.0120  1.0972 -0.3344
   26MOL   C35328403   1.914   4.518   3.674  0.6464  0.4411 -0.7791
   26MOL   C35428404   2.027   4.500   3.780 -0.6883 -0.2390  0.7145
   26MOL   C35528405   2.124   4.389   3.737 -0.8277 -0.2133 -0.4021
   26MOL   C35628406   2.254   4.404   3.815  0.0469 -0.2421  0.1441
   26MOL   C35728407   2.358   4.296   3.773 -0.2959  0.7977 -0.1036
   26MOL   C35828408   2.503   4.323   3.829  0.4131 -0.0133  0.1857
   26MOL   N35928409   2.517   4.312   3.973 -0.3045  0.7927 -0.1137
   26MOL   H36028410   1.772   5.108   3.818  1.1212 -1.0965  1.0342
   26MOL   H36128411   1.659   5.057   3.935  1.2953 -1.5799  1.1431
   26MOL   H36228412   1.568   5.140   3.690 -0.9146 -0.4410 -0.5611
   26MOL   H36328413   1.642   5.016   3.625 -0.6783  2.7338 -0.4872
   26MOL   H36428414   1.383   5.012   3.692 -0.1201  1.1553 -0.9632
   26MOL   H36528415   1.436   4.948   3.848 -0.1262  1.8398 -0.1801
   26MOL   H36628416   1.490   4.830   3.562 -2.0286  0.4915 -1.1725
   26MOL   H36728417   1.520   4.754   3.720  0.3073  0.6833  0.0117
   26MOL   H36828418   1.312   4.734   3.780 -0.5618  1.2984  0.9749
   26MOL   H36928419   1.251   4.824   3.645  0.7587  2.2106  2.4066
   26MOL   H37028420   1.229   4.565   3.599  0.2826  0.5593  1.6353
   26MOL   H37128421   1.333   4.636   3.479  0.2221 -0.5734 -0.2642
   26MOL   H37228422   1.530   4.577   3.633 -1.1867  1.9246  0.4292
   26MOL   H37328423   1.418   4.487   3.726 -0.9611  0.4644 -1.0179
   26MOL   H37428424   1.355   4.394   3.480 -0.4034  0.5602  0.0727
   26MOL   H37528425   1.517   4.426   3.447  1.0916 -2.1204  0.1971
   26MOL   H37628426   1.460   4.192   3.517  0.2798  0.3711 -1.5001
   26MOL   H37728427   1.458   4.243   3.689 -0.7355  3.4913  0.3097
   26MOL   H37828428   1.669   4.140   3.655 -1.8488  0.3345  1.5235
   26MOL   H37928429   1.691   4.239   3.512 -0.7881 -0.3610 -0.1211
   26MOL   H38028430   1.893   4.328   3.569  1.8135  1.9235  0.2777
   26MOL   H38128431   1.836   4.586   3.706 -0.0367 -0.5360 -0.3466
   26MOL   H38228432   1.960   4.569   3.589  1.2638  3.9067  1.5244
   26MOL   H38328433   1.982   4.478   3.877  1.3308  1.1284  2.0077
   26MOL   H38428434   2.075   4.595   3.806 -0.8445 -0.6811  2.6865
   26MOL   H38528435   2.081   4.289   3.730  1.4223 -1.1472 -1.3726
   26MOL   H38628436   2.145   4.411   3.632 -1.6857  0.4320 -0.4488
   26MOL   H38728437   2.295   4.503   3.796 -2.8664  0.4601 -2.7180
   26MOL   H38828438   2.237   4.396   3.923  3.8952 -2.5204  0.6961
   26MOL   H38928439   2.378   4.303   3.666 -3.3847  0.6439 -0.7367
   26MOL   H39028440   2.317   4.202   3.808 -0.6462 -0.3806 -3.5159
   26MOL   H39128441   2.573   4.256   3.779 -1.1969  0.0858 -2.2997
   26MOL   H39228442   2.532   4.425   3.802  4.0830 -0.6067  1.5426
   26MOL   H39328443   2.445   4.264   4.026 -0.8402  1.4173 -0.2666
   26MOL   C39428444   2.625   4.340   4.052 -0.7440  0.3820  0.5215
   26MOL   O39528445   2.733   4.384   4.008 -0.1466 -0.1070  0.0994
   26MOL   C39628446   2.611   4.315   4.203  0.2324  0.2906 -0.4171
   26MOL   C39728447   2.674   4.186   4.264  0.8010 -0.1352 -0.4300
   26MOL   C39828448   2.683   4.173   4.418 -0.0135  0.4179 -0.5421
   26MOL   C39928449   2.710   4.024   4.460 -0.0025 -0.7951  0.1058
   26MOL   C40028450   2.741   4.009   4.609  0.3227  0.0452  0.6389
   26MOL   C40128451   2.668   3.897   4.681 -0.3892  0.8751 -0.1237
   26MOL   C40228452   2.705   3.871   4.821  0.4586  0.5806  0.0156
   26MOL   C40328453   2.641   3.739   4.879 -0.6295  0.3015  0.0919
   26MOL   C40428454   2.696   3.723   5.023 -0.2542  0.1538  0.3287
   26MOL   C40528455   2.634   3.595   5.100 -0.5889 -0.4551  0.0917
   26MOL   C40628456   2.480   3.593   5.085 -0.4589  0.5492  0.1373
   26MOL   O40728457   2.424   3.487   5.039  0.3651  0.3752 -0.4719
   26MOL   N40828458   2.409   3.704   5.110 -0.4382 -0.0929  0.5372
   26MOL   C40928459   2.267   3.722   5.097 -0.0768 -0.6144 -0.8101
   26MOL   C41028460   2.221   3.780   4.964 -0.0506  0.1456  0.3048
   26MOL   C41128461   2.251   3.689   4.835 -0.4387  0.1486 -0.7283
   26MOL   C41228462   2.212   3.760   4.706  0.0952 -0.2315 -0.0230
   26MOL   C41328463   2.067   3.771   4.680 -1.2828 -0.4067  0.5507
   26MOL   C41428464   2.023   3.865   4.572  0.1928  0.1818 -0.3491
   26MOL   N41528465   1.883   3.898   4.561 -0.1133 -0.4147  0.3248
   26MOL   H41628466   2.506   4.321   4.230  0.3420 -0.1902  0.1339
   26MOL   H41728467   2.658   4.405   4.242  1.2405 -0.6063  0.4587
   26MOL   H41828468   2.779   4.189   4.235  0.2293  1.7156 -2.4680
   26MOL   H41928469   2.627   4.097   4.223 -2.2787  1.4920 -0.6216
   26MOL   H42028470   2.585   4.208   4.451 -0.4203 -0.5268 -0.7271
   26MOL   H42128471   2.755   4.238   4.467  2.6127 -1.8985 -1.2121
   26MOL   H42228472   2.804   3.999   4.411 -0.6852  1.2038 -2.3802
   26MOL   H42328473   2.635   3.953   4.426 -0.3490 -1.4531  2.1745
   26MOL   H42428474   2.847   3.986   4.610  0.7573  1.5416 -2.6639
   26MOL   H42528475   2.731   4.101   4.667  0.5837  0.5515 -0.1028
   26MOL   H42628476   2.560   3.915   4.674 -0.9309 -1.3109  1.9509
   26MOL   H42728477   2.685   3.801   4.632 -1.8536  0.5376  0.0014
   26MOL   H42828478   2.812   3.850   4.823  0.4758  0.6241 -0.3526
   26MOL   H42928479   2.691   3.948   4.896 -1.6909 -1.8708  2.2177
   26MOL   H43028480   2.533   3.758   4.878 -0.7795 -0.5501 -0.3060
   26MOL   H43128481   2.664   3.652   4.817 -0.1298  1.3301 -1.1753
   26MOL   H43228482   2.679   3.816   5.078  2.0355  0.1877  1.0116
   26MOL   H43328483   2.804   3.707   5.019 -0.2539 -0.0070  1.0537
   26MOL   H43428484   2.676   3.501   5.063  0.2349  0.2847 -0.8794
   26MOL   H43528485   2.655   3.606   5.206 -1.2384 -1.1639  0.2996
   26MOL   H43628486   2.453   3.784   5.153  0.0949 -0.8330  1.3712
   26MOL   H43728487   2.240   3.783   5.184 -2.7345 -2.4515 -0.2727
   26MOL   H43828488   2.218   3.629   5.129  1.6104 -0.6199  1.9491
   26MOL   H43928489   2.264   3.879   4.945  0.9453  0.0462  2.0094
   26MOL   H44028490   2.113   3.796   4.962  0.0091  0.5363 -2.4672
   26MOL   H44128491   2.358   3.675   4.819 -0.5467  0.2013 -1.5381
   26MOL   H44228492   2.209   3.590   4.849  0.5856 -0.1553  0.2456
   26MOL   H44328493   2.259   3.858   4.702  0.0758 -0.2208  0.0134
   26MOL   H44428494   2.262   3.699   4.630 -0.2115 -1.0780  0.4393
   26MOL   H44528495   2.028   3.671   4.664  0.6222 -0.8971 -1.3166
   26MOL   H44628496   2.011   3.807   4.767 -1.6402  0.5392 -0.0579
   26MOL   H44728497   2.074   3.961   4.572  1.8906 -0.6917  0.2708
   26MOL   H44828498   2.064   3.820   4.481  3.4979 -0.7412  1.5239
   26MOL   H44928499   1.823   3.845   4.623 -0.3158 -0.1057  0.3926
   26MOL   C45028500   1.841   3.984   4.464  0.1146 -0.8599  0.0737
   26MOL   O45128501   1.920   4.056   4.398  0.4444  0.6160  0.0072
   26MOL   C45228502   1.690   3.996   4.448 -0.3646 -0.1478  0.3901
   26MOL   C45328503   1.639   4.138   4.487  0.7695  0.0298  0.1963
   26MOL   C45428504   1.664   4.161   4.635  0.1354 -0.1429  0.8858
   26MOL   C45528505   1.602   4.287   4.690 -0.2445  0.6966 -0.1527
   26MOL   C45628506   1.626   4.296   4.843 -0.4457 -0.0881  0.1684
   26MOL   C45728507   1.564   4.193   4.936  0.2309  0.0458 -0.4809
   26MOL   C45828508   1.609   4.187   5.082  0.2221 -0.0888 -0.0697
   26MOL   C45928509   1.760   4.162   5.096 -0.2935  0.0992 -0.5463
   26MOL   C46028510   1.813   4.054   4.997  0.5786  1.2356 -0.3522
   26MOL   C46128511   1.747   3.911   5.023 -0.2190  0.3370 -0.5592
   26MOL   C46228512   1.795   3.839   5.152 -0.2247 -0.1266 -0.0752
   26MOL   O46328513   1.906   3.856   5.184 -0.7078  0.6607 -0.6130
   26MOL   N46428514   1.720   3.742   5.203  0.0504  0.4833 -0.7010
   26MOL   C46528515   1.763   3.651   5.313  0.1221 -0.0935  0.4692
   26MOL   C46628516   1.636   3.571   5.352  0.0376  0.3202  0.0680
   26MOL   C46728517   1.650   3.437   5.425 -0.2739 -0.0119  0.6373
   26MOL   C46828518   1.655   3.321   5.326 -0.1644 -0.0308  0.1227
   26MOL   C46928519   1.687   3.184   5.384  0.3692 -0.0841  0.2238
   26MOL   C47028520   1.719   3.076   5.281 -0.3999  0.3707 -0.1188
   26MOL   N47128521   1.769   2.959   5.351  0.4394 -0.0453 -0.4897
   26MOL   H47228522   1.670   3.994   4.341 -0.1840 -0.5814  0.3662
   26MOL   H47328523   1.630   3.910   4.477 -0.1416 -0.6903 -0.7479
   26MOL   H47428524   1.537   4.155   4.451  1.3249 -0.6843 -1.8127
   26MOL   H47528525   1.692   4.211   4.426 -0.9546  2.2902  1.3217
   26MOL   H47628526   1.769   4.161   4.665  0.9282 -1.2732 -1.7840
   26MOL   H47728527   1.618   4.075   4.682 -2.1802  0.8232  0.4773
   26MOL   H47828528   1.498   4.304   4.662 -0.6898 -2.1603 -0.4214
   26MOL   H47928529   1.663   4.364   4.643 -0.9147 -0.4917 -3.0905
   26MOL   H48028530   1.594   4.390   4.886 -3.7277  0.1138 -2.5305
   26MOL   H48128531   1.735   4.297   4.856 -0.3619 -1.3350 -0.3583
   26MOL   H48228532   1.584   4.096   4.891 -1.2039 -0.8482  0.7375
   26MOL   H48328533   1.458   4.217   4.930 -0.1291 -1.4642 -0.3719
   26MOL   H48428534   1.588   4.273   5.146  1.3375 -0.7990  1.3117
   26MOL   H48528535   1.558   4.109   5.139  0.7295 -0.9815 -0.8201
   26MOL   H48628536   1.815   4.253   5.071 -0.2305 -0.1831 -1.4422
   26MOL   H48728537   1.785   4.138   5.200  0.6080  1.7484 -0.3653
   26MOL   H48828538   1.922   4.043   4.996  0.7660  2.7081  1.2032
   26MOL   H48928539   1.811   4.092   4.895 -2.4462 -1.1887 -1.2404
   26MOL   H49028540   1.638   3.913   5.021 -0.2336  0.4203  0.4097
   26MOL   H49128541   1.787   3.851   4.941 -0.3090  1.7027 -1.6193
   26MOL   H49228542   1.639   3.706   5.155  0.3290 -1.6564  0.3616
   26MOL   H49328543   1.813   3.705   5.393  1.6669 -1.3962  0.4042
   26MOL   H49428544   1.837   3.588   5.264 -0.2013  2.6569 -3.8177
   26MOL   H49528545   1.587   3.636   5.424  1.6620 -1.5026  2.8981
   26MOL   H49628546   1.562   3.566   5.272 -0.9812 -1.4897  1.0997
   26MOL   H49728547   1.570   3.425   5.498 -1.8098  1.1301 -0.8255
   26MOL   H49828548   1.733   3.437   5.496  0.2151 -0.8297  0.0752
   26MOL   H49928549   1.731   3.345   5.252 -2.6370  0.9270 -2.1902
   26MOL   H50028550   1.562   3.305   5.272  0.0346 -0.9922  0.0559
   26MOL   H50128551   1.777   3.187   5.445  1.3885 -0.8770 -1.2394
   26MOL   H50228552   1.603   3.158   5.449  0.0686 -0.7226 -0.4133
   26MOL   H50328553   1.639   3.051   5.211  0.9377 -0.8248 -1.2602
   26MOL   H50428554   1.801   3.107   5.216 -1.0771 -0.7083 -1.5044
   26MOL   H50528555   1.850   2.973   5.410 -0.5829 -1.2168  1.2278
   26MOL   C50628556   1.714   2.838   5.335 -1.4750 -0.7626  0.4091
   26MOL   O50728557   1.621   2.817   5.259 -0.1371  0.9072 -0.4156
   26MOL   C50828558   1.778   2.731   5.425 -0.1408  0.5240  0.3154
   26MOL   C50928559   1.675   2.648   5.505  0.0272  0.2234 -0.0327
   26MOL   C51028560   1.589   2.730   5.611 -0.3840  0.3649 -0.3618
   26MOL   C51128561   1.674   2.828   5.699 -0.2265  0.3976  0.0304
   26MOL   C51228562   1.789   2.754   5.772  0.6516 -0.6719 -0.6321
   26MOL   C51328563   1.899   2.848   5.814 -0.3610  0.0149  0.2032
   26MOL   C51428564   2.017   2.793   5.892 -0.3978 -0.0599  0.3217
   26MOL   C51528565   2.099   2.911   5.955  0.1812  0.4239 -0.1802
   26MOL   C51628566   2.181   2.989   5.853 -0.2415  0.1160 -0.4624
   26MOL   C51728567   2.288   3.083   5.913  0.1893 -0.7867  0.4050
   26MOL   C51828568   2.416   3.018   5.960  0.0603  0.2188 -0.0184
   26MOL   O51928569   2.505   2.999   5.873  0.2429 -0.5828  0.7143
   26MOL   N52028570   2.423   2.990   6.091  0.0320  0.2291  0.4255
   26MOL   C52128571   2.539   2.963   6.175 -0.0962 -0.3105 -0.5996
   26MOL   C52228572   2.593   2.817   6.136 -0.0086  0.4569  0.1284
   26MOL   C52328573   2.703   2.760   6.232  0.1522  0.6367 -0.1380
   26MOL   C52428574   2.748   2.622   6.186  0.3089  0.5639 -0.3112
   26MOL   C52528575   2.846   2.559   6.287 -0.1990 -0.2524  0.0096
   26MOL   C52628576   2.899   2.419   6.250 -0.4230  0.2023 -0.5499
   26MOL   N52728577   2.952   2.361   6.370 -0.4408 -0.5834  0.1537
   26MOL   H52828578   1.865   2.759   5.485  0.4456 -0.8804  0.1332
   26MOL   H52928579   1.830   2.667   5.353 -2.9954 -1.1083 -0.3506
   26MOL   H53028580   1.719   2.561   5.554  0.6338  1.0310  0.8666
   26MOL   H53128581   1.597   2.606   5.441 -1.5145  0.5050  1.6347
   26MOL   H53228582   1.538   2.663   5.681 -0.2508  2.4922  1.8331
   26MOL   H53328583   1.506   2.775   5.557  0.7232  1.8229 -0.8534
   26MOL   H53428584   1.713   2.913   5.644  1.1902  0.6202  1.3429
   26MOL   H53528585   1.602   2.870   5.769  1.9760  1.2381  1.8469
   26MOL   H53628586   1.767   2.698   5.863  3.4196 -1.2140 -0.2419
   26MOL   H53728587   1.826   2.690   5.691  0.9099  1.5041 -2.2889
   26MOL   H53828588   1.945   2.894   5.727  2.9497 -1.4545  1.1069
   26MOL   H53928589   1.850   2.931   5.866 -0.2434 -0.8270  1.6913
   26MOL   H54028590   1.993   2.722   5.971 -0.1294 -0.6453 -0.1182
   26MOL   H54128591   2.088   2.745   5.823  2.5895  1.3182  2.3193
   26MOL   H54228592   2.038   2.986   6.006 -0.1540 -0.1431  0.2551
   26MOL   H54328593   2.174   2.863   6.017  0.4389  0.4515 -0.4728
   26MOL   H54428594   2.113   3.050   5.793  0.8670  1.2016 -0.6349
   26MOL   H54528595   2.244   2.929   5.787  1.1176  0.3425  0.6065
   26MOL   H54628596   2.306   3.156   5.834 -0.7014 -0.7320  0.2443
   26MOL   H54728597   2.257   3.139   6.001  1.0959 -0.8344  0.7520
   26MOL   H54828598   2.345   3.027   6.144  0.3996  1.8882 -0.1612
   26MOL   H54928599   2.508   2.973   6.279 -1.6127 -2.1096 -0.8515
   26MOL   H55028600   2.616   3.039   6.158  0.3975 -0.8921 -1.0071
   26MOL   H55128601   2.644   2.823   6.039 -0.4215 -0.0138 -0.1192
   26MOL   H55228602   2.511   2.746   6.139  0.7201 -0.3296  2.4196
   26MOL   H55328603   2.660   2.753   6.332  0.1732  0.1606 -0.1588
   26MOL   H55428604   2.787   2.828   6.245  0.8565 -0.2164 -0.1569
   26MOL   H55528605   2.788   2.626   6.085 -0.3327 -0.1384 -0.5936
   26MOL   H55628606   2.667   2.551   6.177  0.3154  0.3542  1.1710
   26MOL   H55728607   2.937   2.620   6.283  1.0010 -1.9525  0.5276
   26MOL   H55828608   2.808   2.567   6.388  1.0556 -0.3454  0.4989
   26MOL   H55928609   2.808   2.369   6.218  0.5537 -1.6965 -0.3898
   26MOL   H56028610   2.970   2.413   6.168  0.2255 -0.6324  0.0543
   26MOL   H56128611   2.884   2.349   6.443  1.7832  2.5018  2.8625
   26MOL   C56228612   3.083   2.371   6.399  0.2320 -0.4748  0.4929
   26MOL   O56328613   3.168   2.401   6.314  0.5804 -0.1222  0.3035
   26MOL   C56428614   3.126   2.331   6.544 -0.4961 -0.2119  0.3472
   26MOL   C56528615   3.190   2.444   6.624 -0.1320 -0.6861 -0.7743
   26MOL   C56628616   3.095   2.568   6.644  0.7551 -0.2334  0.3154
   26MOL   C56728617   2.968   2.526   6.721  0.3763  0.5060  1.2585
   26MOL   C56828618   2.890   2.646   6.785 -0.5817  0.0489  0.2235
   26MOL   C56928619   2.806   2.718   6.679  0.1071 -1.0567  0.3234
   26MOL   C57028620   2.771   2.859   6.725  0.0314 -0.0355 -0.6048
   26MOL   C57128621   2.658   2.924   6.647  0.1245  0.5830  0.2164
   26MOL   C57228622   2.665   3.080   6.643 -0.1448 -0.4382 -0.5695
   26MOL   C57328623   2.534   3.128   6.572  0.3337  0.1265 -0.4972
   26MOL   C57428624   2.546   3.272   6.519 -0.7483  0.1022 -0.0781
   26MOL   O57528625   2.522   3.364   6.588  0.4748  0.6223 -0.0069
   26MOL   N57628626   2.586   3.286   6.390 -0.8636  0.3714 -0.1197
   26MOL   C57728627   2.596   3.416   6.318  0.1332 -0.2594  0.4305
   26MOL   C57828628   2.675   3.416   6.189 -0.3692 -0.0469  0.5671
   26MOL   C57928629   2.609   3.345   6.069  0.4254 -0.2235 -0.3249
   26MOL   C58028630   2.647   3.409   5.935  0.4440  0.2574 -0.4795
   26MOL   C58128631   2.565   3.352   5.816  0.4169  0.1054 -0.4156
   26MOL   C58228632   2.590   3.422   5.678 -0.4684 -0.7980  0.3039
   26MOL   N58328633   2.551   3.565   5.673  0.0885 -0.3175  0.1118
   26MOL   H58428634   3.050   2.277   6.600 -1.8282  0.8902 -0.3664
   26MOL   H58528635   3.204   2.258   6.523  0.5291  0.8424  0.4445
   26MOL   H58628636   3.219   2.414   6.725 -0.7141  0.0842 -0.3684
   26MOL   H58728637   3.279   2.473   6.568 -0.8234  4.2282  0.5032
   26MOL   H58828638   3.070   2.613   6.548  2.2236  1.0966  0.5250
   26MOL   H58928639   3.155   2.637   6.704 -0.9381  3.6734 -2.2749
   26MOL   H59028640   2.894   2.465   6.670 -1.6388  0.9475  3.5152
   26MOL   H59128641   3.000   2.458   6.800 -1.6997 -0.8409  0.9754
   26MOL   H59228642   2.818   2.618   6.862 -1.1571  1.8809  0.3754
   26MOL   H59328643   2.970   2.707   6.828  1.1851 -2.4815  0.6656
   26MOL   H59428644   2.861   2.716   6.585  0.2828  2.1057  0.2981
   26MOL   H59528645   2.712   2.662   6.675  0.0141 -0.7792 -3.8789
   26MOL   H59628646   2.740   2.870   6.829 -0.4156  0.8436 -0.8228
   26MOL   H59728647   2.858   2.922   6.707  0.8034 -0.7166  0.6671
   26MOL   H59828648   2.570   2.883   6.697 -0.0156  1.0325  0.3393
   26MOL   H59928649   2.658   2.887   6.544 -0.1307  3.4181 -0.8490
   26MOL   H60028650   2.751   3.109   6.583 -0.3909  0.8642 -0.2939
   26MOL   H60128651   2.673   3.124   6.742  0.1539  0.2988 -0.9213
   26MOL   H60228652   2.529   3.064   6.483  0.4420  0.9528 -1.0997
   26MOL   H60328653   2.446   3.106   6.633 -0.9196  1.6875 -1.7005
   26MOL   H60428654   2.642   3.211   6.352  0.5649  0.0462  2.5353
   26MOL   H60528655   2.631   3.483   6.396  1.3652 -2.5807  1.9421
   26MOL   H60628656   2.493   3.447   6.300 -0.4505 -1.5492  1.4026
   26MOL   H60728657   2.780   3.395   6.207 -0.3500  0.2639  0.8194
   26MOL   H60828658   2.701   3.519   6.163 -1.2405  0.1045  0.2681
   26MOL   H60928659   2.501   3.344   6.078  0.4026  0.2496 -0.5705
   26MOL   H61028660   2.639   3.240   6.070  1.7651  0.1602  1.0348
   26MOL   H61128661   2.641   3.518   5.941 -2.5264  0.2111 -1.9611
   26MOL   H61228662   2.751   3.389   5.909 -0.2188 -2.7405 -0.9947
   26MOL   H61328663   2.460   3.351   5.844  0.8825  0.4297  1.4477
   26MOL   H61428664   2.585   3.245   5.805  0.9833  0.1459  0.2001
   26MOL   H61528665   2.696   3.407   5.662 -0.6236 -0.7696 -0.7499
   26MOL   H61628666   2.544   3.361   5.600  1.6402 -2.8419  0.6083
   26MOL   H61728667   2.489   3.609   5.739  0.4734  1.1938 -0.5159
   26MOL   C61828668   2.600   3.646   5.580 -0.4071 -0.6023  0.1634
   26MOL   O61928669   2.682   3.605   5.496  0.0498  0.0465  0.3337
   26MOL   C62028670   2.562   3.789   5.589  0.1274 -0.5288 -0.8409
   26MOL   C62128671   2.663   3.892   5.527  0.1336 -0.3991  0.6247
   26MOL   C62228672   2.621   4.036   5.550  0.2013 -0.1686  0.0971
   26MOL   C62328673   2.733   4.136   5.528 -0.3270 -0.0995 -0.8558
   26MOL   C62428674   2.686   4.281   5.560 -0.3071 -0.6334 -0.3941
   26MOL   C62528675   2.583   4.345   5.469  0.2318 -0.6051  0.2581
   26MOL   C62628676   2.578   4.498   5.476 -0.1085 -0.2070 -0.9116
   26MOL   C62728677   2.489   4.560   5.380  0.0145  0.8644  1.2684
   26MOL   C62828678   2.465   4.710   5.400 -0.0484  0.7068  0.0985
   26MOL   C62928679   2.412   4.749   5.542  0.4690  0.2861  0.2137
   26MOL   C63028680   2.280   4.682   5.576  0.0021 -0.3752  0.2167
   26MOL   O63128681   2.189   4.677   5.495 -0.1477 -0.5422 -0.1457
   26MOL   N63228682   2.271   4.628   5.698 -0.0501 -0.1450  0.6552
   26MOL   C63328683   2.158   4.551   5.763 -0.8075  0.5868 -0.2390
   26MOL   C63428684   2.224   4.420   5.813 -0.2948 -0.8594  0.4016
   26MOL   C63528685   2.275   4.331   5.690 -0.4223  0.8302 -0.5258
   26MOL   C63628686   2.349   4.195   5.725 -0.4768 -0.9802 -0.6612
   26MOL   C63728687   2.262   4.104   5.804 -0.0121 -0.0476 -0.3480
   26MOL   C63828688   2.315   3.967   5.824 -0.2458 -0.2899 -0.2202
   26MOL   N63928689   2.223   3.877   5.889 -0.9608  0.8090 -0.5779
   26MOL   H64028690   2.544   3.804   5.696  0.3769 -1.8592 -0.6082
   26MOL   H64128691   2.463   3.808   5.547  0.1150  3.4698  0.7237
   26MOL   H64228692   2.678   3.870   5.421  0.5663  0.3120  0.5363
   26MOL   H64328693   2.765   3.876   5.561  0.8429  0.3336 -1.1162
   26MOL   H64428694   2.583   4.046   5.652 -0.3497  0.8482 -0.2023
   26MOL   H64528695   2.539   4.050   5.480 -0.8703  0.5696  1.4785
   26MOL   H64628696   2.823   4.112   5.584 -0.9462  0.9415  0.6234
   26MOL   H64728697   2.755   4.130   5.422 -5.0467  0.0168 -1.9774
   26MOL   H64828698   2.651   4.276   5.663  1.4949  1.9185  0.3616
   26MOL   H64928699   2.772   4.347   5.553  0.2069 -1.3056 -0.4905
   26MOL   H65028700   2.481   4.311   5.491 -0.0184 -0.6837 -0.9877
   26MOL   H65128701   2.603   4.304   5.370 -0.1831 -1.6525  0.5969
   26MOL   H65228702   2.553   4.522   5.579  1.1313  0.4593 -0.7602
   26MOL   H65328703   2.680   4.533   5.461 -0.5494  0.7692 -1.6459
   26MOL   H65428704   2.508   4.524   5.279 -1.9349  2.8248  0.1464
   26MOL   H65528705   2.392   4.514   5.397  0.2527  0.2641  1.0213
   26MOL   H65628706   2.400   4.745   5.320 -1.2550 -0.5261  0.5256
   26MOL   H65728707   2.556   4.768   5.382 -0.0446  0.2259 -1.5108
   26MOL   H65828708   2.493   4.721   5.609  1.2902  1.6305 -0.2110
   26MOL   H65928709   2.400   4.858   5.540 -0.3337  0.1964 -0.1225
   26MOL   H66028710   2.355   4.651   5.748 -0.8549  1.5113  1.2723
   26MOL   H66128711   2.109   4.611   5.840 -0.1817  0.0428  0.5881
   26MOL   H66228712   2.077   4.533   5.693 -1.4630 -0.3112  0.7395
   26MOL   H66328713   2.142   4.374   5.868  0.6803 -1.3645  1.4393
   26MOL   H66428714   2.300   4.439   5.888 -0.6807 -1.3994  0.9356
   26MOL   H66528715   2.186   4.301   5.635  1.1019 -3.8761 -0.6645
   26MOL   H66628716   2.340   4.392   5.628 -1.3853  2.9202  0.4794
   26MOL   H66728717   2.442   4.216   5.778 -0.8611  0.7699 -0.6529
   26MOL   H66828718   2.374   4.150   5.629 -0.8338 -1.0098 -0.7439
   26MOL   H66928719   2.234   4.153   5.897 -1.9644 -1.5634 -0.1038
   26MOL   H67028720   2.164   4.098   5.758  0.3482 -0.8567 -1.0443
   26MOL   H67128721   2.342   3.921   5.729  0.3668 -0.0572 -0.1650
   26MOL   H67228722   2.409   3.986   5.876 -1.7786  3.2181  1.4058
   26MOL   H67328723   2.142   3.918   5.933 -0.1927 -0.3785  2.0262
   26MOL   C67428724   2.250   3.745   5.901 -0.6033  0.0127  0.1635
   26MOL   O67528725   2.350   3.698   5.860 -0.1231  0.0398  0.3530
   26MOL   C67628726   2.145   3.656   5.964  0.5518 -0.2738 -0.4028
   26MOL   C67728727   2.123   3.519   5.889  0.6925  0.2776  0.3192
   26MOL   C67828728   1.984   3.463   5.929 -0.2760 -0.1695  0.3422
   26MOL   C67928729   1.936   3.350   5.831 -1.0475 -0.2688  0.0324
   26MOL   C68028730   1.793   3.306   5.855  0.2232  0.7485  0.4945
   26MOL   C68128731   1.736   3.228   5.742  0.1541  0.1905  0.1931
   26MOL   C68228732   1.596   3.170   5.765  0.3655 -0.4774  0.0108
   26MOL   C68328733   1.489   3.275   5.807 -0.1705 -0.2187 -0.3015
   26MOL   C68428734   1.343   3.223   5.810  0.6698  0.0705  0.3541
   26MOL   C68528735   1.242   3.340   5.821  0.6794  0.5651  0.2032
   26MOL   C68628736   1.268   3.429   5.947 -0.5357  0.2551  0.5609
   26MOL   O68728737   1.340   3.390   6.044 -0.1854 -0.4946 -0.1320
   26MOL   N68828738   1.207   3.545   5.946 -0.1740  0.6741 -0.4628
   26MOL   C68928739   1.239   3.661   6.049  1.0119  0.4438  0.3688
   26MOL   C69028740   1.387   3.702   6.061  0.4839  0.6581 -0.7700
   26MOL   C69128741   1.475   3.746   5.944  0.4257 -0.4233 -0.2711
   26MOL   C69228742   1.615   3.798   5.975 -0.2841 -0.5834 -0.2227
   26MOL   C69328743   1.696   3.809   5.845  0.0161 -0.3250  0.4037
   26MOL   C69428744   1.825   3.869   5.879 -0.5345 -0.3080 -0.3410
   26MOL   N69528745   1.806   4.014   5.899  0.0167 -0.5453 -0.2338
   26MOL   H69628746   2.058   3.716   5.992  2.1860  1.8728  0.1613
   26MOL   H69728747   2.186   3.621   6.059 -0.4615  0.3904  0.2879
   26MOL   H69828748   2.205   3.449   5.908 -0.9742 -1.2137  2.2790
   26MOL   H69928749   2.132   3.554   5.786  1.4188  1.4565  0.7771
   26MOL   H70028750   2.001   3.427   6.031 -0.1248 -0.6801  0.1370
   26MOL   H70128751   1.908   3.540   5.919 -0.1743 -0.0895  0.2008
   26MOL   H70228752   2.010   3.270   5.832  0.4002  1.0546  0.8950
   26MOL   H70328753   1.942   3.394   5.731 -0.4491  0.2404  0.2877
   26MOL   H70428754   1.733   3.396   5.870 -1.0753 -0.0385  0.1778
   26MOL   H70528755   1.782   3.240   5.941 -0.8673  0.1646 -0.0726
   26MOL   H70628756   1.748   3.294   5.655 -0.6565  1.7483  1.2330
   26MOL   H70728757   1.796   3.138   5.730  0.0223  0.2765 -1.2403
   26MOL   H70828758   1.573   3.110   5.677 -0.8431 -1.4522  0.9839
   26MOL   H70928759   1.598   3.088   5.836  0.2766 -1.5956 -1.2459
   26MOL   H71028760   1.515   3.296   5.911 -0.3338  0.9286 -0.4826
   26MOL   H71128761   1.492   3.367   5.749  0.1879  0.1051  0.2318
   26MOL   H71228762   1.328   3.159   5.897  0.8676 -0.2503  0.1548
   26MOL   H71328763   1.328   3.163   5.720 -3.0925 -0.9253  1.5477
   26MOL   H71428764   1.260   3.388   5.725 -0.5315 -2.0231 -1.3979
   26MOL   H71528765   1.137   3.312   5.809  0.9792  0.1241 -1.4599
   26MOL   H71628766   1.148   3.572   5.869 -2.7909 -0.8671  0.9375
   26MOL   H71728767   1.182   3.752   6.031  0.4733 -0.0004 -0.2200
   26MOL   H71828768   1.201   3.629   6.146  0.1342 -4.7245 -1.4938
   26MOL   H71928769   1.438   3.614   6.099  0.1067  0.6248 -0.3419
   26MOL   H72028770   1.400   3.777   6.139  0.9179 -0.4293  0.2165
   26MOL   H72128771   1.480   3.664   5.873  1.4260 -2.2638  1.8877
   26MOL   H72228772   1.422   3.824   5.890 -2.9650 -1.3095  1.6603
   26MOL   H72328773   1.663   3.733   6.048  0.4747 -0.3501 -0.5076
   26MOL   H72428774   1.622   3.891   6.032  0.2820 -0.7149 -0.0689
   26MOL   H72528775   1.650   3.863   5.762 -0.5670 -1.5223 -0.0650
   26MOL   H72628776   1.707   3.706   5.810  0.8165  0.1033 -0.6571
   26MOL   H72728777   1.876   3.824   5.964 -0.4691 -0.4026 -0.4305
   26MOL   H72828778   1.890   3.844   5.795 -0.9489 -2.8358  0.0333
   26MOL   H72928779   1.739   4.063   5.841  1.3142  0.7213 -0.6990
   26MOL   C73028780   1.889   4.092   5.969 -0.0373 -1.0318  0.4164
   26MOL   O73128781   1.991   4.056   6.026 -0.3509  0.0264 -0.4198
   26MOL   C73228782   1.857   4.241   5.967 -0.3600  0.0743 -0.1779
   26MOL   C73328783   1.806   4.305   6.098 -0.5414  0.0835  0.2228
   26MOL   C73428784   1.680   4.246   6.160  0.6778  0.3428  0.1417
   26MOL   C73528785   1.659   4.291   6.302  0.5271 -0.2092  0.9761
   26MOL   C73628786   1.529   4.238   6.354 -0.3620  0.0614  0.4771
   26MOL   C73728787   1.483   4.273   6.499 -0.4612 -0.2447  0.4142
   26MOL   C73828788   1.354   4.208   6.535  0.4214  0.0238  0.9043
   26MOL   C73928789   1.359   4.059   6.568 -0.0239 -0.4441 -0.2198
   26MOL   C74028790   1.237   3.980   6.618 -0.1573 -0.2154  0.2874
   26MOL   C74128791   1.111   4.000   6.532  0.2011  0.6533 -0.4667
   26MOL   C74228792   1.118   3.936   6.388 -0.1082 -0.1719 -0.3876
   26MOL   O74328793   1.133   3.817   6.378  0.1047 -0.0816  0.6809
   26MOL   N74428794   1.115   4.024   6.290 -0.1315 -0.0336  0.4634
   26MOL   C74528795   1.148   3.991   6.149  0.0413 -0.0083 -0.1580
   26MOL   C74628796   1.110   4.106   6.046  0.1684  0.3670 -0.4147
   26MOL   C74728797   1.148   4.054   5.904  0.0443  0.8090  0.8522
   26MOL   C74828798   1.114   4.159   5.791  0.1921  0.2005 -0.0168
   26MOL   C74928799   1.210   4.149   5.668 -0.4824 -0.8970  0.6985
   26MOL   C75028800   1.177   4.267   5.583 -0.2670 -0.6692  0.0999
   26MOL   N75128801   1.231   4.390   5.628 -0.1655  0.1561 -0.1911
   26MOL   H75228802   1.782   4.261   5.890  0.3459  3.6902 -0.0222
   26MOL   H75328803   1.936   4.305   5.928 -0.9587  1.3482  0.6600
   26MOL   H75428804   1.794   4.414   6.101  0.8061  0.2696 -0.6644
   26MOL   H75528805   1.876   4.292   6.181  0.7439 -0.2418 -0.8958
   26MOL   H75628806   1.668   4.140   6.143  0.8451  0.1747  1.0341
   26MOL   H75728807   1.602   4.295   6.101 -0.7043 -1.9245  0.0427
   26MOL   H75828808   1.652   4.399   6.313  0.2514 -0.1473  0.2059
   26MOL   H75928809   1.732   4.250   6.373  1.8448 -1.3667 -0.9795
   26MOL   H76028810   1.529   4.130   6.340  0.0934  0.2086 -0.6776
   26MOL   H76128811   1.457   4.282   6.284  1.9365  2.0867 -0.6935
   26MOL   H76228812   1.567   4.245   6.564 -0.7439 -1.7530  0.1532
   26MOL   H76328813   1.458   4.379   6.500 -0.0967 -0.1431 -0.7870
   26MOL   H76428814   1.324   4.258   6.627  0.3170 -0.4363  1.1237
   26MOL   H76528815   1.277   4.232   6.462  1.6538 -0.4689 -0.5898
   26MOL   H76628816   1.401   4.003   6.485  1.3088 -3.0964  2.1360
   26MOL   H76728817   1.435   4.047   6.645  1.2551  0.5177 -1.3172
   26MOL   H76828818   1.204   4.000   6.720 -0.8245 -1.5765  0.3509
   26MOL   H76928819   1.274   3.878   6.627 -0.6213 -0.5554 -1.5453
   26MOL   H77028820   1.024   3.955   6.581  1.2306  0.6240  1.3403
   26MOL   H77128821   1.092   4.107   6.538  1.4197  0.7662  1.8127
   26MOL   H77228822   1.127   4.120   6.318  2.9265  0.2063 -1.3918
   26MOL   H77328823   1.075   3.912   6.129 -1.0970  0.0940  3.1110
   26MOL   H77428824   1.252   3.963   6.138  0.4118  2.1054 -2.2178
   26MOL   H77528825   1.166   4.198   6.061  0.6891 -0.2078  1.2019
   26MOL   H77628826   1.005   4.134   6.055 -0.2678 -1.6572  0.8918
   26MOL   H77728827   1.111   3.956   5.874  1.9119  0.6932 -1.1468
   26MOL   H77828828   1.256   4.039   5.904 -0.1268 -0.5959 -0.6662
   26MOL   H77928829   1.006   4.159   5.773 -0.1161  2.2863  1.6742
   26MOL   H78028830   1.155   4.251   5.831 -0.6302  0.8226 -0.6069
   26MOL   H78128831   1.190   4.058   5.612 -1.0134  0.2847 -1.0755
   26MOL   H78228832   1.314   4.145   5.702 -0.5561 -2.5418  0.7736
   26MOL   H78328833   1.223   4.249   5.486 -0.5162  0.1774 -0.1727
   26MOL   H78428834   1.068   4.275   5.578 -0.4054 -1.8475  0.8810
   26MOL   H78528835   1.200   4.436   5.713  0.1474  0.4278 -0.2245
   26MOL   C78628836   1.321   4.459   5.565 -0.0544 -0.2726  0.9802
   26MOL   O78728837   1.377   4.438   5.458 -0.3366 -0.3213  0.0563
   26MOL   C78828838   1.341   4.595   5.640 -0.4768  0.0131  0.3091
   26MOL   C78928839   1.429   4.580   5.759 -0.1622  0.0717 -1.1602
   26MOL   C79028840   1.577   4.612   5.727 -0.4693  0.1353  0.0744
   26MOL   C79128841   1.680   4.609   5.847 -0.2146 -0.1392  0.2152
   26MOL   C79228842   1.816   4.672   5.825 -0.2976 -0.0509  0.2269
   26MOL   C79328843   1.812   4.825   5.841  0.2639 -0.2333  0.2609
   26MOL   C79428844   1.948   4.881   5.793  0.8313  0.2375  0.4608
   26MOL   C79528845   1.964   5.029   5.809 -0.2510  0.4457  0.1285
   26MOL   C79628846   2.087   5.095   5.737  0.2342  0.1344 -0.1199
   26MOL   C79728847   2.095   5.250   5.766 -0.3873 -0.3899 -1.0538
   26MOL   C79828848   2.009   5.351   5.690 -0.9113  0.0103  0.2033
   26MOL   O79928849   1.999   5.340   5.565 -1.1493 -0.0799  0.3627
   26MOL   N80028850   1.953   5.447   5.760  0.0793 -0.7015  0.0200
   26MOL   C80128851   1.870   5.557   5.711  0.1013 -0.2943  0.1188
   26MOL   C80228852   1.954   5.676   5.719  0.0217 -0.1212  0.0006
   26MOL   C80328853   2.000   5.715   5.856 -0.3628 -0.3108 -0.3764
   26MOL   C80428854   2.071   5.854   5.840 -0.1758  0.3748  0.2236
   26MOL   C80528855   2.215   5.838   5.793 -0.7075  0.5015 -0.0574
   26MOL   C80628856   2.305   5.957   5.823 -0.0241  0.6488  0.5147
   26MOL   N80728857   2.432   5.936   5.753  0.0888 -0.1394 -0.0581
   26MOL   H80828858   1.241   4.627   5.668 -1.5442 -1.5876 -1.5574
   26MOL   H80928859   1.376   4.673   5.572  1.7376 -0.1521  1.2012
   26MOL   H81028860   1.402   4.643   5.844  3.1679 -0.2785  0.2585
   26MOL   H81128861   1.434   4.476   5.791 -0.0187  0.5991  0.5986
   26MOL   H81228862   1.580   4.713   5.687  1.0134  0.6251  1.3766
   26MOL   H81328863   1.618   4.550   5.647  0.2461  2.2090 -1.1776
   26MOL   H81428864   1.634   4.647   5.937 -1.8070  0.5491 -0.8745
   26MOL   H81528865   1.688   4.503   5.874  0.1085  0.0844  0.9757
   26MOL   H81628866   1.884   4.642   5.905 -0.3873  1.0962  0.7442
   26MOL   H81728867   1.865   4.645   5.731  1.7802  0.3643  1.1567
   26MOL   H81828868   1.743   4.864   5.765  1.0675 -0.3006 -0.5169
   26MOL   H81928869   1.780   4.854   5.941 -0.5007 -2.0083  0.5524
   26MOL   H82028870   2.031   4.830   5.843  0.2796 -1.9058 -0.7449
   26MOL   H82128871   1.979   4.844   5.695  0.6588 -1.9318  1.2000
   26MOL   H82228872   1.876   5.090   5.788  1.2705  2.3947 -0.7108
   26MOL   H82328873   1.987   5.025   5.915 -1.3099  2.3153  0.4571
   26MOL   H82428874   2.071   5.092   5.629 -0.6576 -0.1841  0.0190
   26MOL   H82528875   2.176   5.045   5.773  1.1434  2.0902  0.4047
   26MOL   H82628876   2.066   5.261   5.870  0.7439 -1.2108 -0.6438
   26MOL   H82728877   2.199   5.281   5.753 -0.4255 -0.0390 -0.5356
   26MOL   H82828878   1.960   5.436   5.860  0.7435  0.4288  0.1037
   26MOL   H82928879   1.789   5.567   5.784 -0.4518  1.7028 -0.7280
   26MOL   H83028880   1.840   5.537   5.608  2.1875  0.7494 -0.7062
   26MOL   H83128881   1.891   5.754   5.677  0.9652 -0.2191 -1.6352
   26MOL   H83228882   2.035   5.669   5.646  0.1806  1.1008  0.0556
   26MOL   H83328883   1.911   5.723   5.919 -2.1138  0.4795 -2.8800
   26MOL   H83428884   2.068   5.642   5.901 -3.2391 -0.8432  3.3770
   26MOL   H83528885   2.074   5.909   5.934  0.2303  3.1064 -1.3286
   26MOL   H83628886   2.009   5.919   5.778  0.4512  1.6598  0.9177
   26MOL   H83728887   2.203   5.821   5.686  1.3590  3.2039 -0.7730
   26MOL   H83828888   2.264   5.754   5.844 -0.5005 -0.3212 -1.5662
   26MOL   H83928889   2.328   5.951   5.929  1.2478 -1.4506  0.1487
   26MOL   H84028890   2.256   6.050   5.797  1.3601  1.5848  1.1675
   26MOL   H84128891   2.509   5.931   5.818  1.6103 -0.5067 -1.8437
   26MOL   C84228892   2.449   5.961   5.624 -0.0200 -0.3151  0.5378
   26MOL   O84328893   2.359   5.997   5.545 -0.0636 -0.4869 -0.2470
   26MOL   C84428894   2.594   5.949   5.576 -0.0957  0.6311  0.0729
   26MOL   C84528895   2.633   6.056   5.473  0.0653  0.1611 -0.1295
   26MOL   C84628896   2.613   6.198   5.520 -0.0575  0.1281  0.3147
   26MOL   C84728897   2.678   6.241   5.658 -0.1961  0.3749  0.2517
   26MOL   C84828898   2.679   6.399   5.670  0.4516 -0.2406  0.5376
   26MOL   C84928899   2.537   6.460   5.671 -0.1477  0.2642  0.0120
   26MOL   C85028900   2.474   6.462   5.807 -0.6635 -0.3052  0.8459
   26MOL   C85128901   2.323   6.478   5.811 -0.2485 -0.7455  0.4519
   26MOL   C85228902   2.281   6.531   5.941  0.2133 -0.1756 -0.0247
   26MOL   C85328903   2.312   6.440   6.068 -0.1137  0.0658 -0.3715
   26MOL   C85428904   2.296   6.525   6.200  0.2281  0.5530  0.2785
   26MOL   O85528905   2.195   6.584   6.208  0.0447 -0.4744  0.2833
   26MOL   N85628906   2.385   6.534   6.305 -0.0208  0.1643 -0.0045
   26MOL   C85728907   2.396   6.645   6.398 -0.3726 -0.3365 -0.2511
   26MOL   C85828908   2.444   6.587   6.531 -0.1340 -0.0889 -0.5586
   26MOL   C85928909   2.500   6.688   6.627  0.3553  0.4396  1.1501
   26MOL   C86028910   2.574   6.610   6.739 -0.5351  0.0534 -0.5779
   26MOL   C86128911   2.657   6.713   6.814  0.5226  0.6198  0.1455
   26MOL   C86228912   2.720   6.651   6.936  0.2177  0.1638 -0.3615
   26MOL   N86328913   2.854   6.703   6.958 -0.2381 -0.1171  0.2392
   26MOL   H86428914   2.590   5.854   5.522  1.8436  0.8140 -0.4300
   26MOL   H86528915   2.668   5.955   5.656  0.2908 -0.8416 -0.1553
   26MOL   H86628916   2.567   6.049   5.386  1.0782  1.8534 -1.0579
   26MOL   H86728917   2.731   6.031   5.433 -0.2790  2.0552 -2.3012
   26MOL   H86828918   2.657   6.266   5.448  0.5091  1.7850  2.1680
   26MOL   H86928919   2.506   6.222   5.525 -0.5626 -1.3576 -2.1770
   26MOL   H87028920   2.784   6.219   5.665 -0.4575 -0.7174  0.8237
   26MOL   H87128921   2.623   6.196   5.740 -0.1467 -0.8902 -0.3971
   26MOL   H87228922   2.731   6.442   5.755  1.0344 -0.9100  0.5169
   26MOL   H87328923   2.729   6.432   5.579 -1.3835  0.1477 -0.3698
   26MOL   H87428924   2.556   6.564   5.645 -1.0499  0.7424  1.2488
   26MOL   H87528925   2.478   6.413   5.592  2.2199 -2.2005 -0.3728
   26MOL   H87628926   2.499   6.365   5.851 -0.5747  0.5457  2.7091
   26MOL   H87728927   2.522   6.530   5.876  1.8476 -0.4562 -0.6754
   26MOL   H87828928   2.266   6.385   5.802  0.5397 -1.5954  3.7777
   26MOL   H87928929   2.294   6.547   5.731  0.7690 -2.0340 -1.0448
   26MOL   H88028930   2.173   6.547   5.936  0.8106  3.5044 -2.4189
   26MOL   H88128931   2.331   6.626   5.958 -1.1554  1.1078 -2.8482
   26MOL   H88228932   2.235   6.363   6.069  0.6255 -0.6858  0.1736
   26MOL   H88328933   2.411   6.399   6.047  0.7557  3.1730 -2.7585
   26MOL   H88428934   2.464   6.473   6.318 -0.1018  0.2556  0.9909
   26MOL   H88528935   2.305   6.704   6.402 -0.0167  0.1742  0.3229
   26MOL   H88628936   2.477   6.704   6.354 -0.9225  0.6077  0.0000
   26MOL   H88728937   2.522   6.517   6.503  0.1815  0.7319 -1.7751
   26MOL   H88828938   2.368   6.531   6.586  1.1692 -0.1990  1.1638
   26MOL   H88928939   2.423   6.748   6.676 -3.0386 -1.1521 -1.9557
   26MOL   H89028940   2.574   6.757   6.586  1.3358 -0.5332  1.2760
   26MOL   H89128941   2.630   6.527   6.695  0.5572  0.9290 -0.8617
   26MOL   H89228942   2.511   6.560   6.813  0.8125 -2.6059 -1.1469
   26MOL   H89328943   2.724   6.758   6.740  0.1196  1.4139  0.2663
   26MOL   H89428944   2.588   6.789   6.848 -1.8938 -0.5664 -1.9128
   26MOL   H89528945   2.666   6.673   7.028 -0.4237  1.5494 -1.0559
   26MOL   H89628946   2.740   6.544   6.927  0.6268  0.2835 -0.9472
   26MOL   H89728947   2.925   6.654   6.905 -0.0967  0.7538 -0.3716
   26MOL   C89828948   2.896   6.775   7.058  0.1135 -0.0949 -0.2853
   26MOL   O89928949   2.820   6.830   7.137  0.2824 -0.2780  0.2193
   26MOL   C90028950   3.048   6.782   7.080  0.7115  0.4954  0.3389
   26MOL   C90128951   3.106   6.671   7.173 -0.5172 -0.6715  0.6064
   26MOL   C90228952   3.120   6.714   7.320 -0.0775 -0.2541 -0.0789
   26MOL   C90328953   3.211   6.635   7.410  0.3513 -0.1908 -0.0083
   26MOL   C90428954   3.137   6.496   7.444 -0.3249 -0.0085  0.0445
   26MOL   C90528955   3.211   6.430   7.564  0.2560 -0.0365  0.6187
   26MOL   C90628956   3.131   6.305   7.610 -0.7738 -0.4450  0.5023
   26MOL   C90728957   3.194   6.227   0.035 -0.4761 -0.0993  0.1254
   26MOL   C90828958   3.100   6.124   0.095 -0.1578  0.5124  0.2713
   26MOL   C90928959   2.987   6.188   0.177 -0.7100  0.5146  0.9273
   26MOL   C91028960   3.027   6.227   0.317  0.5802  0.4332  0.5208
   26MOL   O91128961   3.048   6.139   0.392 -0.2499 -0.3536  0.7215
   26MOL   N91228962   3.041   6.358   0.342  0.0573  0.1062  0.3077
   26MOL   C91328963   3.062   6.418   0.475  0.2429 -0.1655 -0.0818
   26MOL   C91428964   3.170   6.524   0.462  0.1128  0.4440 -0.1945
   26MOL   C91528965   3.200   6.584   0.599 -0.0709 -0.2621 -0.2700
   26MOL   C91628966   3.341   6.647   0.602  0.0605 -0.2972 -0.1045
   26MOL   C91728967   3.452   6.542   0.599 -0.7854  0.0862  0.7764
   26MOL   C91828968   3.590   6.585   0.660  0.4636  0.0504 -0.2601
   26MOL   N91928969   3.627   6.714   0.611 -0.0870  0.0983  0.3205
   26MOL   H92028970   3.106   6.764   6.989 -0.3184 -0.2440 -0.1808
   26MOL   H92128971   3.084   6.880   7.111 -1.0062  0.8226  1.3637
   26MOL   H92228972   3.206   6.639   7.144  0.0191  0.7660  0.8274
   26MOL   H92328973   3.040   6.584   7.174  0.3917 -1.4009 -0.8917
   26MOL   H92428974   3.023   6.726   7.367 -0.4017 -1.3754 -0.4494
   26MOL   H92528975   3.163   6.815   7.324 -0.4319 -0.1503  1.8612
   26MOL   H92628976   3.307   6.620   7.360  0.0716 -2.7952  0.1545
   26MOL   H92728977   3.227   6.682   7.507 -2.5626  0.4188  0.2074
   26MOL   H92828978   3.136   6.420   7.366  3.8299  0.1806 -0.2854
   26MOL   H92928979   3.032   6.513   7.469 -0.5030  0.8586 -1.2764
   26MOL   H93028980   3.312   6.402   7.535  0.6083  0.6198  1.1886
   26MOL   H93128981   3.217   6.500   7.647 -2.7591  1.6564 -0.5043
   26MOL   H93228982   3.118   6.244   7.522  2.7812 -0.0210 -0.4096
   26MOL   H93328983   3.031   6.343   7.634 -0.9507  0.2882 -1.3253
   26MOL   H93428984   3.238   6.296   0.108 -0.9995 -0.0851  0.4252
   26MOL   H93528985   3.279   6.173   7.684 -0.6874  0.2429 -0.7338
   26MOL   H93628986   3.061   6.056   0.019  2.1483 -1.5682  0.8964
   26MOL   H93728987   3.158   6.059   0.159 -1.1911 -1.1418 -0.4427
   26MOL   H93828988   2.949   6.277   0.126 -0.5478 -1.1508 -2.1624
   26MOL   H93928989   2.902   6.121   0.189 -0.1070 -0.6674 -1.2844
   26MOL   H94028990   2.995   6.423   0.280  1.4584 -0.3997 -1.2958
   26MOL   H94128991   3.085   6.338   0.546  1.1976  0.1221 -0.0581
   26MOL   H94228992   2.973   6.465   0.518 -0.1530 -1.6233  0.7196
   26MOL   H94328993   3.257   6.468   0.430 -0.2569  0.5009 -1.3079
   26MOL   H94428994   3.155   6.598   0.383  0.8976  0.6668 -0.1410
   26MOL   H94528995   3.128   6.665   0.609 -0.3895 -0.7993  2.0410
   26MOL   H94628996   3.188   6.509   0.677 -0.9429  0.4838  0.3203
   26MOL   H94728997   3.350   6.698   0.698  1.1750 -0.8222  0.0793
   26MOL   H94828998   3.367   6.724   0.529 -0.7506 -1.6643 -1.8772
   26MOL   H94928999   3.414   6.463   0.663 -0.0374 -1.0939 -0.2262
   26MOL   H95029000   3.471   6.502   0.500 -0.0712 -0.5162  1.1574
   26MOL   H95129001   3.665   6.507   0.649  1.2931  0.8714 -0.5754
   26MOL   H95229002   3.579   6.594   0.768 -0.9572  0.8288 -0.4539
   26MOL   H95329003   3.579   6.790   0.656 -0.8041 -0.3906  0.3849
   26MOL   C95429004   3.720   6.735   0.515 -0.2540 -0.2987 -0.6503
   26MOL   O95529005   3.779   6.647   0.454  0.2419  0.0105 -0.1425
   26MOL   C95629006   3.752   6.879   0.475  0.2135 -0.7972  1.1281
   26MOL   C95729007   3.713   6.926   0.329  0.8120  0.0928  0.3960
   26MOL   C95829008   3.565   6.925   0.309 -0.3482 -0.4346 -0.4532
   26MOL   C95929009   3.510   7.004   0.188 -0.0948 -0.7583  0.8554
   26MOL   C96029010   3.548   7.158   0.200 -0.4317  1.1153  0.1513
   26MOL   C96129011   3.471   7.227   0.315 -0.2766  0.6472 -0.3809
   26MOL   C96229012   3.318   7.240   0.285 -0.0610  0.2355 -0.4328
   26MOL   C96329013   3.242   7.342   0.378  0.0873  0.2184 -0.3893
   26MOL   C96429014   3.254   7.301   0.525  0.7239  0.0407 -0.5348
   26MOL   C96529015   3.157   7.387   0.613 -0.6622  0.9951 -0.4009
   26MOL   C96629016   3.134   7.312   0.747 -1.1276 -0.7752  0.7894
   26MOL   O96729017   3.227   7.265   0.813 -0.1742 -1.2596 -0.2528
   26MOL   N96829018   3.002   7.294   0.774 -0.1411 -0.2304 -0.3895
   26MOL   C96929019   2.967   7.185   0.867 -0.0471 -0.4530  0.4489
   26MOL   C97029020   2.993   7.045   0.807 -0.6952 -0.0337  0.3467
   26MOL   C97129021   2.912   7.026   0.674 -0.5898 -0.0262 -0.3986
   26MOL   C97229022   2.923   6.887   0.612 -0.1963  0.2597  0.1455
   26MOL   C97329023   2.840   6.857   0.483  0.4305  0.3051 -0.1646
   26MOL   C97429024   2.921   6.770   0.381  0.1453  0.1629  0.3658
   26MOL   N97529025   2.837   6.739   0.271  0.5924  0.0995  0.4773
   26MOL   H97629026   3.715   6.941   0.558  1.2474  0.1506  0.8893
   26MOL   H97729027   3.860   6.881   0.481  0.2734 -1.0305  0.1528
   26MOL   H97829028   3.748   6.861   0.249 -2.8683 -0.3152 -0.9778
   26MOL   H97929029   3.769   7.020   0.324  2.0995 -0.6047  1.4056
   26MOL   H98029030   3.532   6.821   0.312 -0.4868 -0.3560  3.0019
   26MOL   H98129031   3.510   6.964   0.395 -1.3823 -2.0059 -0.3797
   26MOL   H98229032   3.559   6.956   0.103 -1.0215  0.6590 -0.5085
   26MOL   H98329033   3.403   6.984   0.183 -0.4702  0.9035  1.8656
   26MOL   H98429034   3.656   7.165   0.209 -0.2274 -2.1740  1.1815
   26MOL   H98529035   3.522   7.211   0.108 -0.1635  1.5331  0.3177
   26MOL   H98629036   3.479   7.177   0.411 -2.5475  1.5640  0.3202
   26MOL   H98729037   3.509   7.324   0.345 -0.1284  0.0927  1.2436
   26MOL   H98829038   3.291   7.280   0.188 -0.6128  1.6446  0.2920
   26MOL   H98929039   3.272   7.140   0.286  0.0540  0.1751  2.0047
   26MOL   H99029040   3.265   7.449   0.374  0.5032  0.2144  1.3613
   26MOL   H99129041   3.138   7.340   0.346 -0.4797  0.7507  1.3565
   26MOL   H99229042   3.352   7.318   0.570 -0.0266 -0.2676  1.2597
   26MOL   H99329043   3.230   7.195   0.525  1.2362 -0.1137  2.0149
   26MOL   H99429044   3.200   7.484   0.637  0.5385  0.2048  0.7308
   26MOL   H99529045   3.066   7.405   0.557 -0.8539  1.6325  0.1035
   26MOL   H99629046   2.936   7.341   0.714  0.9651 -0.1690 -1.5817
   26MOL   H99729047   2.860   7.201   0.880  0.3928  0.5874  3.0376
   26MOL   H99829048   3.008   7.205   0.965  1.0159 -0.4625  0.0074
   26MOL   H99929049   2.960   6.971   0.880 -1.8889 -0.2602 -0.4134
   26MOL     H129050   3.098   7.022   0.791 -1.1186 -1.1509 -0.8349
   26MOL     H229051   2.932   7.108   0.606 -0.4743 -0.9281 -1.4770
   26MOL     H329052   2.807   7.037   0.700 -0.7887 -0.8805 -0.8091
   26MOL     H429053   3.029   6.877   0.587 -0.7240 -0.3688 -1.9342
   26MOL     H529054   2.889   6.821   0.692  1.6228 -0.9391 -0.0480
   26MOL     H629055   2.817   6.953   0.435 -0.0986 -0.7311 -2.0341
   26MOL     H729056   2.743   6.816   0.508  0.8492 -1.4004 -1.2959
   26MOL     H829057   3.017   6.810   0.348  0.9063 -0.1911  2.0790
   26MOL     H929058   2.946   6.685   0.445 -1.0852  1.2465  2.3624
   26MOL    H1029059   2.746   6.783   0.276 -0.0391 -0.8501 -1.8837
   26MOL    C1129060   2.865   6.652   0.175  0.2540  0.3247  0.2537
   26MOL    O1229061   2.970   6.588   0.162  0.0334 -1.0363  0.5864
   26MOL    C1329062   2.756   6.631   0.068  0.3945  0.2440 -0.0341
   26MOL    C1429063   2.816   6.595   7.621  0.0907 -0.5331  0.1326
   26MOL    C1529064   2.703   6.607   7.514  0.2632  0.2817  0.5549
   26MOL    C1629065   2.745   6.554   7.379 -0.4867  0.2641 -0.4230
   26MOL    C1729066   2.765   6.398   7.391  0.5620 -0.1170  0.0741
   26MOL    C1829067   2.803   6.338   7.256  0.4654  0.5198 -0.3423
   26MOL    C1929068   2.831   6.185   7.272 -0.5548  0.5017  0.5358
   26MOL    C2029069   2.703   6.108   7.317  0.1033 -0.1421  0.0131
   26MOL    C2129070   2.720   5.954   7.302 -0.5928 -0.5392  0.7388
   26MOL    C2229071   2.586   5.887   7.307  0.0913 -0.0460 -0.4832
   26MOL    C2329072   2.501   5.899   7.182 -1.0628  0.2732 -0.1096
   26MOL    O2429073   2.557   5.886   7.071 -0.0983 -0.2098 -0.6619
   26MOL    N2529074   2.368   5.910   7.183 -0.1548  0.9116 -0.7800
   26MOL    C2629075   2.284   5.901   7.065  0.3966  0.1272 -0.0147
   26MOL    C2729076   2.132   5.904   7.102 -0.4605  0.4993  0.0504
   26MOL    C2829077   2.035   5.914   6.994 -0.1269 -0.2794 -0.0416
   26MOL    C2929078   2.030   5.798   6.897 -0.5502  0.5059  1.2833
   26MOL    C3029079   1.912   5.801   6.802  0.1925 -0.1040  0.3006
   26MOL    C3129080   1.931   5.706   6.690  0.1498  0.0010  0.2918
   26MOL    N3229081   1.806   5.696   6.605 -0.3348 -0.3000  0.2505
   26MOL    H3329082   2.693   6.718   0.052  0.2130 -0.2286 -2.0319
   26MOL    H3429083   2.689   6.554   0.107 -0.1214  1.3263  1.2643
   26MOL    H3529084   2.850   6.493   7.636  0.8738 -0.0256  1.8679
   26MOL    H3629085   2.899   6.663   7.603 -1.9724  1.5294 -1.8495
   26MOL    H3729086   2.685   6.714   7.503 -1.1112 -0.0114 -0.0979
   26MOL    H3829087   2.617   6.550   7.550 -0.1647  0.2910 -0.4523
   26MOL    H3929088   2.689   6.571   7.287 -0.6050  0.4381 -0.3157
   26MOL    H4029089   2.834   6.602   7.338  1.0023 -0.2952  2.0555
   26MOL    H4129090   2.837   6.376   7.470  3.6470  2.6821 -1.8241
   26MOL    H4229091   2.669   6.354   7.417  1.2850 -1.4980  0.4681
   26MOL    H4329092   2.724   6.357   7.184 -1.3921  0.7306  1.7031
   26MOL    H4429093   2.884   6.395   7.210  1.5970 -0.7624  0.0142
   26MOL    H4529094   2.860   6.151   7.173  0.2685 -0.4565  1.0941
   26MOL    H4629095   2.911   6.171   7.345  1.7271 -1.2960 -2.2338
   26MOL    H4729096   2.689   6.124   7.424  0.1363 -0.7218  0.1014
   26MOL    H4829097   2.607   6.138   7.275  1.3035  1.7081 -1.4738
   26MOL    H4929098   2.776   5.917   7.388  1.8853 -0.9840 -1.0017
   26MOL    H5029099   2.780   5.927   7.215 -2.0408 -1.3226 -0.0271
   26MOL    H5129100   2.610   5.782   7.322 -0.2832 -0.1378 -0.5245
   26MOL    H5229101   2.528   5.929   7.389 -0.7936  0.3747 -1.3164
   26MOL    H5329102   2.318   5.905   7.271  3.1814 -1.1693  1.0706
   26MOL    H5429103   2.310   5.804   7.023 -0.8456  0.0154 -0.5372
   26MOL    H5529104   2.317   5.989   7.010 -1.5535  0.9909  0.1883
   26MOL    H5629105   2.113   5.992   7.163 -1.3656  2.3688 -2.8479
   26MOL    H5729106   2.117   5.822   7.173 -0.5208  2.1868  2.0381
   26MOL    H5829107   2.041   6.011   6.944  2.7424 -1.3509 -1.9122
   26MOL    H5929108   1.943   5.921   7.052  0.8189 -1.0420  1.5919
   26MOL    H6029109   2.023   5.702   6.947  0.9603 -0.8815 -1.0732
   26MOL    H6129110   2.129   5.814   6.854 -1.2854 -0.0769 -0.6561
   26MOL    H6229111   1.906   5.900   6.758 -1.1370 -0.0304  0.6351
   26MOL    H6329112   1.825   5.779   6.864 -0.9941 -0.9616 -1.6605
   26MOL    H6429113   1.935   5.604   6.729 -2.2572 -0.4469 -0.5432
   26MOL    H6529114   2.022   5.738   6.639  1.0837 -1.2947  1.1203
   26MOL    H6629115   1.732   5.765   6.609  0.3313  0.3424  2.3392
   26MOL    C6729116   1.777   5.591   6.530  0.2463 -0.3505 -0.5339
   26MOL    O6829117   1.855   5.499   6.512 -0.3398  0.5933  0.3356
   26MOL    C6929118   1.639   5.590   6.476  0.2814 -0.0141 -0.2648
   26MOL    C7029119   1.619   5.618   6.325 -0.0965 -0.8727 -0.0620
   26MOL    C7129120   1.606   5.771   6.293  0.3100 -0.2176 -0.0383
   26MOL    C7229121   1.589   5.791   6.140 -0.0210 -0.0295  0.3193
   26MOL    C7329122   1.560   5.943   6.109  0.3654 -0.7272  0.0231
   26MOL    C7429123   1.637   6.007   5.993  0.4377  0.2644  0.3100
   26MOL    C7529124   1.607   5.932   5.859  0.7938  0.1731 -0.5222
   26MOL    C7629125   1.689   6.003   5.748 -0.6332 -0.2187  0.0916
   26MOL    C7729126   1.655   5.953   5.613 -0.6620 -0.0130  0.1729
   26MOL    C7829127   1.710   6.046   5.501 -0.8054  0.5353 -0.8360
   26MOL    C7929128   1.622   6.172   5.469  0.8679  0.1912 -0.5004
   26MOL    O8029129   1.496   6.164   5.466  0.1932 -0.2275 -0.8891
   26MOL    N8129130   1.696   6.279   5.444  0.3305  0.4873 -0.0187
   26MOL    C8229131   1.641   6.417   5.424  0.3643  0.5588  0.2409
   26MOL    C8329132   1.675   6.461   5.282  0.2378  0.1640 -0.0279
   26MOL    C8429133   1.622   6.358   5.175 -0.2767 -0.0132  0.5201
   26MOL    C8529134   1.672   6.397   5.033  0.6252 -0.1388 -0.0111
   26MOL    C8629135   1.676   6.283   4.935 -0.6902  0.3903  0.2444
   26MOL    C8729136   1.719   6.330   4.804 -0.5857  0.0549  0.5197
   26MOL    N8829137   1.719   6.222   4.710 -0.9416 -0.1561 -0.4869
   26MOL    H8929138   1.570   5.658   6.526  2.0688  0.4138  1.6859
   26MOL    H9029139   1.611   5.490   6.511  3.6808 -0.3283  1.8217
   26MOL    H9129140   1.702   5.583   6.265  0.9546 -0.1905  0.9490
   26MOL    H9229141   1.535   5.559   6.290 -0.8961  1.5667 -2.4716
   26MOL    H9329142   1.520   5.819   6.339  1.9258 -0.7004  3.7582
   26MOL    H9429143   1.697   5.822   6.327  0.5622 -2.4782  2.9203
   26MOL    H9529144   1.678   5.757   6.085 -1.0436  2.1474 -2.8664
   26MOL    H9629145   1.514   5.722   6.102 -1.7749  1.7320  0.5267
   26MOL    H9729146   1.454   5.929   6.089  0.0839 -0.5763  1.3281
   26MOL    H9829147   1.567   6.016   6.190 -1.2194 -1.0021  0.4161
   26MOL    H9929148   1.598   6.108   5.993 -0.8167 -0.1930  1.4350
   26MOL   H10029149   1.745   6.014   6.006  0.3504  0.1053  1.1756
   26MOL   H10129150   1.500   5.936   5.841  1.0543  0.9944 -1.9523
   26MOL   H10229151   1.657   5.835   5.859  0.6357  0.0916 -0.0269
   26MOL   H10329152   1.682   6.112   5.747 -0.3970 -0.1826  1.4312
   26MOL   H10429153   1.793   5.985   5.776 -1.3448 -0.3746  2.7659
   26MOL   H10529154   1.550   5.930   5.600 -0.4569 -0.8336 -0.0227
   26MOL   H10629155   1.715   5.863   5.609 -1.0182 -0.3178  1.4432
   26MOL   H10729156   1.812   6.079   5.521 -1.2121  0.3019  1.7703
   26MOL   H10829157   1.725   5.988   5.410 -0.6645 -1.9767  0.7284
   26MOL   H10929158   1.796   6.277   5.453  0.2419 -1.0959  0.7081
   26MOL   H11029159   1.694   6.486   5.490  2.1761 -0.9197  0.3811
   26MOL   H11129160   1.535   6.416   5.450  0.6013 -1.5279  1.2552
   26MOL   H11229161   1.783   6.475   5.275  0.4900 -1.5297  0.3698
   26MOL   H11329162   1.621   6.555   5.268  0.1142  0.1206  0.1520
   26MOL   H11429163   1.513   6.361   5.178 -0.2842  0.2559  0.0646
   26MOL   H11529164   1.653   6.257   5.205 -1.3602 -0.7087 -0.6773
   26MOL   H11629165   1.593   6.464   4.999 -0.1970  0.7005  3.3681
   26MOL   H11729166   1.773   6.438   5.032 -0.0619  1.5469 -0.8609
   26MOL   H11829167   1.745   6.207   4.974 -1.5020  1.1510  3.3140
   26MOL   H11929168   1.576   6.242   4.927 -0.7108  0.4046  0.4363
   26MOL   H12029169   1.649   6.405   4.768  1.7902  1.8450 -0.5041
   26MOL   H12129170   1.815   6.382   4.813 -0.2683 -0.3307 -0.5351
   26MOL   H12229171   1.641   6.166   4.741 -2.4269  1.0077 -2.0072
   26MOL   H12329172   1.809   6.179   4.726 -1.2668 -0.0346  1.8917
   27MOL     C129173   6.659   4.892   3.229  0.3807 -0.5516 -0.1992
   27MOL     O229174   6.535   4.872   3.238  0.2368 -0.5090 -0.3768
   27MOL     C329175   6.757   4.795   3.165  0.0146 -0.1560  0.1283
   27MOL     C429176   6.681   4.670   3.117 -0.4445  0.0055 -0.0471
   27MOL     C529177   6.764   4.548   3.087  0.3680 -0.0031  0.3062
   27MOL     C629178   6.709   4.473   2.962 -0.5397  0.5782  0.4923
   27MOL     C729179   6.782   4.334   2.919 -0.0520 -0.3066  0.5861
   27MOL     C829180   6.746   4.217   3.012 -0.6221 -0.8075 -0.2597
   27MOL     C929181   6.838   4.096   3.005  0.1163 -0.3605  1.2376
   27MOL    C1029182   6.786   3.975   3.084  0.3900  0.4184 -0.7890
   27MOL    C1129183   6.776   3.994   3.238  0.1431 -0.6020  0.4296
   27MOL    C1229184   6.774   3.863   3.320 -0.0479 -0.0464  0.5580
   27MOL    C1329185   6.719   3.890   3.461 -0.5511 -0.3892 -0.1439
   27MOL    O1429186   6.786   3.955   3.538  0.0116 -0.2989 -0.3378
   27MOL    N1529187   6.601   3.834   3.498  0.0449 -0.0154 -0.0157
   27MOL    C1629188   6.541   3.843   3.629  0.2171 -0.2213  0.2032
   27MOL    C1729189   6.433   3.954   3.645  0.0168 -0.4302 -0.2655
   27MOL    C1829190   6.328   3.973   3.531 -0.2515  0.1014 -0.4858
   27MOL    C1929191   6.215   4.061   3.580 -0.0595  0.5404  0.0302
   27MOL    C2029192   6.116   4.093   3.469  0.3697  0.9711  0.1050
   27MOL    C2129193   6.036   3.975   3.412 -0.4454 -0.2644 -0.2164
   27MOL    N2229194   5.963   4.009   3.290 -0.0448  0.3317 -0.9183
   27MOL    H2329195   6.830   4.762   3.240 -0.1106  2.9713  1.6865
   27MOL    H2429196   6.809   4.847   3.085 -0.4233 -0.0715 -0.1005
   27MOL    H2529197   6.609   4.685   3.036 -0.4326 -0.4603 -0.1457
   27MOL    H2629198   6.620   4.644   3.203  1.7843 -0.5915  1.3710
   27MOL    H2729199   6.770   4.483   3.174 -0.8800 -0.3884  0.1082
   27MOL    H2829200   6.865   4.578   3.057  0.8544 -1.3028  0.5963
   27MOL    H2929201   6.604   4.449   2.980 -0.0898 -0.8348  1.3617
   27MOL    H3029202   6.714   4.538   2.875 -0.0397 -1.3440 -0.9404
   27MOL    H3129203   6.888   4.361   2.924 -0.0195 -0.4828  0.8243
   27MOL    H3229204   6.769   4.312   2.813  1.7542  0.3592  0.2133
   27MOL    H3329205   6.742   4.250   3.116  1.1559  2.3315 -1.1408
   27MOL    H3429206   6.647   4.180   2.983 -0.9716  1.9234 -2.7909
   27MOL    H3529207   6.838   4.058   2.903  0.4266  1.9886  0.3225
   27MOL    H3629208   6.942   4.115   3.033  0.7125 -0.0738 -1.0469
   27MOL    H3729209   6.688   3.947   3.046 -0.1584  3.6358 -1.8868
   27MOL    H3829210   6.855   3.893   3.064 -0.3540 -0.2485 -0.6479
   27MOL    H3929211   6.682   4.044   3.259 -0.9470 -3.1038  1.7055
   27MOL    H4029212   6.859   4.058   3.268  0.1131 -0.9926  1.3811
   27MOL    H4129213   6.710   3.790   3.270 -0.3676  0.1295  0.7081
   27MOL    H4229214   6.875   3.825   3.309  0.2123  1.2860 -2.0658
   27MOL    H4329215   6.546   3.789   3.427 -0.3464 -2.4640  1.7593
   27MOL    H4429216   6.609   3.831   3.713  0.4098  0.4458  0.1483
   27MOL    H4529217   6.487   3.749   3.641  1.2072 -0.4888  2.9051
   27MOL    H4629218   6.485   4.047   3.671  1.6478 -0.4035 -3.3648
   27MOL    H4729219   6.380   3.932   3.737  1.7272 -0.0124  0.8614
   27MOL    H4829220   6.390   4.025   3.458  2.3138 -1.3111  0.6298
   27MOL    H4929221   6.301   3.879   3.483  0.4289 -0.6342  0.5654
   27MOL    H5029222   6.260   4.150   3.623  1.0202  0.8408 -1.6834
   27MOL    H5129223   6.154   4.030   3.665 -1.7437  0.7046 -1.0926
   27MOL    H5229224   6.053   4.170   3.513 -0.5089  1.1381 -1.4275
   27MOL    H5329225   6.166   4.140   3.385  0.1400  1.5281  0.2794
   27MOL    H5429226   6.114   3.904   3.383  0.3535 -0.9808  3.4923
   27MOL    H5529227   5.964   3.934   3.482 -2.2165  1.9662 -0.6725
   27MOL    H5629228   5.922   4.102   3.297  0.9505  0.5917  2.4062
   27MOL    H5729229   6.694   4.984   3.277 -0.5753  0.1812 -0.8918
   27MOL    C5829230   5.945   3.935   3.178  0.3328 -0.3159  0.2357
   27MOL    O5929231   5.997   3.822   3.166 -0.4997 -0.4464 -0.4626
   27MOL    C6029232   5.862   4.008   3.068  0.0323 -0.0093 -0.0136
   27MOL    C6129233   5.788   3.930   2.962 -0.4687  0.5190  0.3503
   27MOL    C6229234   5.844   3.937   2.819 -1.0132  0.6290  0.2705
   27MOL    C6329235   5.978   3.851   2.800 -0.2278 -0.6574 -0.0456
   27MOL    C6429236   6.039   3.873   2.662 -0.4313  0.1801 -0.0527
   27MOL    C6529237   6.181   3.799   2.654 -0.0585 -0.6260 -0.6171
   27MOL    C6629238   6.269   3.840   2.533  0.4892  0.2083  0.6424
   27MOL    C6729239   6.189   3.821   2.395 -1.4583 -0.5687 -0.4562
   27MOL    C6829240   6.293   3.831   2.281  0.1014  0.3108 -0.3363
   27MOL    C6929241   6.237   3.780   2.146  0.0753 -0.3308 -0.2135
   27MOL    C7029242   6.353   3.757   2.039 -0.2932 -0.2717  0.2621
   27MOL    O7129243   6.452   3.825   2.051 -0.8904  0.0193 -0.1123
   27MOL    N7229244   6.344   3.668   1.943 -0.3248  0.2231 -0.0556
   27MOL    C7329245   6.448   3.650   1.844 -0.7491 -0.5360 -0.7481
   27MOL    C7429246   6.422   3.524   1.769  0.2389 -0.8063  0.0274
   27MOL    C7529247   6.524   3.483   1.663 -0.1228 -0.7747  0.2371
   27MOL    C7629248   6.493   3.353   1.588 -0.5150  0.2977  0.6416
   27MOL    C7729249   6.503   3.236   1.690 -0.0637 -0.3238 -0.2509
   27MOL    C7829250   6.482   3.100   1.618  0.2678  0.5290  0.1538
   27MOL    N7929251   6.543   2.987   1.686  0.3323  0.1747  0.5018
   27MOL    H8029252   5.919   4.084   3.014  0.2097 -1.3360 -1.7357
   27MOL    H8129253   5.803   4.079   3.126  0.7675  1.1097 -0.6045
   27MOL    H8229254   5.773   3.826   2.991  0.4732  0.9987  2.7058
   27MOL    H8329255   5.687   3.970   2.957  0.6310  3.4980  0.9932
   27MOL    H8429256   5.863   4.039   2.784 -1.6891  1.2347  1.6035
   27MOL    H8529257   5.781   3.880   2.751  2.0292 -1.1975 -1.1447
   27MOL    H8629258   5.943   3.749   2.811 -3.8518  0.5059  0.1480
   27MOL    H8729259   6.043   3.870   2.885 -1.0699 -1.2435  0.7390
   27MOL    H8829260   5.975   3.822   2.589  0.0639  0.3865 -0.6337
   27MOL    H8929261   6.047   3.977   2.632 -2.9464 -0.2087 -2.3451
   27MOL    H9029262   6.167   3.691   2.659  0.8985 -0.7294  0.0025
   27MOL    H9129263   6.222   3.820   2.753  1.3424  1.0315 -1.5202
   27MOL    H9229264   6.357   3.776   2.533  0.9125  0.7688  2.2293
   27MOL    H9329265   6.304   3.942   2.543  1.6393 -0.1209  0.0390
   27MOL    H9429266   6.134   3.727   2.390 -1.1932 -0.6730 -1.6906
   27MOL    H9529267   6.120   3.903   2.378  0.3623  0.7187 -1.8693
   27MOL    H9629268   6.377   3.773   2.320 -1.5054 -3.6068 -2.3682
   27MOL    H9729269   6.313   3.938   2.278 -0.4209  0.3797 -1.6382
   27MOL    H9829270   6.186   3.684   2.151  0.5795 -0.5959 -0.1540
   27MOL    H9929271   6.157   3.846   2.112  0.9618  1.6522  1.4203
   27MOL   H10029272   6.254   3.628   1.923  1.5001 -3.2339 -1.7688
   27MOL   H10129273   6.553   3.654   1.874 -0.6646  2.2183 -1.2890
   27MOL   H10229274   6.452   3.732   1.773  1.4866  0.7529  0.7949
   27MOL   H10329275   6.393   3.439   1.831  2.7274 -2.0373 -0.4209
   27MOL   H10429276   6.337   3.548   1.706  0.3659 -1.9113 -0.5840
   27MOL   H10529277   6.624   3.477   1.707 -0.1964  0.1142  0.5334
   27MOL   H10629278   6.535   3.562   1.589 -2.3535  0.2789  1.0000
   27MOL   H10729279   6.395   3.360   1.540 -0.7766 -0.2084  1.0941
   27MOL   H10829280   6.568   3.328   1.513 -1.2437  3.5069 -1.2885
   27MOL   H10929281   6.429   3.236   1.770 -0.3790  1.7825 -0.5171
   27MOL   H11029282   6.600   3.241   1.738 -0.5627  3.4589  0.5057
   27MOL   H11129283   6.520   3.102   1.516  0.0941  0.9765  0.0966
   27MOL   H11229284   6.376   3.077   1.607  0.4373 -0.3459  0.3021
   27MOL   H11329285   6.534   2.985   1.786  0.3241  1.2000  0.5292
   27MOL   C11429286   6.637   2.908   1.635 -0.2001 -0.5264  0.8317
   27MOL   O11529287   6.683   2.922   1.522 -0.1287  1.0022 -0.1597
   27MOL   C11629288   6.695   2.807   1.731 -0.1314  1.0105 -0.1569
   27MOL   C11729289   6.785   2.699   1.680 -0.0933  0.4304 -0.1000
   27MOL   C11829290   6.929   2.716   1.718 -0.2579  0.1922 -0.0947
   27MOL   C11929291   7.031   2.598   1.689 -0.0100  0.4910 -0.0166
   27MOL   C12029292   7.095   2.606   1.549  0.3331  0.2404  0.3905
   27MOL   C12129293   7.196   2.722   1.533  0.1829  0.2693  0.9791
   27MOL   C12229294   7.254   2.730   1.391  0.1474  0.2871 -0.2637
   27MOL   C12329295   7.148   2.762   1.281 -0.1872 -0.1485 -0.5229
   27MOL   C12429296   7.073   2.890   1.295 -0.2435 -1.2396  0.1697
   27MOL   C12529297   7.005   2.925   1.168 -0.1538  0.2681  0.0215
   27MOL   C12629298   7.092   3.014   1.080 -0.0531 -1.5130 -0.1848
   27MOL   O12729299   7.216   2.990   1.060 -0.2399 -0.1277 -0.6117
   27MOL   N12829300   7.020   3.101   1.017  0.4230 -0.7184  0.4019
   27MOL   C12929301   7.058   3.179   0.898 -0.0711  0.0559  0.1516
   27MOL   C13029302   7.011   3.114   0.770  0.1274 -0.2799  0.5198
   27MOL   C13129303   7.084   2.992   0.708  0.8171  0.3355 -0.9030
   27MOL   C13229304   7.004   2.939   0.588 -0.2103  0.2470 -0.4977
   27MOL   C13329305   7.085   2.871   0.481 -0.5649 -0.0626  1.1199
   27MOL   C13429306   7.000   2.822   0.367  0.3131 -0.3898  0.6360
   27MOL   N13529307   6.889   2.741   0.407  0.2893  0.5405 -0.3715
   27MOL   H13629308   6.748   2.862   1.808  0.0459 -1.8609  1.8335
   27MOL   H13729309   6.619   2.746   1.780  1.1540  0.6431  1.4338
   27MOL   H13829310   6.782   2.685   1.572  1.8132 -0.2323 -0.0908
   27MOL   H13929311   6.751   2.609   1.732 -1.8285  1.4234  0.5221
   27MOL   H14029312   6.957   2.807   1.664 -1.2423 -0.0089 -0.9706
   27MOL   H14129313   6.946   2.742   1.822  0.5440  0.4125 -0.2788
   27MOL   H14229314   7.123   2.599   1.747  0.6773 -2.8532 -0.8970
   27MOL   H14329315   6.979   2.506   1.717  0.7882 -0.3038 -1.0900
   27MOL   H14429316   7.153   2.513   1.544 -0.0251 -0.0988  2.2101
   27MOL   H14529317   7.012   2.599   1.479 -1.2606 -0.9078  2.3361
   27MOL   H14629318   7.273   2.702   1.608  0.3910  2.8203  1.5164
   27MOL   H14729319   7.154   2.819   1.559 -1.5764  0.1994 -1.4222
   27MOL   H14829320   7.329   2.808   1.382  2.1489 -1.3030  1.9089
   27MOL   H14929321   7.301   2.634   1.366 -0.8866 -1.0024  2.4767
   27MOL   H15029322   7.071   2.686   1.273  1.4109 -1.5294 -3.4937
   27MOL   H15129323   7.202   2.744   1.188 -0.1188 -1.8658 -0.1738
   27MOL   H15229324   7.147   2.967   1.318 -1.5758 -0.6528  2.6037
   27MOL   H15329325   6.994   2.884   1.369 -1.2795  1.8979 -0.6371
   27MOL   H15429326   6.920   2.989   1.194  0.5799  0.8134  1.1408
   27MOL   H15529327   6.986   2.837   1.108 -0.1687  0.7202 -0.6413
   27MOL   H15629328   6.925   3.116   1.047  0.3100  1.3068 -0.8537
   27MOL   H15729329   7.166   3.190   0.893  0.0394 -1.6876 -1.8268
   27MOL   H15829330   7.018   3.281   0.898 -0.2572  0.0038  1.7729
   27MOL   H15929331   6.994   3.195   0.699  1.8251 -1.2117 -0.9907
   27MOL   H16029332   6.911   3.079   0.795 -0.1527  0.5857  0.6320
   27MOL   H16129333   7.188   3.015   0.686  1.8928 -1.5286  1.8385
   27MOL   H16229334   7.100   2.916   0.784  3.8653  1.2041 -0.6252
   27MOL   H16329335   6.917   2.882   0.622 -1.6491  2.6800 -0.0344
   27MOL   H16429336   6.958   3.029   0.546  0.6840  1.4195  1.0128
   27MOL   H16529337   7.144   2.786   0.516  1.4108  0.5215 -0.6470
   27MOL   H16629338   7.165   2.931   0.437  0.6085 -2.1078  0.3925
   27MOL   H16729339   6.961   2.910   0.315  1.9734  0.0403  0.0727
   27MOL   H16829340   7.061   2.756   0.304  1.8535  1.7932 -0.2075
   27MOL   H16929341   6.897   2.697   0.498 -1.3194  0.6773 -0.1411
   27MOL   C17029342   6.774   2.718   0.338  0.5472 -0.0764  0.6123
   27MOL   O17129343   6.769   2.773   0.231  0.0231 -0.2028  0.1335
   27MOL   C17229344   6.660   2.648   0.406  0.3326 -0.1899 -0.4262
   27MOL   C17329345   6.554   2.747   0.445  0.8076 -0.7388 -0.2582
   27MOL   C17429346   6.422   2.680   0.469  0.1380  0.8187 -0.8380
   27MOL   C17529347   6.325   2.751   0.564 -0.2992  0.0029  0.5524
   27MOL   C17629348   6.184   2.685   0.577  0.3569 -0.6834  0.3855
   27MOL   C17729349   6.083   2.737   0.679  0.0588  0.0686 -0.3958
   27MOL   C17829350   6.132   2.704   0.826 -0.7335  0.0853 -0.3387
   27MOL   C17929351   6.044   2.763   0.930 -0.5574  0.4991 -0.0095
   27MOL   C18029352   6.092   2.721   1.069  0.5222 -0.5912  0.4748
   27MOL   C18129353   6.041   2.825   1.172 -0.3203  0.0380  0.0758
   27MOL   C18229354   6.118   2.957   1.174  0.2630  1.1092 -0.3847
   27MOL   O18329355   6.234   2.964   1.211 -0.1466  0.0928 -0.3581
   27MOL   N18429356   6.051   3.064   1.141  0.4542  0.2843  0.5601
   27MOL   C18529357   6.105   3.200   1.141  0.5879  0.9329  0.0411
   27MOL   C18629358   6.088   3.268   1.277  0.4327  0.0557 -0.0290
   27MOL   C18729359   5.994   3.213   1.388  0.6936  0.2287  0.0468
   27MOL   C18829360   6.008   3.298   1.510 -0.1108 -0.1252 -0.3506
   27MOL   C18929361   5.946   3.242   1.638  0.4718  0.3521 -0.0601
   27MOL   C19029362   5.970   3.347   1.745 -0.3507  0.9114 -0.3738
   27MOL   N19129363   5.910   3.300   1.870  0.1602 -0.1161  0.2277
   27MOL   H19229364   6.612   2.579   0.337  0.5254 -0.2258 -0.5276
   27MOL   H19329365   6.702   2.596   0.492 -0.1173  1.5361  0.8723
   27MOL   H19429366   6.538   2.824   0.370  0.4968 -1.2786 -0.7501
   27MOL   H19529367   6.585   2.802   0.534  1.5144 -2.0732  0.3473
   27MOL   H19629368   6.427   2.574   0.495  0.1540  0.4894 -2.1261
   27MOL   H19729369   6.376   2.666   0.371 -1.0377  1.3039 -0.3688
   27MOL   H19829370   6.370   2.769   0.662 -0.7840  2.1512  0.3962
   27MOL   H19929371   6.334   2.849   0.517  0.4185 -0.0149  0.6354
   27MOL   H20029372   6.133   2.668   0.482  0.5532  0.8537 -0.0018
   27MOL   H20129373   6.194   2.579   0.603 -0.6032 -1.1448 -1.0180
   27MOL   H20229374   5.984   2.692   0.678  0.2446 -0.3550  0.3241
   27MOL   H20329375   6.064   2.844   0.666  1.5628  0.5832  1.4831
   27MOL   H20429376   6.127   2.598   0.849  1.2071 -0.1090 -0.6741
   27MOL   H20529377   6.237   2.733   0.838 -0.5969 -0.2224 -0.7432
   27MOL   H20629378   6.036   2.871   0.927 -2.4428  0.3965  0.6031
   27MOL   H20729379   5.943   2.733   0.901 -0.8327  1.1514  0.2649
   27MOL   H20829380   6.199   2.710   1.088  0.4678  0.8370  1.5969
   27MOL   H20929381   6.047   2.624   1.092 -1.6088  0.4660  0.8616
   27MOL   H21029382   5.937   2.859   1.168 -0.4245  0.0771  2.3680
   27MOL   H21129383   6.052   2.768   1.264 -2.5244 -0.6104 -0.0401
   27MOL   H21229384   5.954   3.052   1.116  1.0475 -0.6508 -1.3441
   27MOL   H21329385   6.029   3.251   1.082  1.2482  1.2183 -0.5700
   27MOL   H21429386   6.201   3.217   1.092  0.0505 -0.5163 -1.5378
   27MOL   H21529387   6.185   3.278   1.324  0.2152  2.7923 -0.0659
   27MOL   H21629388   6.057   3.372   1.261 -1.5809 -0.3339  1.1335
   27MOL   H21729389   5.892   3.206   1.351  1.8147 -1.8320 -2.8394
   27MOL   H21829390   6.026   3.109   1.401 -0.8246 -0.4033 -1.1042
   27MOL   H21929391   5.950   3.386   1.481  1.9411  0.6183 -2.3635
   27MOL   H22029392   6.109   3.330   1.537  0.2117 -0.9776 -0.5262
   27MOL   H22129393   5.977   3.141   1.661 -0.9275 -0.0451  0.0963
   27MOL   H22229394   5.839   3.229   1.621  0.2105  1.0324  1.0369
   27MOL   H22329395   5.934   3.448   1.728  1.2109  1.7325  0.9844
   27MOL   H22429396   6.078   3.354   1.759 -0.0912 -0.5607 -1.5193
   27MOL   H22529397   5.970   3.228   1.907 -1.5698 -1.7820 -0.1381
   27MOL   C22629398   5.801   3.356   1.936  0.0215 -0.5288  0.3095
   27MOL   O22729399   5.733   3.446   1.887  0.1905 -0.4365  0.8190
   27MOL   C22829400   5.767   3.305   2.079  0.2647 -0.0169  0.6346
   27MOL   C22929401   5.677   3.404   2.158 -0.6138  0.5243  0.6856
   27MOL   C23029402   5.529   3.405   2.120  0.9221 -0.1664  0.1760
   27MOL   C23129403   5.450   3.505   2.193 -0.1754  0.1338 -0.2535
   27MOL   C23229404   5.300   3.524   2.143 -0.0075 -0.1290 -0.0852
   27MOL   C23329405   5.213   3.400   2.175 -0.0932 -0.4191 -0.0535
   27MOL   C23429406   5.064   3.422   2.167 -0.0049  0.0456 -0.0530
   27MOL   C23529407   4.983   3.293   2.212 -0.1438 -0.5321 -0.7124
   27MOL   C23629408   4.831   3.331   2.199  0.3006  0.4803 -0.1633
   27MOL   C23729409   4.733   3.214   2.236  0.7079 -0.3584 -0.5568
   27MOL   C23829410   4.722   3.183   2.386 -0.2775  0.2815 -0.3239
   27MOL   O23929411   4.820   3.180   2.453 -0.1859  0.2229 -0.1876
   27MOL   N24029412   4.592   3.180   2.440 -0.5345  0.0171  0.2703
   27MOL   C24129413   4.561   3.155   2.570 -0.0330  0.1027 -0.3011
   27MOL   C24229414   4.516   3.013   2.602 -0.3179 -0.0436 -0.0598
   27MOL   C24329415   4.413   2.962   2.502  0.3365 -0.4519  0.2347
   27MOL   C24429416   4.465   2.868   2.394  0.7538  0.5374 -0.2444
   27MOL   C24529417   4.383   2.862   2.266 -0.2576  0.3974 -0.4340
   27MOL   C24629418   4.439   2.774   2.152  0.1035 -0.3058 -0.1740
   27MOL   N24729419   4.572   2.804   2.098 -0.2952  0.2596  0.4426
   27MOL   H24829420   5.861   3.308   2.134  0.7087  1.2529 -0.1612
   27MOL   H24929421   5.726   3.205   2.064  0.6280  0.0264 -0.6996
   27MOL   H25029422   5.678   3.396   2.267  0.5765  1.0585  0.7228
   27MOL   H25129423   5.717   3.505   2.149  3.0056 -0.9280 -0.8831
   27MOL   H25229424   5.513   3.417   2.013  0.7656 -1.0981  0.0911
   27MOL   H25329425   5.488   3.307   2.146 -1.9057  1.2441  1.1856
   27MOL   H25429426   5.497   3.599   2.162  3.2184 -1.3212  0.1919
   27MOL   H25529427   5.447   3.486   2.300  1.1632  0.4687 -0.1433
   27MOL   H25629428   5.305   3.549   2.036 -0.8671  1.5424  0.2430
   27MOL   H25729429   5.259   3.611   2.194 -1.8360 -1.6936  1.1518
   27MOL   H25829430   5.251   3.324   2.106  2.8290  1.0513 -0.1432
   27MOL   H25929431   5.242   3.365   2.275  3.4943  0.3125 -0.7577
   27MOL   H26029432   5.036   3.456   2.067 -1.7420 -0.8946  0.1002
   27MOL   H26129433   5.041   3.500   2.240  1.1881  0.4291 -0.0813
   27MOL   H26229434   5.004   3.210   2.145 -0.1461 -1.6526  0.6410
   27MOL   H26329435   5.015   3.257   2.310 -2.0718  2.3395  1.0655
   27MOL   H26429436   4.819   3.426   2.250 -1.9765  1.2973 -2.1499
   27MOL   H26529437   4.808   3.358   2.096  1.1797  1.9111  0.0022
   27MOL   H26629438   4.633   3.238   2.199  0.4114  2.0211  1.6445
   27MOL   H26729439   4.763   3.125   2.179 -1.0124 -0.4286 -1.3878
   27MOL   H26829440   4.511   3.202   2.384 -1.4185 -0.0103  1.5223
   27MOL   H26929441   4.484   3.220   2.611 -0.4511 -1.0314  0.7491
   27MOL   H27029442   4.655   3.176   2.621  0.2534 -0.0727 -0.7550
   27MOL   H27129443   4.476   3.006   2.703  1.8666  3.2970  1.1536
   27MOL   H27229444   4.600   2.944   2.611 -0.3213 -0.0056  0.2673
   27MOL   H27329445   4.338   2.903   2.556  1.0852 -0.6557  1.0570
   27MOL   H27429446   4.351   3.034   2.448 -0.0681 -0.4784  0.6595
   27MOL   H27529447   4.494   2.772   2.438  1.2704 -0.4027 -2.5616
   27MOL   H27629448   4.567   2.894   2.365  0.6686  1.6559  0.4237
   27MOL   H27729449   4.357   2.962   2.232 -1.9807  0.5152  1.0933
   27MOL   H27829450   4.289   2.813   2.293 -1.4189  2.8811  0.1622
   27MOL   H27929451   4.372   2.779   2.066 -0.4817  3.1102  0.4062
   27MOL   H28029452   4.450   2.668   2.176 -0.9551 -1.0160 -2.6779
   27MOL   H28129453   4.649   2.739   2.109 -0.0346  0.4941  0.0151
   27MOL   C28229454   4.598   2.906   2.015 -0.3683 -0.2062  0.5366
   27MOL   O28329455   4.509   2.983   1.980  0.3583 -0.6690  0.7559
   27MOL   C28429456   4.737   2.912   1.960 -0.3219  0.5525 -0.3286
   27MOL   C28529457   4.760   2.990   1.827 -0.0445 -0.3524 -0.3413
   27MOL   C28629458   4.895   2.972   1.746 -0.3191  0.0472  0.0061
   27MOL   C28729459   5.013   3.054   1.808  0.1366 -0.1940  0.3174
   27MOL   C28829460   5.082   2.974   1.919  0.1531  0.6052 -0.1854
   27MOL   C28929461   5.229   3.019   1.949 -0.0378  0.2013  0.1544
   27MOL   C29029462   5.289   2.937   2.059  0.0762 -0.5961  0.2328
   27MOL   C29129463   5.437   2.967   2.085 -0.0823 -0.0660 -0.1843
   27MOL   C29229464   5.524   2.953   1.963 -0.0627 -0.1270  0.1011
   27MOL   C29329465   5.674   2.916   1.977 -0.1488 -0.3039 -0.9686
   27MOL   C29429466   5.700   2.770   1.995  0.7424  0.0607  0.0784
   27MOL   O29529467   5.646   2.686   1.923  0.0135  0.2827  0.5192
   27MOL   N29629468   5.795   2.728   2.083 -0.1663 -0.7877  0.3691
   27MOL   C29729469   5.838   2.589   2.103 -0.2843  0.5634 -0.3981
   27MOL   C29829470   5.981   2.563   2.051 -0.0739 -0.8273  0.4251
   27MOL   C29929471   6.078   2.653   2.129  0.6005 -0.0905 -0.0078
   27MOL   C30029472   6.217   2.633   2.075 -0.1710 -0.2744 -0.7720
   27MOL   C30129473   6.332   2.714   2.146 -0.0651 -0.6620 -0.2311
   27MOL   C30229474   6.471   2.693   2.085  0.6868 -0.6023  0.6177
   27MOL   N30329475   6.565   2.784   2.134  0.4801 -0.7502  0.0677
   27MOL   H30429476   4.800   2.954   2.039  0.7940 -2.3703  0.3974
   27MOL   H30529477   4.774   2.811   1.941 -0.8450  0.1445  0.7505
   27MOL   H30629478   4.719   3.091   1.824 -1.2881 -0.8966 -2.0279
   27MOL   H30729479   4.681   2.946   1.766 -1.4355  0.5516  0.7805
   27MOL   H30829480   4.926   2.872   1.717 -1.4530 -0.0214 -1.0106
   27MOL   H30929481   4.870   3.026   1.654  0.1333  1.0802  0.4751
   27MOL   H31029482   4.975   3.148   1.848  3.3435  2.1269 -1.8006
   27MOL   H31129483   5.087   3.073   1.730  0.4626  0.2962  0.7355
   27MOL   H31229484   5.019   2.985   2.007  0.2987 -0.5969  0.0711
   27MOL   H31329485   5.078   2.867   1.902  0.8623  1.0745 -3.7589
   27MOL   H31429486   5.297   3.010   1.864 -2.9040  1.2715 -2.3461
   27MOL   H31529487   5.230   3.123   1.984  2.5745  0.9323 -1.8837
   27MOL   H31629488   5.286   2.835   2.020 -1.3109 -0.3968 -0.1840
   27MOL   H31729489   5.227   2.959   2.146  0.4671  2.1140 -0.1334
   27MOL   H31829490   5.464   2.903   2.169  0.1979  0.1443 -0.1110
   27MOL   H31929491   5.446   3.070   2.120  0.3223 -0.2527  0.2652
   27MOL   H32029492   5.488   2.889   1.883 -1.7805  0.5517  0.3056
   27MOL   H32129493   5.525   3.051   1.915  0.7427 -0.0417  0.2748
   27MOL   H32229494   5.734   2.943   1.889  3.4160  0.2661  1.5445
   27MOL   H32329495   5.727   2.970   2.055  0.1796  1.1871 -2.1922
   27MOL   H32429496   5.830   2.804   2.139  1.9725 -2.3029  1.1533
   27MOL   H32529497   5.772   2.518   2.054  1.2383 -0.6088 -0.7839
   27MOL   H32629498   5.842   2.575   2.211 -0.3000 -0.2081 -0.4975
   27MOL   H32729499   5.982   2.601   1.948 -1.2386  3.0660  1.7464
   27MOL   H32829500   6.016   2.461   2.059 -0.1047 -0.7848  1.0858
   27MOL   H32929501   6.077   2.632   2.236  0.6062 -0.5152 -0.0895
   27MOL   H33029502   6.049   2.757   2.115  0.4449  0.2346  2.4751
   27MOL   H33129503   6.249   2.529   2.066 -0.4349 -0.6239  2.0297
   27MOL   H33229504   6.218   2.664   1.970  0.6231  1.4720 -0.2621
   27MOL   H33329505   6.324   2.696   2.253 -2.9259  0.0348 -0.2812
   27MOL   H33429506   6.320   2.822   2.133  1.4538 -0.5041 -0.4206
   27MOL   H33529507   6.518   2.603   2.124 -2.4268 -1.8580  1.6224
   27MOL   H33629508   6.453   2.696   1.977  0.8184  1.2986  0.6397
   27MOL   H33729509   6.622   2.744   2.207 -1.4669 -1.0327  1.4741
   27MOL   C33829510   6.609   2.893   2.071  0.4636  0.5619  0.0326
   27MOL   O33929511   6.548   2.937   1.970  0.1850  0.0118 -0.6160
   27MOL   C34029512   6.731   2.962   2.124  0.1823  0.1778 -0.6606
   27MOL   C34129513   6.708   3.110   2.156  0.3161  0.3064  0.8500
   27MOL   C34229514   6.712   3.200   2.024 -0.5079  0.3422  0.5504
   27MOL   C34329515   6.775   3.333   2.058 -0.1523 -0.5355 -1.1821
   27MOL   C34429516   6.781   3.445   1.957  0.2367 -0.0028  0.0721
   27MOL   C34529517   6.868   3.565   2.000  0.9328 -0.0136 -0.4291
   27MOL   C34629518   6.867   3.671   1.893 -0.2016  0.3786  0.0049
   27MOL   C34729519   6.938   3.633   1.770  0.1608 -0.5667 -0.0500
   27MOL   C34829520   6.959   3.748   1.673 -0.2293  0.6160 -0.1541
   27MOL   C34929521   7.053   3.722   1.562  0.6168 -0.2765 -0.2158
   27MOL   C35029522   6.994   3.649   1.445  0.4799 -1.0483 -0.1689
   27MOL   O35129523   6.873   3.621   1.435  0.4674  0.2108  0.8132
   27MOL   N35229524   7.086   3.631   1.345 -0.4559 -0.3036 -0.3094
   27MOL   C35329525   7.052   3.598   1.207 -0.8322 -0.0314 -0.3802
   27MOL   C35429526   7.102   3.464   1.170 -0.5790 -0.3639  0.0651
   27MOL   C35529527   7.237   3.426   1.228  0.0596  0.2670 -0.2450
   27MOL   C35629528   7.310   3.308   1.153 -0.2272  0.1111  0.5614
   27MOL   C35729529   7.452   3.275   1.217  0.2202  0.3375  0.0668
   27MOL   C35829530   7.521   3.150   1.170  0.0120  0.1020 -0.7394
   27MOL   N35929531   7.505   3.128   1.029  0.2142  0.3388 -0.6173
   27MOL   H36029532   6.817   2.958   2.057  1.4919  0.8465  0.9506
   27MOL   H36129533   6.768   2.924   2.218 -1.0110  0.6358  0.0063
   27MOL   H36229534   6.613   3.111   2.209 -0.9322  0.5874 -1.3548
   27MOL   H36329535   6.775   3.149   2.233  1.2898 -0.3062  0.3243
   27MOL   H36429536   6.614   3.205   1.978 -1.1598 -0.5996  1.8090
   27MOL   H36529537   6.784   3.145   1.964 -0.7507  2.0747 -1.4029
   27MOL   H36629538   6.716   3.364   2.145  1.2420  0.3646 -0.5353
   27MOL   H36729539   6.873   3.314   2.101  0.4657  1.1186 -1.8106
   27MOL   H36829540   6.820   3.403   1.864 -0.1233 -0.4453  0.1216
   27MOL   H36929541   6.685   3.492   1.936 -0.0857  0.3295  2.1431
   27MOL   H37029542   6.829   3.616   2.088 -1.7278 -0.4991 -1.2851
   27MOL   H37129543   6.965   3.522   2.027  0.9878 -0.3032 -1.0904
   27MOL   H37229544   6.774   3.727   1.886  1.2552  3.1347  1.5676
   27MOL   H37329545   6.941   3.739   1.937 -0.0083 -0.1966  0.5807
   27MOL   H37429546   7.037   3.596   1.796  0.0538 -1.8913 -1.4932
   27MOL   H37529547   6.872   3.564   1.718 -2.1666  1.0975  0.5673
   27MOL   H37629548   6.989   3.836   1.730 -0.2295 -1.3195  2.9288
   27MOL   H37729549   6.868   3.779   1.622  0.1050  0.9649 -0.5528
   27MOL   H37829550   7.084   3.823   1.533  0.0886  0.3779  1.4328
   27MOL   H37929551   7.141   3.671   1.601  0.9793  0.0269 -0.6306
   27MOL   H38029552   7.184   3.645   1.363 -0.4720 -0.3787 -0.1626
   27MOL   H38129553   7.108   3.679   1.160  0.5674 -1.9849 -2.2177
   27MOL   H38229554   6.952   3.630   1.180  0.1463  0.0967 -4.1236
   27MOL   H38329555   7.102   3.454   1.061  2.0323 -1.0559  0.1113
   27MOL   H38429556   7.023   3.394   1.199 -1.4210  0.7407  0.4908
   27MOL   H38529557   7.312   3.505   1.231  0.3922  0.0283 -1.7569
   27MOL   H38629558   7.217   3.396   1.331 -2.6000 -0.7931 -1.0294
   27MOL   H38729559   7.248   3.218   1.151 -0.7437  0.4918 -0.7412
   27MOL   H38829560   7.315   3.317   1.045 -0.6336 -1.2635  0.4240
   27MOL   H38929561   7.436   3.266   1.325 -1.7205  0.8309 -0.1678
   27MOL   H39029562   7.512   3.364   1.196  3.0892 -1.6239 -0.3575
   27MOL   H39129563   7.630   3.147   1.183 -0.0433 -2.5243 -0.6278
   27MOL   H39229564   7.482   3.069   1.232  0.1992  0.0083 -0.7426
   27MOL   H39329565   7.434   3.063   0.999  1.1535 -0.2427 -1.5990
   27MOL   C39429566   7.567   3.212   0.945 -0.9855  0.3748 -0.8657
   27MOL   O39529567   7.670   3.272   0.977 -0.1769 -0.1144  0.7607
   27MOL   C39629568   7.530   3.211   0.795  0.3484  0.1097  0.4727
   27MOL   C39729569   7.651   3.189   0.707 -0.6043 -0.5713  0.2895
   27MOL   C39829570   7.619   3.156   0.564  0.0081  0.3369  0.4289
   27MOL   C39929571   7.521   3.251   0.500 -0.1442 -0.1579 -0.0742
   27MOL   C40029572   7.491   3.222   0.359 -0.5630  0.0437  0.2310
   27MOL   C40129573   7.377   3.120   0.343 -0.3558  0.2430 -0.5620
   27MOL   C40229574   7.324   3.101   0.199 -0.0516 -0.5152  0.9549
   27MOL   C40329575   7.188   3.158   0.177 -0.2744 -0.3945 -0.2875
   27MOL   C40429576   7.161   3.169   0.026  0.9281  0.1584 -0.1861
   27MOL   C40529577   7.022   3.238   0.010  0.1934 -0.5734 -0.1339
   27MOL   C40629578   6.976   3.262   7.559  0.1359  0.0945  0.3017
   27MOL   O40729579   7.051   3.242   7.459 -0.3122  0.3676 -0.2856
   27MOL   N40829580   6.853   3.322   7.549  1.2143 -0.0612  0.5847
   27MOL   C40929581   6.795   3.379   7.423 -0.2852 -0.1577  0.1834
   27MOL   C41029582   6.693   3.279   7.364 -0.6314  0.4447  0.5932
   27MOL   C41129583   6.606   3.351   7.261  1.3747  0.6740 -0.8239
   27MOL   C41229584   6.498   3.269   7.208  0.7159  0.0121  0.7466
   27MOL   C41329585   6.402   3.354   7.128  0.0113 -0.5821  0.1134
   27MOL   C41429586   6.323   3.269   7.027 -0.2051  1.5314 -0.1716
   27MOL   N41529587   6.381   3.265   6.895 -0.4697 -0.6330 -0.0387
   27MOL   H41629588   7.481   3.308   0.787  0.4940  0.7349  5.4629
   27MOL   H41729589   7.456   3.133   0.775  1.3383 -0.8701  0.5382
   27MOL   H41829590   0.038   3.126   0.748  0.6654  2.1388  2.2120
   27MOL   H41929591   0.014   3.283   0.710  1.3108 -1.6351 -0.4867
   27MOL   H42029592   7.588   3.053   0.549  0.8109  0.2251 -0.5337
   27MOL   H42129593   0.025   3.164   0.517 -0.0027  0.5941  0.4487
   27MOL   H42229594   7.562   3.352   0.507  1.5014 -0.6363 -2.3138
   27MOL   H42329595   7.426   3.255   0.553  0.5759  1.0745  1.1710
   27MOL   H42429596   7.451   3.315   0.317 -1.6631 -0.0075  1.1412
   27MOL   H42529597   7.578   3.215   0.294  0.6983  1.6152  1.7013
   27MOL   H42629598   7.425   3.024   0.365 -0.4655  0.0670 -1.0677
   27MOL   H42729599   7.296   3.150   0.408  0.9451  0.2093  1.1108
   27MOL   H42829600   7.398   3.153   0.138  2.0163 -0.6120  3.2954
   27MOL   H42929601   7.337   2.996   0.174  1.8807  0.1975 -1.2401
   27MOL   H43029602   7.121   3.079   0.210  0.9891 -1.7867 -0.9966
   27MOL   H43129603   7.173   3.252   0.231 -1.1388 -0.1248 -0.9752
   27MOL   H43229604   7.166   3.074   7.666 -2.0341 -1.2889  2.0196
   27MOL   H43329605   7.239   3.228   7.669 -1.2981  1.2918 -2.5044
   27MOL   H43429606   6.949   3.170   0.055  0.5823 -1.5285 -0.9371
   27MOL   H43529607   7.028   3.339   0.050 -0.8337 -1.1535  1.5734
   27MOL   H43629608   6.799   3.318   7.634 -1.4227 -0.6392 -1.0618
   27MOL   H43729609   6.872   3.399   7.348 -0.1151 -0.6279  0.2282
   27MOL   H43829610   6.736   3.466   7.451  0.4603 -0.3937  2.5781
   27MOL   H43929611   6.634   3.238   7.446 -2.1354  2.7939  0.7402
   27MOL   H44029612   6.740   3.190   7.324 -2.0106  0.1813 -0.4780
   27MOL   H44129613   6.559   3.437   7.308 -2.1809 -0.4271 -2.1979
   27MOL   H44229614   6.662   3.404   7.184  1.5304 -0.5362 -1.5628
   27MOL   H44329615   6.550   3.207   7.135  1.9352  2.9410 -0.9703
   27MOL   H44429616   6.446   3.205   7.279  1.3613 -1.8065 -0.3868
   27MOL   H44529617   6.326   3.405   7.189  1.9831  3.2727 -0.4523
   27MOL   H44629618   6.456   3.434   7.077 -1.0965  0.9368  1.2341
   27MOL   H44729619   6.296   3.171   7.063  1.0323  0.7624 -1.2732
   27MOL   H44829620   6.227   3.317   7.007 -0.6708  0.2919 -0.9912
   27MOL   H44929621   6.355   3.343   6.836 -1.2359  0.0471  1.1866
   27MOL   C45029622   6.440   3.163   6.827  0.1988  0.4133  0.5867
   27MOL   O45129623   6.443   3.049   6.881 -0.1218 -0.1685  0.0414
   27MOL   C45229624   6.494   3.191   6.688  0.1006 -0.2181 -0.8187
   27MOL   C45329625   6.529   3.059   6.620  0.9736 -0.8957  0.5274
   27MOL   C45429626   6.625   3.085   6.503  0.7562  0.5473  0.0734
   27MOL   C45529627   6.689   2.963   6.443  0.0730 -0.3749 -0.1068
   27MOL   C45629628   6.783   2.891   6.536 -0.6084  0.5886 -0.0854
   27MOL   C45729629   6.915   2.973   6.567  0.6909 -0.6023  0.4688
   27MOL   C45829630   7.020   2.887   6.633  0.6931  0.0635  0.8218
   27MOL   C45929631   7.140   2.981   6.681  0.0166 -0.6200  0.5078
   27MOL   C46029632   7.227   2.923   6.793 -0.2101  0.7558  0.2530
   27MOL   C46129633   7.308   3.027   6.871 -0.0592 -0.1558 -0.2640
   27MOL   C46229634   7.414   3.098   6.792 -0.0771  0.1750  0.2757
   27MOL   O46329635   7.477   3.035   6.711 -0.3838 -0.0973  0.2470
   27MOL   N46429636   7.436   3.229   6.815 -0.7326 -0.1288 -0.9411
   27MOL   C46529637   7.528   3.314   6.741  0.8307 -0.0822  0.6281
   27MOL   C46629638   7.597   3.411   6.832  0.0438  0.1039 -0.0492
   27MOL   C46729639   0.003   3.507   6.748  0.5252 -0.7485 -0.0384
   27MOL   C46829640   0.113   3.582   6.831  0.2028  0.4454 -0.3344
   27MOL   C46929641   0.219   3.656   6.748 -0.4632  0.2954  0.4440
   27MOL   C47029642   0.324   3.720   6.834 -0.5974 -0.5078  0.5642
   27MOL   N47129643   0.425   3.792   6.752  0.2472  0.5158 -0.5094
   27MOL   H47229644   6.423   3.256   6.637 -1.2696 -0.2483  0.9855
   27MOL   H47329645   6.587   3.247   6.697  1.3939 -2.7113  2.2929
   27MOL   H47429646   6.438   3.002   6.597  1.1086 -1.6073  1.6901
   27MOL   H47529647   6.578   2.994   6.693 -1.3327 -0.2609  2.7139
   27MOL   H47629648   6.709   3.150   6.530 -0.6924  2.4187  0.1724
   27MOL   H47729649   6.581   3.138   6.418 -2.6502 -1.5498  0.4288
   27MOL   H47829650   6.740   2.983   6.349  1.0792  0.0434  0.5115
   27MOL   H47929651   6.609   2.893   6.418 -0.7559  0.6110 -0.2581
   27MOL   H48029652   6.792   2.788   6.501 -0.4060  1.2095 -1.9414
   27MOL   H48129653   6.743   2.875   6.636 -0.6215 -0.2513 -0.2176
   27MOL   H48229654   6.900   3.058   6.634  0.2259 -0.2279 -0.1010
   27MOL   H48329655   6.959   3.017   6.478  0.2820 -0.3429  0.3931
   27MOL   H48429656   6.975   2.834   6.717 -0.6186 -0.0440  0.0577
   27MOL   H48529657   7.058   2.806   6.571 -1.5783 -1.0627  0.8690
   27MOL   H48629658   7.185   3.006   6.585 -2.9819 -1.2627 -1.1405
   27MOL   H48729659   7.110   3.084   6.701 -0.1181 -0.6094  0.2532
   27MOL   H48829660   7.289   2.839   6.765 -1.2383 -0.3634  1.2607
   27MOL   H48929661   7.159   2.878   6.866  3.5073 -3.0683  1.4996
   27MOL   H49029662   7.235   3.083   6.930  0.9136  0.2873  0.5514
   27MOL   H49129663   7.369   2.982   6.949  0.6064  0.7999 -0.2220
   27MOL   H49229664   7.372   3.274   6.879  0.9601  0.6123  0.2726
   27MOL   H49329665   7.476   3.374   6.667  0.0495  1.2732  2.2408
   27MOL   H49429666   7.606   3.251   6.698 -1.2427 -2.0723 -0.2962
   27MOL   H49529667   7.524   3.466   6.891 -0.6878 -1.2205  0.3112
   27MOL   H49629668   7.645   3.343   6.903  2.1870  2.3825  0.7668
   27MOL   H49729669   7.627   3.576   6.697  1.3245  2.2243  2.7498
   27MOL   H49829670   0.048   3.445   6.671  1.0365  2.1663 -2.1874
   27MOL   H49929671   0.158   3.506   6.895 -0.3723  3.0482  3.3372
   27MOL   H50029672   0.064   3.649   6.902 -0.0435  1.2789 -1.2824
   27MOL   H50129673   0.269   3.590   6.677  1.6406 -0.2962  2.4101
   27MOL   H50229674   0.176   3.738   6.691  0.1618  0.6136  0.4247
   27MOL   H50329675   0.284   3.790   6.908 -1.2548 -0.2683 -0.0175
   27MOL   H50429676   0.372   3.640   6.889 -0.9314 -1.1298 -0.0413
   27MOL   H50529677   0.402   3.889   6.739  1.4115  0.7916 -0.4785
   27MOL   C50629678   0.531   3.741   6.689 -0.3777  0.3621 -0.4672
   27MOL   O50729679   0.561   3.622   6.708  0.0412 -0.4814  0.3063
   27MOL   C50829680   0.612   3.840   6.604 -0.0948 -0.0500  0.1967
   27MOL   C50929681   0.750   3.879   6.665 -1.0160 -0.1964  0.0264
   27MOL   C51029682   0.766   4.015   6.746  0.1896  0.9373 -0.5023
   27MOL   C51129683   0.883   4.009   6.846  0.2851 -0.7326  0.6209
   27MOL   C51229684   0.829   3.963   6.975 -0.2716  0.4317 -0.1741
   27MOL   C51329685   0.930   3.953   7.093  0.3783  0.0970  0.1482
   27MOL   C51429686   0.874   3.898   7.225  0.3556  0.5773  0.3042
   27MOL   C51529687   0.993   3.894   7.333 -0.2034  0.6230  0.3132
   27MOL   C51629688   0.942   3.842   7.464 -0.4355 -0.0600  0.1226
   27MOL   C51729689   0.834   3.929   7.536  0.4319 -0.0055  0.2988
   27MOL   C51829690   0.809   3.887   7.684  0.1639  0.5483  0.3158
   27MOL   O51929691   0.779   3.770   0.022 -0.2222 -0.2501 -0.2429
   27MOL   N52029692   0.800   3.987   0.085  0.0544 -0.0256 -0.2368
   27MOL   C52129693   0.773   3.975   0.225  0.3318  0.3487 -0.4736
   27MOL   C52229694   0.624   3.977   0.243  0.8191  0.2229  0.9170
   27MOL   C52329695   0.595   3.979   0.399 -0.5333 -0.2985  0.3913
   27MOL   C52429696   0.446   3.975   0.431 -0.6552  0.0875  0.4767
   27MOL   C52529697   0.396   4.043   0.556  0.0577  0.0471  0.0618
   27MOL   C52629698   0.246   4.039   0.573  0.3409 -0.1065  0.1493
   27MOL   N52729699   0.206   4.093   0.704 -0.3415  0.0815 -0.1377
   27MOL   H52829700   0.556   3.931   6.582  1.1296  0.8997  0.9210
   27MOL   H52929701   0.624   3.788   6.509 -1.9887  0.1781 -0.1931
   27MOL   H53029702   0.823   3.877   6.584  1.1906  2.2343  1.8750
   27MOL   H53129703   0.787   3.805   6.736  3.9040  0.3150 -1.7993
   27MOL   H53229704   0.675   4.007   6.805 -0.7786 -1.0557 -2.1855
   27MOL   H53329705   0.762   4.104   6.683  1.6927  0.5390 -1.1956
   27MOL   H53429706   0.969   3.945   6.827  0.5638 -0.0926 -0.3197
   27MOL   H53529707   0.909   4.114   6.858  0.0351 -0.5922 -0.0266
   27MOL   H53629708   0.749   4.032   7.004  1.4701  1.8165  1.4604
   27MOL   H53729709   0.786   3.863   6.964  0.8828 -0.1680  0.6499
   27MOL   H53829710   1.017   3.894   7.064  0.2759  0.9341 -1.9227
   27MOL   H53929711   0.961   4.055   7.115 -1.9017  0.5614  1.4184
   27MOL   H54029712   0.785   3.956   7.245 -0.7014 -0.1487 -2.0767
   27MOL   H54129713   0.824   3.802   7.216 -0.0701  0.9809 -2.1548
   27MOL   H54229714   1.066   3.821   7.298 -0.6489  0.8991 -1.2193
   27MOL   H54329715   1.051   3.984   7.352  1.3182  0.1683 -2.0354
   27MOL   H54429716   1.029   3.833   7.530  0.6086 -3.3015 -1.6096
   27MOL   H54529717   0.909   3.740   7.447 -1.2751  0.0941  0.7724
   27MOL   H54629718   0.836   4.038   7.531 -0.8779  0.1169  2.1805
   27MOL   H54729719   0.738   3.915   7.487  1.1253  0.6168 -1.2749
   27MOL   H54829720   0.852   4.070   0.060  1.7170 -1.5436 -2.0123
   27MOL   H54929721   0.821   4.067   0.257  2.1578 -0.1391 -1.7044
   27MOL   H55029722   0.819   3.882   0.260 -1.3846 -0.3535 -0.0612
   27MOL   H55129723   0.579   3.891   0.194  3.5419  0.3140 -1.9233
   27MOL   H55229724   0.578   4.053   0.180  1.5540 -0.9747 -1.1177
   27MOL   H55329725   0.638   4.065   0.452  0.0452 -0.3550  0.0162
   27MOL   H55429726   0.639   3.891   0.445 -1.6725 -1.8873 -1.5129
   27MOL   H55529727   0.418   3.870   0.427 -0.8103  0.1003  1.1153
   27MOL   H55629728   0.387   4.020   0.351 -0.2929  0.2908  0.3235
   27MOL   H55729729   0.438   3.999   0.646  0.3950 -0.4414 -0.3336
   27MOL   H55829730   0.431   4.146   0.552 -1.7997  0.6678 -1.4586
   27MOL   H55929731   0.193   4.085   0.490  2.4566 -0.3040 -1.3463
   27MOL   H56029732   0.216   3.935   0.569  0.3942 -0.1088 -0.1597
   27MOL   H56129733   0.242   4.036   0.778  1.0970  2.1670  0.8456
   27MOL   C56229734   0.142   4.210   0.726 -0.6710  0.5100  0.4141
   27MOL   O56329735   0.085   4.279   0.637 -0.1671 -0.4451 -0.4533
   27MOL   C56429736   0.121   4.248   0.869  0.7052  0.6665  0.5512
   27MOL   C56529737   0.010   4.353   0.905  0.5169  0.0279 -0.4765
   27MOL   C56629738   7.559   4.299   0.940 -0.4389 -0.0524  0.8228
   27MOL   C56729739   7.552   4.242   1.085  0.0683 -0.2851 -0.1986
   27MOL   C56829740   7.408   4.203   1.128  0.5558  0.6972  0.5139
   27MOL   C56929741   7.402   4.156   1.279 -0.3259 -0.1591  0.4036
   27MOL   C57029742   7.261   4.148   1.335 -0.5629  0.6553  0.5344
   27MOL   C57129743   7.174   4.037   1.265 -0.6594 -0.1516 -0.6102
   27MOL   C57229744   7.034   4.049   1.304  0.1114  0.4128 -0.4756
   27MOL   C57329745   6.947   3.951   1.227  0.0519 -0.1761 -0.4071
   27MOL   C57429746   6.800   3.979   1.249  0.1568  0.8908  0.4272
   27MOL   O57529747   6.755   4.089   1.220 -0.0186 -0.1870  0.1610
   27MOL   N57629748   6.719   3.881   1.288 -0.1985 -0.2478 -1.3592
   27MOL   C57729749   6.581   3.901   1.342  0.2354 -0.4533 -0.0336
   27MOL   C57829750   6.572   3.880   1.495 -0.5277 -0.9954 -0.5084
   27MOL   C57929751   6.655   3.974   1.584  0.4827  0.1585  0.2711
   27MOL   C58029752   6.628   3.964   1.731  0.3102  0.4498  0.1799
   27MOL   C58129753   6.703   4.075   1.806 -0.1949  0.2909  0.1778
   27MOL   C58229754   6.658   4.117   1.943  0.3393  0.2777  0.1423
   27MOL   N58329755   6.655   4.006   2.038  0.2230  0.0643  0.0002
   27MOL   H58429756   0.107   4.163   0.937 -1.8143  0.7442  0.1905
   27MOL   H58529757   0.214   4.295   0.899  0.1979  0.9244  1.7522
   27MOL   H58629758   0.037   4.419   0.987 -2.9375 -0.6918  1.3740
   27MOL   H58729759   7.689   4.403   0.809  0.9438  0.6734 -0.2008
   27MOL   H58829760   7.535   4.219   0.871  1.1200  1.2317 -1.2554
   27MOL   H58929761   7.472   4.362   0.924 -0.8831 -1.0064 -0.5613
   27MOL   H59029762   7.616   4.159   1.113  0.3710 -0.1651 -0.5314
   27MOL   H59129763   7.589   4.324   1.145 -0.3500 -0.3729  0.1851
   27MOL   H59229764   7.338   4.284   1.106 -0.4268 -0.2809 -0.0141
   27MOL   H59329765   7.369   4.122   1.066 -2.3480  2.2996  0.1454
   27MOL   H59429766   7.448   4.064   1.315  0.3645 -0.2481 -0.6577
   27MOL   H59529767   7.445   4.236   1.340 -1.3557  1.0673 -0.4375
   27MOL   H59629768   7.265   4.135   1.443 -0.8052  0.1250  0.4864
   27MOL   H59729769   7.221   4.247   1.316  2.7677  2.5489  2.9484
   27MOL   H59829770   7.204   3.936   1.293 -0.0680  0.4092  0.7854
   27MOL   H59929771   7.180   4.055   1.157  0.3510  3.5689 -0.0076
   27MOL   H60029772   7.003   4.149   1.276 -4.2869 -0.5510  0.5302
   27MOL   H60129773   7.011   4.035   1.410  0.6657  3.9427  0.1806
   27MOL   H60229774   6.959   3.957   1.119 -1.2226  2.1631 -0.4602
   27MOL   H60329775   6.980   3.851   1.257 -0.2233 -0.0029  0.5037
   27MOL   H60429776   6.757   3.788   1.293 -0.0482 -0.2008 -1.6026
   27MOL   H60529777   6.501   3.839   1.302 -2.9833  1.6843  2.8211
   27MOL   H60629778   6.544   4.003   1.335  0.4826 -0.3283  0.4990
   27MOL   H60729779   6.613   3.781   1.516 -0.9449 -0.6188  2.2977
   27MOL   H60829780   6.467   3.875   1.523 -0.0575 -0.2986  1.4824
   27MOL   H60929781   6.641   4.075   1.547  2.1241 -0.8392 -3.2643
   27MOL   H61029782   6.761   3.952   1.570  0.6667 -1.4421  3.6318
   27MOL   H61129783   6.522   3.984   1.746  0.5734  0.3537  2.2267
   27MOL   H61229784   6.659   3.865   1.765 -3.0523 -1.4195 -1.9191
   27MOL   H61329785   6.702   4.166   1.747 -0.2117  0.0222 -0.2455
   27MOL   H61429786   6.803   4.031   1.804 -0.0972  0.5215  0.0422
   27MOL   H61529787   6.715   4.204   1.976  0.1152 -0.3842  2.3403
   27MOL   H61629788   6.557   4.155   1.929  0.5244  0.2090 -1.5220
   27MOL   H61729789   6.580   3.940   2.026 -1.4764  1.6538  1.5408
   27MOL   C61829790   6.746   3.976   2.130  0.0737  0.8306  0.1538
   27MOL   O61929791   6.852   4.040   2.157 -0.3290  0.0090  0.0029
   27MOL   C62029792   6.724   3.847   2.208  0.1845 -0.0974  0.0342
   27MOL   C62129793   6.653   3.880   2.339  0.3359 -0.2098  0.3355
   27MOL   C62229794   6.745   3.951   2.448  0.3748 -0.7200 -0.1132
   27MOL   C62329795   6.845   3.848   2.499 -0.3736  0.4383 -0.0489
   27MOL   C62429796   6.946   3.912   2.592  0.1350  0.0396 -0.3844
   27MOL   C62529797   7.035   3.801   2.653 -0.0563 -0.7993  0.8085
   27MOL   C62629798   7.128   3.862   2.760 -0.1356  0.4166 -0.3092
   27MOL   C62729799   7.233   3.761   2.816  0.0679 -0.5500  0.2747
   27MOL   C62829800   7.173   3.652   2.913  0.2564  0.0085 -0.3325
   27MOL   C62929801   7.132   3.720   3.046  0.0012  0.2971  0.8588
   27MOL   C63029802   7.084   3.640   3.163 -0.9807 -0.6629 -0.0996
   27MOL   O63129803   6.975   3.592   3.170  0.2280 -0.5622  0.2564
   27MOL   N63229804   7.177   3.622   3.257 -0.4463 -0.0696 -0.4030
   27MOL   C63329805   7.166   3.548   3.379  0.1057 -0.1105 -0.3894
   27MOL   C63429806   7.055   3.590   3.470  0.4445  0.7171 -0.5657
   27MOL   C63529807   7.078   3.533   3.614 -0.0380  0.8845 -0.5187
   27MOL   C63629808   6.990   3.587   3.727 -0.6399 -0.5416 -1.2089
   27MOL   C63729809   6.847   3.549   3.719  0.3009 -0.7883 -0.1625
   27MOL   C63829810   6.762   3.613   3.831 -0.4767 -0.0124  0.3296
   27MOL   N63929811   6.823   3.582   3.955 -0.3218 -0.1454  0.2433
   27MOL   H64029812   6.817   3.794   2.227 -0.4145 -1.2972 -0.3325
   27MOL   H64129813   6.661   3.776   2.154 -0.3702  0.9188 -0.6865
   27MOL   H64229814   6.618   3.783   2.373  1.0038  0.1741  2.1586
   27MOL   H64329815   6.566   3.943   2.320  0.5307 -0.1561 -0.3855
   27MOL   H64429816   6.685   4.004   2.522  0.4493 -0.0640 -0.5109
   27MOL   H64529817   6.802   4.029   2.397 -0.1399 -0.6683 -0.6186
   27MOL   H64629818   6.797   3.766   2.551 -1.2611  0.0252 -1.4890
   27MOL   H64729819   6.900   3.795   2.421  0.2878  1.2550 -0.1448
   27MOL   H64829820   7.017   3.977   2.540 -3.1332  1.9386 -2.6717
   27MOL   H64929821   6.890   3.965   2.669  0.1078  0.9818 -1.0352
   27MOL   H65029822   7.093   3.747   2.578  0.9932  1.9574 -0.4276
   27MOL   H65129823   6.965   3.734   2.703 -1.5081  2.2522  3.0678
   27MOL   H65229824   7.171   3.956   2.725  1.8551 -0.3564 -0.0546
   27MOL   H65329825   7.064   3.904   2.837  0.2775 -0.5010  0.5438
   27MOL   H65429826   7.283   3.714   2.731 -1.1755 -1.9659  0.3005
   27MOL   H65529827   7.307   3.815   2.875  1.3465 -1.9695  0.0101
   27MOL   H65629828   7.244   3.574   2.940 -1.2405 -1.2199  0.0953
   27MOL   H65729829   7.092   3.602   2.859  0.5454 -0.2745 -0.5068
   27MOL   H65829830   7.210   3.785   3.084  0.5793  0.0088  0.1676
   27MOL   H65929831   7.047   3.782   3.017 -1.1411 -0.2686  2.8761
   27MOL   H66029832   7.260   3.680   3.249  0.1493 -0.4798  2.1261
   27MOL   H66129833   7.161   3.439   3.367 -1.7970  0.0347 -1.1700
   27MOL   H66229834   7.256   3.570   3.436 -1.0863 -1.4400  2.1178
   27MOL   H66329835   6.963   3.559   3.422  0.5821  0.4636 -0.6636
   27MOL   H66429836   7.055   3.699   3.466 -0.5700  0.7913  0.9346
   27MOL   H66529837   7.057   3.428   3.592 -2.5697  1.3513 -0.5544
   27MOL   H66629838   7.183   3.548   3.638 -0.0989  1.5342 -0.6503
   27MOL   H66729839   6.998   3.695   3.724  1.0378 -0.6652 -1.9054
   27MOL   H66829840   7.032   3.561   3.824 -0.6873 -0.4064 -1.1531
   27MOL   H66929841   6.806   3.590   3.627  1.4119  2.5305  0.7457
   27MOL   H67029842   6.833   3.442   3.706 -0.3144 -0.5123 -1.9407
   27MOL   H67129843   6.771   3.722   3.822 -2.5592  0.2931  1.7348
   27MOL   H67229844   6.656   3.589   3.835 -0.0733 -1.5147  2.2955
   27MOL   H67329845   6.909   3.531   3.947  0.0206  0.7438 -2.0898
   27MOL   C67429846   6.792   3.628   4.073  0.0887  0.9078  0.4488
   27MOL   O67529847   6.711   3.717   4.095 -0.0853 -0.2368 -0.2108
   27MOL   C67629848   6.872   3.565   4.189  0.4881 -0.0065  0.0394
   27MOL   C67729849   6.993   3.648   4.234  0.4982  0.6416 -0.0266
   27MOL   C67829850   7.098   3.666   4.126  0.3136 -0.6567 -0.1955
   27MOL   C67929851   7.245   3.669   4.185  0.2093 -0.0910 -0.1834
   27MOL   C68029852   7.277   3.803   4.250  0.8136  0.5325 -0.2664
   27MOL   C68129853   7.415   3.803   4.323 -0.0001  0.2273  0.3984
   27MOL   C68229854   7.543   3.767   4.250  0.0739  0.4662  0.7727
   27MOL   C68329855   7.660   3.732   4.347 -0.5749 -0.2788  0.4058
   27MOL   C68429856   7.637   3.593   4.404 -0.5131 -0.2501 -0.5194
   27MOL   C68529857   0.038   3.560   4.529 -0.5173 -0.0140 -0.2890
   27MOL   C68629858   7.689   3.614   4.660  0.2114 -0.1523  0.3488
   27MOL   O68729859   7.613   3.713   4.668 -0.2899  0.2194  0.3311
   27MOL   N68829860   0.048   3.567   4.777 -0.3116 -0.3083 -0.1373
   27MOL   C68929861   0.016   3.629   4.907  0.1294 -0.0881  0.2570
   27MOL   C69029862   0.116   3.586   5.020  0.2928 -0.3030  0.0785
   27MOL   C69129863   0.115   3.659   5.147 -0.0281 -0.0437  0.0316
   27MOL   C69229864   0.229   3.616   5.240  0.5394 -0.4226  0.0286
   27MOL   C69329865   0.235   3.689   5.379 -1.3585  0.1015  0.2674
   27MOL   C69429866   0.341   3.623   5.475 -0.4084 -0.6425 -0.3513
   27MOL   N69529867   0.316   3.682   5.603  0.1161  0.4633 -0.1091
   27MOL   H69629868   6.896   3.460   4.173 -0.0868  0.0052 -0.9237
   27MOL   H69729869   6.799   3.558   4.270  0.9729 -0.4676  0.4380
   27MOL   H69829870   7.040   3.590   4.313 -1.5014 -0.6929  0.2294
   27MOL   H69929871   6.958   3.741   4.279  0.0580  0.7907 -0.6659
   27MOL   H70029872   7.078   3.588   4.053 -1.0132  0.2007 -0.7818
   27MOL   H70129873   7.079   3.756   4.066  2.0583 -1.5600 -2.1969
   27MOL   H70229874   7.319   3.653   4.106  0.1306  0.8020 -0.4552
   27MOL   H70329875   7.254   3.590   4.258  0.6522  0.2725  0.1558
   27MOL   H70429876   7.205   3.832   4.326  3.0995 -0.9312  2.5437
   27MOL   H70529877   7.280   3.872   4.166 -3.3709  1.4673  0.2892
   27MOL   H70629878   7.433   3.907   4.350 -2.2766  0.6607  0.3651
   27MOL   H70729879   7.407   3.748   4.417  2.7202  1.6874  1.5237
   27MOL   H70829880   7.522   3.673   4.199 -0.6311  0.5227  0.9528
   27MOL   H70929881   7.555   3.847   4.177 -1.7535  1.0524  1.0952
   27MOL   H71029882   0.059   3.723   4.287 -0.3147 -2.1050  1.0115
   27MOL   H71129883   7.685   3.814   4.414 -0.0233 -1.1230  1.2518
   27MOL   H71229884   7.665   3.524   4.324  1.3756  0.1093 -0.1726
   27MOL   H71329885   7.532   3.569   4.419 -1.0165  2.2214  0.1581
   27MOL   H71429886   0.058   3.453   4.532  0.1895  0.0130 -2.6618
   27MOL   H71529887   0.137   3.599   4.505 -0.5106 -0.2246 -0.6171
   27MOL   H71629888   0.110   3.488   4.781 -0.7844 -0.5900  1.8628
   27MOL   H71729889   0.023   3.737   4.907 -1.3482  0.0206  0.9309
   27MOL   H71829890   7.608   3.591   4.933 -1.5526  3.3018 -0.9839
   27MOL   H71929891   0.217   3.582   4.979  0.4109 -0.3698  0.3772
   27MOL   H72029892   0.094   3.484   5.052  0.8496  0.0430  1.5676
   27MOL   H72129893   0.103   3.767   5.135 -2.4822 -0.4548 -1.6402
   27MOL   H72229894   0.026   3.632   5.204  0.5332  2.5452  2.2717
   27MOL   H72329895   0.326   3.632   5.194  0.2236  1.3832 -0.0731
   27MOL   H72429896   0.219   3.508   5.251  0.8586 -0.2665  2.0031
   27MOL   H72529897   0.135   3.677   5.420 -1.9618 -2.1007 -1.6878
   27MOL   H72629898   0.261   3.795   5.379  0.6806 -0.2852 -3.1840
   27MOL   H72729899   0.331   3.514   5.473 -1.9041 -0.4977 -2.6676
   27MOL   H72829900   0.439   3.656   5.440 -0.6546  0.2539 -0.1883
   27MOL   H72929901   0.239   3.748   5.609 -0.6559 -0.5868  2.9546
   27MOL   C73029902   0.374   3.644   5.720 -0.3675 -0.5797 -0.4578
   27MOL   O73129903   0.470   3.568   5.730 -0.5798  0.1069  0.0283
   27MOL   C73229904   0.319   3.708   5.847  0.5834 -0.0586 -0.3511
   27MOL   C73329905   0.408   3.822   5.899  0.0143  0.0597 -0.2268
   27MOL   C73429906   0.411   3.957   5.823  0.1192  0.9275  0.2955
   27MOL   C73529907   0.507   4.056   5.884 -0.4434 -0.3061  0.0282
   27MOL   C73629908   0.555   4.159   5.781  0.3697 -0.2521 -0.1343
   27MOL   C73729909   0.666   4.255   5.821 -0.9187 -0.0472  0.5105
   27MOL   C73829910   0.654   4.339   5.949 -0.4560 -0.3202 -0.3064
   27MOL   C73929911   0.780   4.420   5.991 -0.0338  0.1660  0.2485
   27MOL   C74029912   0.823   4.510   5.884 -0.3871  0.5886  0.2686
   27MOL   C74129913   0.926   4.604   5.941  0.3120  0.0085  0.4870
   27MOL   C74229914   1.061   4.540   5.973  1.5423 -0.2997  0.0001
   27MOL   O74329915   1.114   4.481   5.880 -0.3585  0.0333  0.0349
   27MOL   N74429916   1.103   4.552   6.098  0.3874 -0.1464  0.5382
   27MOL   C74529917   1.229   4.502   6.156 -0.0174  0.0551  0.1216
   27MOL   C74629918   1.325   4.621   6.157 -0.6693  0.0163  0.1578
   27MOL   C74729919   1.467   4.595   6.224 -0.2357  0.1191  0.3983
   27MOL   C74829920   1.545   4.717   6.268 -0.1830 -0.0906  0.2962
   27MOL   C74929921   1.692   4.675   6.298  0.5369 -0.6083  0.4039
   27MOL   C75029922   1.790   4.778   6.347  0.0027 -0.4103  0.6098
   27MOL   N75129923   1.929   4.743   6.343  0.2539 -0.0327  0.0852
   27MOL   H75229924   0.316   3.630   5.923  0.6124  0.7477  0.4904
   27MOL   H75329925   0.215   3.740   5.839  1.3047  3.3017  2.1034
   27MOL   H75429926   0.508   3.781   5.916 -0.2751 -0.4044  0.3843
   27MOL   H75529927   0.367   3.835   6.000 -2.3085  1.0844 -1.2715
   27MOL   H75629928   0.310   3.990   5.797 -0.6323 -1.6142 -0.1398
   27MOL   H75729929   0.457   3.927   5.729  1.0576  1.0204  0.7268
   27MOL   H75829930   0.591   3.999   5.923 -1.9919 -2.5156  0.2235
   27MOL   H75929931   0.469   4.117   5.966 -1.5142  0.0458 -0.7138
   27MOL   H76029932   0.463   4.209   5.748  0.9048  1.1843  0.4885
   27MOL   H76129933   0.590   4.118   5.686  1.9631  0.9143 -0.0791
   27MOL   H76229934   0.747   4.184   5.839 -0.8635 -1.1000 -3.5605
   27MOL   H76329935   0.693   4.313   5.733 -0.7427  2.9475  2.4638
   27MOL   H76429936   0.570   4.408   5.948 -1.4886 -1.5462  0.4969
   27MOL   H76529937   0.625   4.264   6.023  1.3330 -1.1990 -0.4611
   27MOL   H76629938   0.760   4.479   6.080  0.0670  0.1273  0.2973
   27MOL   H76729939   0.864   4.359   6.026  1.0585  1.3582 -0.2854
   27MOL   H76829940   0.741   4.577   5.860  1.4000  3.2750  1.4420
   27MOL   H76929941   0.863   4.455   5.798 -0.0594  1.1885  0.0342
   27MOL   H77029942   0.953   4.680   5.867  0.5156 -0.5340  0.0020
   27MOL   H77129943   0.876   4.659   6.021 -1.5071  0.3585 -0.8704
   27MOL   H77229944   1.037   4.602   6.156 -0.4943  1.1729 -1.5464
   27MOL   H77329945   1.262   4.418   6.094 -0.4024  0.9243 -1.2820
   27MOL   H77429946   1.211   4.470   6.259 -0.8046  1.0273  0.2845
   27MOL   H77529947   1.276   4.704   6.208 -1.8368 -0.5756  0.0068
   27MOL   H77629948   1.351   4.662   6.059  0.5760  0.7862  0.7986
   27MOL   H77729949   1.520   4.542   6.145  1.6887  3.2277 -0.5318
   27MOL   H77829950   1.456   4.527   6.308 -2.5426 -1.0122 -0.7721
   27MOL   H77929951   1.538   4.796   6.194 -2.3576 -0.1708  0.3797
   27MOL   H78029952   1.483   4.751   6.352 -1.0195  3.5207 -1.6870
   27MOL   H78129953   1.745   4.632   6.213  1.9346 -1.7969  1.8265
   27MOL   H78229954   1.700   4.603   6.379 -0.0767 -1.0400  0.0805
   27MOL   H78329955   1.770   4.864   6.282 -1.1375 -1.8070 -0.9452
   27MOL   H78429956   1.762   4.805   6.448  1.1457 -1.4777  1.2140
   27MOL   H78529957   1.959   4.699   6.429  0.8815  1.0634  0.4488
   27MOL   C78629958   2.017   4.752   6.239 -0.0665 -0.2889  0.0839
   27MOL   O78729959   1.974   4.778   6.134 -0.2810 -1.1390  0.0605
   27MOL   C78829960   2.165   4.728   6.260  0.3162 -0.2069 -0.3213
   27MOL   C78929961   2.207   4.620   6.178 -0.1185 -0.4220 -0.0274
   27MOL   C79029962   2.209   4.480   6.253  0.2165  0.2690 -0.6240
   27MOL   C79129963   2.289   4.374   6.169 -0.6738 -0.0955  0.4134
   27MOL   C79229964   2.341   4.257   6.252  0.2458 -0.3727  0.3186
   27MOL   C79329965   2.374   4.131   6.166 -0.2360  0.3805 -0.1398
   27MOL   C79429966   2.423   4.029   6.268 -0.8524  0.1892 -0.1617
   27MOL   C79529967   2.459   3.901   6.189  0.2688 -0.6543  0.6739
   27MOL   C79629968   2.490   3.790   6.297  0.6051 -0.6871  0.2365
   27MOL   C79729969   2.603   3.815   6.395 -0.9587  0.4188  0.2329
   27MOL   C79829970   2.746   3.830   6.335 -0.3116 -0.3026  0.0971
   27MOL   O79929971   2.779   3.751   6.248  0.2698  0.0381 -0.1557
   27MOL   N80029972   2.801   3.945   6.369 -0.3737  0.4678  0.3495
   27MOL   C80129973   2.922   3.993   6.314 -0.7007  0.6690  0.0061
   27MOL   C80229974   2.911   4.076   6.191 -0.0023 -0.2303 -0.0930
   27MOL   C80329975   2.810   4.199   6.213  0.4619  0.0638  1.1127
   27MOL   C80429976   2.788   4.285   6.091 -0.0009  0.1943 -0.6160
   27MOL   C80529977   2.688   4.405   6.110  0.6213 -0.0287  0.8355
   27MOL   C80629978   2.675   4.501   5.996 -0.3559 -0.5051  0.3633
   27MOL   N80729979   2.624   4.632   6.035 -0.1232 -0.6151  0.6771
   27MOL   H80829980   2.186   4.725   6.367 -2.8216  2.7759  0.4843
   27MOL   H80929981   2.214   4.818   6.221 -0.0691 -0.5326 -1.5725
   27MOL   H81029982   2.140   4.607   6.093 -0.2332  0.6538 -0.1069
   27MOL   H81129983   2.309   4.648   6.153 -0.3955  2.7681  2.1020
   27MOL   H81229984   2.110   4.437   6.271 -0.7823  2.2444 -1.2471
   27MOL   H81329985   2.262   4.494   6.347  0.7089  2.0292 -1.1355
   27MOL   H81429986   2.216   4.328   6.102  0.8351  0.5083 -1.7104
   27MOL   H81529987   2.367   4.413   6.104 -0.2674  0.7431  1.3840
   27MOL   H81629988   2.427   4.295   6.307  0.6493  1.2633 -1.4015
   27MOL   H81729989   2.267   4.235   6.330 -0.2231  0.5888  0.1540
   27MOL   H81829990   2.286   4.093   6.116  0.7368 -1.1438 -0.6971
   27MOL   H81929991   2.442   4.150   6.083 -0.0614  0.3020 -0.0172
   27MOL   H82029992   2.512   4.071   6.315 -0.6962  0.7808 -0.9711
   27MOL   H82129993   2.343   4.015   6.341 -0.2366  0.4085  0.5720
   27MOL   H82229994   2.377   3.853   6.137  0.1200  1.6635 -1.3077
   27MOL   H82329995   2.540   3.910   6.117 -1.0278 -2.6504 -1.0743
   27MOL   H82429996   2.504   3.700   6.238 -0.5830 -2.0093  1.9347
   27MOL   H82529997   2.403   3.762   6.356  1.8081 -0.6672  2.0416
   27MOL   H82629998   2.582   3.898   6.462 -0.0458  1.2564 -0.5028
   27MOL   H82729999   2.612   3.729   6.460 -3.9772  0.1069  0.2758
   27MOL   H82830000   2.759   4.000   6.442 -0.4467 -0.7532  1.2551
   27MOL   H82930001   2.989   3.911   6.287  0.7533  2.5267 -2.2237
   27MOL   H83030002   2.989   4.036   6.388  1.1746 -0.9471 -0.6996
   27MOL   H83130003   2.874   3.999   6.125  1.5308 -0.6217 -0.5132
   27MOL   H83230004   3.007   4.118   6.161  0.7441 -1.8427 -0.0357
   27MOL   H83330005   2.716   4.162   6.253  0.0697  1.1664  1.2382
   27MOL   H83430006   2.839   4.271   6.289  1.9975  0.8968 -0.2086
   27MOL   H83530007   2.766   4.223   6.004 -0.4897 -0.5872  0.0545
   27MOL   H83630008   2.877   4.344   6.069 -0.9056  1.5162 -0.7722
   27MOL   H83730009   2.712   4.460   6.201 -2.2493 -2.2899  3.0819
   27MOL   H83830010   2.590   4.362   6.128  0.0153 -0.5413 -3.2711
   27MOL   H83930011   2.611   4.454   5.921  0.1335 -2.6574  1.2624
   27MOL   H84030012   2.772   4.502   5.947 -0.0882 -0.8204  0.8871
   27MOL   H84130013   2.645   4.677   6.123 -0.0502 -1.4191  1.0774
   27MOL   C84230014   2.543   4.708   5.960  0.3948 -0.0126  0.9084
   27MOL   O84330015   2.491   4.672   5.855 -0.4893 -0.5741  0.0871
   27MOL   C84430016   2.519   4.846   6.013  0.0974  0.2254  0.6043
   27MOL   C84530017   2.394   4.909   5.951 -0.4154  0.5702 -0.0761
   27MOL   C84630018   2.347   5.035   6.033 -0.4573 -0.0366 -0.1084
   27MOL   C84730019   2.439   5.156   6.004  0.5442  0.5021  0.2412
   27MOL   C84830020   2.392   5.282   6.081  0.1337 -0.4196  0.6268
   27MOL   C84930021   2.444   5.411   6.019 -1.2208 -0.6790  0.0354
   27MOL   C85030022   2.456   5.542   6.112  0.1138 -0.4491 -0.3295
   27MOL   C85130023   2.560   5.650   6.061  1.2283  0.2272 -0.4074
   27MOL   C85230024   2.551   5.778   6.149 -0.0250 -0.9473 -1.0059
   27MOL   C85330025   2.673   5.873   6.140 -0.7711  0.4817 -0.0711
   27MOL   C85430026   2.728   5.906   6.002 -0.2757 -0.5628 -0.2099
   27MOL   O85530027   2.651   5.949   5.919 -0.3919  0.0860  0.4138
   27MOL   N85630028   2.857   5.890   5.976  0.2625  0.6973  0.3215
   27MOL   C85730029   2.909   5.910   5.842 -0.0750  0.0673  0.3949
   27MOL   C85830030   2.890   5.788   5.749 -0.5718  0.6497  0.1900
   27MOL   C85930031   2.970   5.794   5.625  0.1367  0.3232  0.2316
   27MOL   C86030032   2.995   5.665   5.550 -0.3430  0.6894  0.5434
   27MOL   C86130033   3.141   5.620   5.587 -0.4438  0.7165 -0.2862
   27MOL   C86230034   3.173   5.476   5.534 -0.1705 -0.0797 -0.4813
   27MOL   N86330035   3.318   5.445   5.531 -0.2423 -0.3250  1.1201
   27MOL   H86430036   2.609   4.906   6.001  0.6851 -0.5140  1.2303
   27MOL   H86530037   2.510   4.840   6.121  1.6801  0.1663  0.7402
   27MOL   H86630038   2.311   4.838   5.946 -1.7232  2.1560 -1.4280
   27MOL   H86730039   2.409   4.923   5.844  0.0508 -3.5236 -0.6518
   27MOL   H86830040   2.246   5.056   5.997 -0.3882 -0.0261 -0.2981
   27MOL   H86930041   2.330   5.016   6.139 -1.4706 -1.5242 -0.5304
   27MOL   H87030042   2.421   5.169   5.897 -1.1505 -0.9582  0.3291
   27MOL   H87130043   2.542   5.124   6.022  1.1250  2.7849  1.0424
   27MOL   H87230044   2.283   5.282   6.083  0.0454 -1.7604 -1.9204
   27MOL   H87330045   2.425   5.283   6.185 -0.8924  0.4619  0.9515
   27MOL   H87430046   2.542   5.393   5.976 -1.1653 -1.3775  0.4483
   27MOL   H87530047   2.379   5.440   5.936  0.5704  2.2672 -0.4135
   27MOL   H87630048   2.354   5.578   6.120  0.7855  1.7216 -1.2103
   27MOL   H87730049   2.494   5.509   6.210  1.5036  0.1695 -0.6410
   27MOL   H87830050   2.525   5.672   5.960  0.0008 -1.7144 -0.4333
   27MOL   H87930051   2.659   5.605   6.057  1.2662  0.2781 -0.0443
   27MOL   H88030052   2.548   5.756   6.256 -1.2471 -0.6563 -0.9839
   27MOL   H88130053   2.456   5.824   6.126 -0.1616 -1.1099 -0.7675
   27MOL   H88230054   2.638   5.967   6.182 -2.5883  0.6656 -1.8642
   27MOL   H88330055   2.748   5.815   6.193 -0.7697  0.1326 -0.4477
   27MOL   H88430056   2.920   5.863   6.050 -1.9303 -0.2259  1.8678
   27MOL   H88530057   3.014   5.935   5.858  0.2510 -0.3664 -0.9901
   27MOL   H88630058   2.874   6.001   5.792 -0.4612 -1.0102 -1.3338
   27MOL   H88730059   2.785   5.781   5.719  0.1495  0.1722 -2.3077
   27MOL   H88830060   2.904   5.694   5.801 -2.9513 -0.5240 -1.2152
   27MOL   H88930061   3.068   5.837   5.648 -0.2241  1.4987 -0.4095
   27MOL   H89030062   2.919   5.853   5.549 -1.3745 -0.3499  0.7168
   27MOL   H89130063   2.970   5.664   5.444 -1.0937  1.2707  0.7058
   27MOL   H89230064   2.916   5.596   5.580 -1.4774  0.5750 -2.5471
   27MOL   H89330065   3.209   5.694   5.545 -2.5571  1.0052 -3.3498
   27MOL   H89430066   3.157   5.610   5.694 -1.5449  2.2216  0.0504
   27MOL   H89530067   3.124   5.403   5.598  2.1198 -1.4486 -0.2331
   27MOL   H89630068   3.142   5.476   5.430 -1.5515 -0.1956 -0.0777
   27MOL   H89730069   3.348   5.402   5.445 -2.8990 -0.7126  0.3404
   27MOL   C89830070   3.402   5.437   5.632  0.5081 -0.3533  0.1188
   27MOL   O89930071   3.360   5.428   5.751 -0.0323  0.0822  0.9896
   27MOL   C90030072   3.552   5.431   5.604 -0.1294  0.4233 -0.7540
   27MOL   C90130073   3.626   5.314   5.673 -0.4403 -0.2587 -0.4557
   27MOL   C90230074   3.627   5.189   5.584 -0.3739 -0.1786 -0.5724
   27MOL   C90330075   3.669   5.062   5.656  0.4756  0.2200  0.2850
   27MOL   C90430076   3.819   5.078   5.688 -0.0699  0.3744 -0.0792
   27MOL   C90530077   3.872   4.969   5.782 -0.2929 -0.4669 -0.1431
   27MOL   C90630078   3.903   4.834   5.716 -0.7965  0.1275 -0.5674
   27MOL   C90730079   3.958   4.741   5.824  0.3926  0.4061 -0.0306
   27MOL   C90830080   3.972   4.590   5.781 -0.5033  0.3817  0.3987
   27MOL   C90930081   4.119   4.558   5.741  0.4489 -0.2475 -0.1355
   27MOL   C91030082   4.164   4.616   5.607 -0.1982 -0.1378  0.4839
   27MOL   O91130083   4.088   4.619   5.512 -0.4157  0.3787  0.0903
   27MOL   N91230084   4.284   4.669   5.600  0.2006  0.3709  0.0452
   27MOL   C91330085   4.352   4.695   5.468  0.0901 -0.6556  0.4889
   27MOL   C91430086   4.398   4.570   5.401 -0.0196  0.2389  1.0627
   27MOL   C91530087   4.459   4.582   5.256 -0.2548 -0.9008 -0.6467
   27MOL   C91630088   4.369   4.658   5.162 -0.0733  0.4857 -0.1374
   27MOL   C91730089   4.439   4.682   5.025 -0.0934 -0.2367 -0.1925
   27MOL   C91830090   4.344   4.761   4.925  0.2192  0.0214  0.1687
   27MOL   N91930091   4.236   4.673   4.887  0.0710  0.2536 -0.0820
   27MOL   H92030092   3.568   5.416   5.497  0.6498  0.2119 -0.6179
   27MOL   H92130093   3.598   5.526   5.632  0.7005 -1.0304  3.1122
   27MOL   H92230094   3.573   5.287   5.765 -1.8694  2.3621 -0.4783
   27MOL   H92330095   3.725   5.347   5.703 -0.5450  0.1460 -0.5637
   27MOL   H92430096   3.680   5.214   5.492  0.2310  0.8094  0.0218
   27MOL   H92530097   3.529   5.161   5.547  0.4838 -2.3311 -1.2861
   27MOL   H92630098   3.614   5.065   5.750  0.7734  1.3546  0.4406
   27MOL   H92730099   3.645   4.973   5.599 -0.4152 -0.8816  2.3421
   27MOL   H92830100   3.836   5.161   5.758 -1.4143 -0.1655  0.9112
   27MOL   H92930101   3.877   5.086   5.597  3.7602  2.4267  2.4105
   27MOL   H93030102   3.968   4.996   5.825  0.3468  0.8304 -2.2862
   27MOL   H93130103   3.802   4.960   5.865 -0.2405  2.1518  0.2397
   27MOL   H93230104   3.985   4.851   5.647  1.0141  2.0743  1.9616
   27MOL   H93330105   3.819   4.783   5.667 -1.4631  1.9389 -1.3516
   27MOL   H93430106   3.882   4.740   5.902 -0.0175 -3.1542 -0.3874
   27MOL   H93530107   4.048   4.783   5.870 -0.6619  0.7287  1.7940
   27MOL   H93630108   3.948   4.524   5.864  1.7690 -1.6298 -0.4796
   27MOL   H93730109   3.898   4.569   5.704 -1.0025  0.3689  0.8881
   27MOL   H93830110   4.185   4.587   5.823  2.0443 -2.0450 -0.7327
   27MOL   H93930111   4.125   4.450   5.737 -0.9766 -0.3359 -0.0940
   27MOL   H94030112   4.341   4.662   5.683 -0.4300 -0.3542  0.4170
   27MOL   H94130113   4.439   4.757   5.488  1.2472 -2.0667 -0.0700
   27MOL   H94230114   4.293   4.763   5.406 -0.5773 -0.4583  1.3283
   27MOL   H94330115   4.463   4.504   5.459  3.6362  2.3115 -0.5196
   27MOL   H94430116   4.313   4.503   5.388  0.2750  0.0429  0.1101
   27MOL   H94530117   4.560   4.624   5.251 -0.9415  1.1383  2.0292
   27MOL   H94630118   4.472   4.482   5.214 -0.6878 -1.5344  0.7069
   27MOL   H94730119   4.350   4.759   5.197 -3.4779  0.1477 -0.8065
   27MOL   H94830120   4.273   4.606   5.151  0.5672 -0.5730 -0.8380
   27MOL   H94930121   4.525   4.745   5.050  0.1251 -0.2250 -0.9676
   27MOL   H95030122   4.466   4.584   4.987 -1.4855 -0.1807 -1.3786
   27MOL   H95130123   4.393   4.799   4.835  2.1319  0.3838  1.3335
   27MOL   H95230124   4.320   4.851   4.980  1.7462  0.8903 -0.5487
   27MOL   H95330125   4.254   4.579   4.854 -0.2227  0.0459  0.3440
   27MOL   C95430126   4.115   4.726   4.862 -0.5236 -0.0405 -0.3192
   27MOL   O95530127   4.085   4.842   4.893 -0.1468  0.1087  0.2397
   27MOL   C95630128   4.007   4.642   4.799  0.6848  0.3280 -0.5032
   27MOL   C95730129   3.862   4.687   4.837 -0.9620 -0.4497  0.4370
   27MOL   C95830130   3.758   4.600   4.762 -0.1564  0.1826 -0.1769
   27MOL   C95930131   3.743   4.458   4.818  0.0928 -0.8923  0.8587
   27MOL   C96030132   3.640   4.366   4.749 -0.5417 -0.0459 -0.0576
   27MOL   C96130133   3.658   4.224   4.814 -0.1602 -0.1421 -0.1769
   27MOL   C96230134   3.578   4.122   4.732 -0.1147 -0.2362  0.5805
   27MOL   C96330135   3.564   3.979   4.799 -0.1048 -0.3009  0.3483
   27MOL   C96430136   3.488   3.881   4.719  0.1822 -0.0276 -0.3580
   27MOL   C96530137   3.475   3.735   4.779  0.0771  0.6544  0.3508
   27MOL   C96630138   3.608   3.674   4.812  0.5506 -0.0627  0.0285
   27MOL   O96730139   3.706   3.687   4.738 -0.5718  0.2907 -0.7092
   27MOL   N96830140   3.618   3.618   4.936 -0.3912  0.2114  0.2497
   27MOL   C96930141   3.728   3.551   5.008  0.1800 -0.6652  0.1360
   27MOL   C97030142   3.769   3.621   5.145 -0.9662 -0.0872  0.3087
   27MOL   C97130143   3.779   3.772   5.138 -0.2965 -1.0703  0.7783
   27MOL   C97230144   3.649   3.847   5.169 -0.0844  0.1004 -0.1442
   27MOL   C97330145   3.659   4.000   5.160  0.0762 -0.1389 -0.1024
   27MOL   C97430146   3.539   4.075   5.220 -0.2157  0.2733 -0.7632
   27MOL   N97530147   3.533   4.047   5.365 -0.0243 -0.1933 -0.6450
   27MOL   H97630148   4.020   4.636   4.691 -0.7749  1.1817 -0.7495
   27MOL   H97730149   4.023   4.539   4.830  1.5848  0.4612 -0.5119
   27MOL   H97830150   3.855   4.794   4.818  1.2243 -0.3129  0.3124
   27MOL   H97930151   3.856   4.693   4.946  1.9084  1.6748  0.5381
   27MOL   H98030152   3.657   4.640   4.776 -0.9358 -0.5749 -3.2914
   27MOL   H98130153   3.775   4.603   4.655  1.9466  0.1343  0.1312
   27MOL   H98230154   3.844   4.418   4.819  0.1322 -0.9257 -1.7544
   27MOL   H98330155   3.713   4.470   4.923 -0.1451  0.8391  0.6138
   27MOL   H98430156   3.544   4.414   4.764  0.3593  1.4178  1.1884
   27MOL   H98530157   3.660   4.355   4.642  1.2806 -0.1989  0.2814
   27MOL   H98630158   3.763   4.196   4.826 -0.4493 -1.6878 -1.0734
   27MOL   H98730159   3.631   4.234   4.919  1.1163  0.1135  0.1438
   27MOL   H98830160   3.478   4.151   4.701  0.5680 -1.3074 -2.7407
   27MOL   H98930161   3.619   4.109   4.632 -0.4286 -2.3014  0.6920
   27MOL   H99030162   3.658   3.940   4.836 -0.9678  0.2851  3.2675
   27MOL   H99130163   3.503   3.987   4.889  0.3167  1.1940  0.5105
   27MOL   H99230164   3.528   3.870   4.619 -0.7137  0.1011 -0.7392
   27MOL   H99330165   3.389   3.926   4.706 -0.6679 -1.5729  0.6301
   27MOL   H99430166   3.405   3.747   4.862 -0.1188 -1.8846  0.5971
   27MOL   H99530167   3.416   3.672   4.712 -0.2501  1.3384 -0.0072
   27MOL   H99630168   3.529   3.622   4.984 -0.1939  1.1280  0.5493
   27MOL   H99730169   3.807   3.527   4.937  0.3607 -0.0197  0.1113
   27MOL   H99830170   3.679   3.456   5.028  0.0817 -0.8383 -0.8688
   27MOL   H99930171   3.858   3.585   5.197 -0.8155  0.4124  0.4023
   27MOL     H130172   3.688   3.598   5.214 -3.6090 -0.4941 -2.8519
   27MOL     H230173   3.830   3.796   5.045  0.3664 -0.1351  1.3767
   27MOL     H330174   3.848   3.809   5.213  1.0757 -0.8308 -0.5619
   27MOL     H430175   3.572   3.812   5.100 -0.0129  1.7011 -1.0559
   27MOL     H530176   3.609   3.815   5.265 -0.7702 -0.6288 -0.6612
   27MOL     H630177   3.662   4.035   5.057  0.9095 -1.8962 -0.6933
   27MOL     H730178   3.750   4.035   5.209 -0.1093 -1.7703  1.4612
   27MOL     H830179   3.559   4.181   5.206 -0.8594  0.3960 -0.7792
   27MOL     H930180   3.447   4.043   5.171 -1.0654 -0.6697  1.3852
   27MOL    H1030181   3.611   4.033   5.428 -1.4696  0.8066  1.4174
   27MOL    C1130182   3.414   4.036   5.425 -0.0311 -0.5965  0.4007
   27MOL    O1230183   3.302   4.038   5.366 -0.3030  0.4158 -0.1498
   27MOL    C1330184   3.422   4.018   5.575 -0.3673  0.1526  0.0692
   27MOL    C1430185   3.318   3.909   5.621 -0.0007 -0.7226 -1.0077
   27MOL    C1530186   3.362   3.764   5.577  0.3640  0.1829 -0.3633
   27MOL    C1630187   3.498   3.704   5.637 -0.1399 -0.2185 -0.4366
   27MOL    C1730188   3.494   3.674   5.789  0.5573  0.3551 -0.1698
   27MOL    C1830189   3.611   3.579   5.844 -0.1966  0.0886  0.4403
   27MOL    C1930190   3.595   3.565   5.995 -0.0312 -0.0601  0.6043
   27MOL    C2030191   3.718   3.494   6.054 -0.5272 -0.3784 -0.2988
   27MOL    C2130192   3.720   3.486   6.207 -0.0121 -0.4231 -0.1279
   27MOL    C2230193   3.838   3.404   6.256  0.3599  0.0040  0.3363
   27MOL    C2330194   3.983   3.457   6.229  0.4351 -0.0638  0.3715
   27MOL    O2430195   3.993   3.574   6.180  0.2463  0.7626  0.4605
   27MOL    N2530196   4.087   3.387   6.279  0.4219  0.2315 -0.3361
   27MOL    C2630197   4.221   3.444   6.285  0.2724  0.1395 -0.8957
   27MOL    C2730198   4.331   3.344   6.291  1.2714  0.4005  0.5786
   27MOL    C2830199   4.478   3.401   6.289  0.1791 -0.3997 -0.3654
   27MOL    C2930200   4.507   3.454   6.143 -0.1009 -0.1739 -0.3348
   27MOL    C3030201   4.644   3.515   6.117 -0.1371 -0.3332  0.0827
   27MOL    C3130202   4.670   3.529   5.965 -0.1539  0.0851  0.3212
   27MOL    N3230203   4.670   3.404   5.888  0.0721  0.1075  0.5895
   27MOL    H3330204   3.407   4.122   5.605  0.0036  1.0052 -2.5562
   27MOL    H3430205   3.524   3.999   5.607  0.4394  0.6919 -2.0792
   27MOL    H3530206   3.220   3.926   5.577 -1.1775 -1.3684  1.3079
   27MOL    H3630207   3.301   3.906   5.728 -2.8949  0.1034 -1.4177
   27MOL    H3730208   3.363   3.760   5.468  0.9045  1.9112 -0.4379
   27MOL    H3830209   3.287   3.692   5.610  1.6405  0.1461  2.6699
   27MOL    H3930210   3.517   3.615   5.578  0.8631  0.8896 -1.8170
   27MOL    H4030211   3.584   3.768   5.615 -0.4943 -0.3330 -2.2224
   27MOL    H4130212   3.505   3.772   5.837 -3.2575 -0.0610  1.7495
   27MOL    H4230213   3.400   3.628   5.820  0.7242 -0.3986 -0.7706
   27MOL    H4330214   3.581   3.485   5.797  0.2135  0.2660 -0.1785
   27MOL    H4430215   3.710   3.603   5.806  0.1444 -2.9748 -0.7449
   27MOL    H4530216   3.573   3.658   6.048  1.4048  0.2074  0.7636
   27MOL    H4630217   3.509   3.499   6.008 -0.5820 -0.0761 -2.8069
   27MOL    H4730218   3.727   3.393   6.016  2.1728  0.4253 -1.9601
   27MOL    H4830219   3.806   3.545   6.015  1.2590 -3.2323 -0.0760
   27MOL    H4930220   3.625   3.448   6.243  0.1641 -2.2777 -1.5456
   27MOL    H5030221   3.730   3.588   6.246 -0.0042  0.6558 -2.8675
   27MOL    H5130222   3.826   3.371   6.359 -0.6031  0.1108  0.2613
   27MOL    H5230223   3.823   3.308   6.207 -1.3986  0.4792 -0.1039
   27MOL    H5330224   4.076   3.292   6.312  1.3036  0.1855 -0.1729
   27MOL    H5430225   4.215   3.509   6.373  1.4354  1.7807 -1.9979
   27MOL    H5530226   4.236   3.496   6.191 -0.0293 -1.9786 -2.1336
   27MOL    H5630227   4.310   3.271   6.212  3.3223 -0.0000  0.3621
   27MOL    H5730228   4.329   3.271   6.372  2.7147 -0.0305  0.2611
   27MOL    H5830229   4.543   3.318   6.317 -0.2578 -0.5073  0.3350
   27MOL    H5930230   4.487   3.481   6.363 -3.3379 -1.0214  0.8444
   27MOL    H6030231   4.433   3.532   6.124 -0.3658 -0.4470 -0.4241
   27MOL    H6130232   4.477   3.374   6.075  3.1548 -1.0818 -0.7673
   27MOL    H6230233   4.709   3.444   6.169 -0.6154  0.4750  1.8401
   27MOL    H6330234   4.642   3.619   6.150  1.7407 -0.0214 -0.6932
   27MOL    H6430235   4.768   3.573   5.949 -0.3479  0.2838 -0.3145
   27MOL    H6530236   4.601   3.601   5.921 -0.8576  0.6277  2.2654
   27MOL    H6630237   4.698   3.320   5.938 -0.2628 -0.4857 -0.2147
   27MOL    C6730238   4.640   3.386   5.759  0.1647  0.7850 -0.8677
   27MOL    O6830239   4.620   3.484   5.691 -0.3345 -0.1122  0.0148
   27MOL    C6930240   4.646   3.248   5.696  0.6409  0.7219 -0.3271
   27MOL    C7030241   4.730   3.240   5.564 -0.3063  0.2762 -1.0046
   27MOL    C7130242   4.878   3.280   5.568  0.0208  0.5138 -0.1270
   27MOL    C7230243   4.926   3.361   5.446 -0.2539 -0.2868  0.4056
   27MOL    C7330244   4.989   3.273   5.341  0.5287 -0.2660  0.4565
   27MOL    C7430245   4.880   3.195   5.263  0.6252 -0.6164  0.0592
   27MOL    C7530246   4.785   3.271   5.172  1.0188 -0.3805  0.3111
   27MOL    C7630247   4.701   3.177   5.079 -0.2242 -0.0204 -0.2703
   27MOL    C7730248   4.594   3.236   4.981 -0.2828 -0.2813  0.5460
   27MOL    C7830249   4.654   3.349   4.889  0.2070  0.0373  0.1873
   27MOL    C7930250   4.766   3.307   4.788  0.1576 -0.4290  0.7591
   27MOL    O8030251   4.827   3.195   4.794  0.1007  0.0124  0.0863
   27MOL    N8130252   4.795   3.401   4.695 -0.0066 -0.1563  0.8625
   27MOL    C8230253   4.901   3.388   4.593  0.2818  0.0572 -0.2931
   27MOL    C8330254   4.852   3.344   4.455 -0.0852  0.0895 -0.2046
   27MOL    C8430255   4.963   3.331   4.345 -0.0281 -0.0067  0.1083
   27MOL    C8530256   4.907   3.283   4.213  0.2769 -0.0409 -0.0858
   27MOL    C8630257   5.013   3.245   4.103  0.2836  0.2170 -0.7478
   27MOL    C8730258   5.072   3.365   4.028  0.4977  0.4004  0.4860
   27MOL    N8830259   5.203   3.321   3.985  0.0882 -0.1844  0.5001
   27MOL    H8930260   4.546   3.217   5.666  1.4784  0.7105 -3.2682
   27MOL    H9030261   4.679   3.171   5.765  1.4177  0.8767 -0.5217
   27MOL    H9130262   4.715   3.141   5.520 -0.5757  0.4298 -1.2657
   27MOL    H9230263   4.685   3.302   5.486 -0.9411  0.5319 -0.4404
   27MOL    H9330264   4.899   3.348   5.651  0.2455 -1.1304  1.1831
   27MOL    H9430265   4.933   3.188   5.583 -0.6815 -0.0399 -0.9168
   27MOL    H9530266   4.841   3.420   5.409 -1.1098 -0.5923  1.8307
   27MOL    H9630267   5.002   3.432   5.477 -0.7828  0.4898 -0.0465
   27MOL    H9730268   5.033   3.347   5.273 -2.6420  0.1204 -1.3137
   27MOL    H9830269   5.068   3.211   5.382  1.2903  1.0840  1.0913
   27MOL    H9930270   4.933   3.129   5.194 -0.2574 -1.5085  0.2121
   27MOL   H10030271   4.832   3.122   5.329 -0.2999  1.0064  1.1983
   27MOL   H10130272   4.845   3.343   5.117 -1.9754  0.7589 -1.5784
   27MOL   H10230273   4.712   3.317   5.239 -0.0436 -1.2561 -0.2487
   27MOL   H10330274   4.775   3.115   5.028  2.0050  1.7687  0.7164
   27MOL   H10430275   4.651   3.100   5.139 -0.3097 -1.5291 -2.2148
   27MOL   H10530276   4.506   3.273   5.035 -0.8941  0.4622 -0.9050
   27MOL   H10630277   4.563   3.157   4.913 -2.0557 -1.5680  2.7956
   27MOL   H10730278   4.573   3.395   4.832 -0.2587  1.0084  1.6103
   27MOL   H10830279   4.692   3.427   4.955 -0.7186  0.1687  0.5755
   27MOL   H10930280   4.761   3.495   4.705  1.7480  0.4617  1.0588
   27MOL   H11030281   4.970   3.310   4.626  0.9514 -0.3124 -2.4928
   27MOL   H11130282   4.963   3.478   4.592  3.4310 -2.0192  1.3524
   27MOL   H11230283   4.776   3.414   4.420 -0.4794  0.2693  1.0118
   27MOL   H11330284   4.803   3.247   4.464  0.1494 -0.2393 -2.1204
   27MOL   H11430285   5.042   3.262   4.374  1.3402  1.0547 -1.0178
   27MOL   H11530286   4.999   3.432   4.325 -1.0894  0.3686  0.0554
   27MOL   H11630287   4.844   3.196   4.230  0.2131 -0.3451 -1.7933
   27MOL   H11730288   4.832   3.356   4.181  0.6495  1.6994  2.8083
   27MOL   H11830289   5.090   3.180   4.144 -1.5364 -1.0369  0.7425
   27MOL   H11930290   4.957   3.182   4.034  1.5125 -1.5686 -0.1258
   27MOL   H12030291   5.011   3.388   3.940 -1.7283 -1.0371  1.6229
   27MOL   H12130292   5.084   3.455   4.088  0.9290  0.6840 -0.0190
   27MOL   H12230293   5.244   3.406   3.950 -0.6174  1.4599  3.5145
   27MOL   H12330294   5.198   3.257   3.907 -0.3959  0.0528  0.3343
   28MOL     C130295   0.521   2.887   4.203  0.3414  0.9443  0.2697
   28MOL     O230296   0.546   2.993   4.265 -0.1789 -0.2122 -0.5950
   28MOL     C330297   0.619   2.767   4.197  0.3346  0.3429 -0.0408
   28MOL     C430298   0.766   2.807   4.215  0.1463  0.0998 -0.0078
   28MOL     C530299   0.838   2.865   4.095  0.0141 -0.3443  0.0914
   28MOL     C630300   0.985   2.911   4.126  0.3228  0.3355  0.5737
   28MOL     C730301   1.055   2.945   3.990 -0.7281  0.2094  0.1541
   28MOL     C830302   1.197   3.004   4.018 -0.1910  0.8162 -0.3300
   28MOL     C930303   1.187   3.144   4.074 -0.1228  0.1007 -0.4148
   28MOL    C1030304   1.315   3.217   4.089 -0.6780  0.6536 -0.1656
   28MOL    C1130305   1.294   3.371   4.104 -0.9330 -0.3284  0.0181
   28MOL    C1230306   1.429   3.448   4.099 -0.9015 -0.2291 -0.0526
   28MOL    C1330307   1.398   3.597   4.093  0.6629 -0.5103  0.0265
   28MOL    O1430308   1.340   3.644   3.998 -0.3296  0.0692  0.3727
   28MOL    N1530309   1.417   3.669   4.204 -0.3320 -0.0566  0.4139
   28MOL    C1630310   1.382   3.813   4.201  0.0750 -0.6741 -0.2530
   28MOL    C1730311   1.231   3.838   4.208  0.9549 -0.3214 -0.2435
   28MOL    C1830312   1.194   3.986   4.185 -0.1640 -0.1391 -0.0941
   28MOL    C1930313   1.044   4.024   4.177  0.1235 -0.0959 -0.2396
   28MOL    C2030314   1.013   4.176   4.142 -0.1523  0.1861  0.2477
   28MOL    C2130315   0.868   4.209   4.111  1.0622 -0.7292 -0.0518
   28MOL    N2230316   0.793   4.192   4.235  0.2357  0.0797 -0.2041
   28MOL    H2330317   0.602   2.712   4.104  1.8464 -2.1542  1.1116
   28MOL    H2430318   0.597   2.704   4.283  0.4331 -1.7340 -1.4714
   28MOL    H2530319   0.827   2.724   4.249 -1.3935 -1.2194 -0.4401
   28MOL    H2630320   0.762   2.877   4.299  1.3061 -2.3488  2.1747
   28MOL    H2730321   0.781   2.954   4.067 -4.3197 -2.9644  0.0977
   28MOL    H2830322   0.840   2.801   4.007  1.6447 -0.1900  0.0042
   28MOL    H2930323   1.000   2.983   4.206 -1.0268  0.0848  1.0489
   28MOL    H3030324   1.041   2.831   4.174  1.5971  2.2155  2.3434
   28MOL    H3130325   1.000   3.021   3.934 -1.1630  1.3255  2.0605
   28MOL    H3230326   1.064   2.856   3.928  2.3139  1.0195 -0.6658
   28MOL    H3330327   1.254   2.941   4.085  0.4587  0.2216 -1.4379
   28MOL    H3430328   1.256   3.012   3.927 -0.9030  1.0270 -0.7800
   28MOL    H3530329   1.141   3.192   3.987  0.9414  2.0851  0.0832
   28MOL    H3630330   1.128   3.163   4.163  1.6737 -0.5769  0.9325
   28MOL    H3730331   1.377   3.187   4.173 -0.3925 -0.2386 -0.6903
   28MOL    H3830332   1.378   3.200   4.003 -1.0494 -0.2344 -0.2705
   28MOL    H3930333   1.252   3.394   4.203  1.4812 -2.9354  1.7236
   28MOL    H4030334   1.224   3.408   4.030 -0.3951  0.0888 -0.2830
   28MOL    H4130335   1.471   3.432   4.198 -2.7493  1.1577  0.9856
   28MOL    H4230336   1.491   3.406   4.020  0.4741  1.4582  0.0943
   28MOL    H4330337   1.448   3.624   4.289 -1.3029 -2.2787 -0.3740
   28MOL    H4430338   1.412   3.857   4.106  1.0417  1.2719  0.9299
   28MOL    H4530339   1.430   3.852   4.291 -1.8968  0.7855  0.1863
   28MOL    H4630340   1.191   3.798   4.301  0.4905 -1.4064 -0.9008
   28MOL    H4730341   1.180   3.783   4.129  2.6681 -1.3960 -0.6282
   28MOL    H4830342   1.240   4.034   4.272 -2.6507 -1.1648  1.8484
   28MOL    H4930343   1.255   4.024   4.103  3.0820  1.7749  3.0496
   28MOL    H5030344   1.001   3.996   4.273  0.3075  1.2743  0.2437
   28MOL    H5130345   0.987   3.968   4.103 -0.0705  0.4756 -0.5281
   28MOL    H5230346   1.048   4.235   4.226 -1.4390  0.6096  0.4928
   28MOL    H5330347   1.081   4.206   4.062 -1.0124 -1.1569 -1.0211
   28MOL    H5430348   0.856   4.314   4.085  0.1628 -0.9172 -0.4058
   28MOL    H5530349   0.823   4.159   4.025  0.2270  1.6002 -1.0203
   28MOL    H5630350   0.785   4.273   4.294 -0.6390 -1.4911  1.8991
   28MOL    H5730351   0.432   2.863   4.144  0.3572 -0.6898  0.8905
   28MOL    C5830352   0.719   4.092   4.278  0.3562 -0.4539  0.5818
   28MOL    O5930353   0.711   3.988   4.212  0.1750 -0.1833 -0.0456
   28MOL    C6030354   0.651   4.114   4.414  0.2793  0.1486 -0.1673
   28MOL    C6130355   0.499   4.099   4.421  0.7579 -0.0945 -0.0709
   28MOL    C6230356   0.416   4.209   4.347 -0.3244 -0.0229 -0.4671
   28MOL    C6330357   0.267   4.186   4.362 -0.2552  0.2081  0.5012
   28MOL    C6430358   0.180   4.309   4.324  0.0372 -0.4010 -0.2335
   28MOL    C6530359   0.029   4.282   4.329  0.2230  1.3440 -0.0670
   28MOL    C6630360   7.641   4.400   4.265  0.3823 -0.3223  0.8078
   28MOL    C6730361   7.616   4.520   4.351  0.0927 -0.0150  0.2846
   28MOL    C6830362   7.586   4.659   4.289 -0.1857 -0.2548 -0.3799
   28MOL    C6930363   7.482   4.658   4.175  0.4046 -0.9421  0.0013
   28MOL    C7030364   7.441   4.795   4.125  0.4135  0.0633 -0.0554
   28MOL    O7130365   7.487   4.896   4.175  0.1928 -0.4333  0.1123
   28MOL    N7230366   7.361   4.802   4.016 -0.1734  0.0629  0.1299
   28MOL    C7330367   7.335   4.916   3.933 -0.5610  0.6629  0.0586
   28MOL    C7430368   7.371   4.912   3.788 -0.4547 -0.0897 -0.2688
   28MOL    C7530369   7.324   5.039   3.704 -0.6386 -0.2346 -0.4561
   28MOL    C7630370   7.366   5.037   3.561  0.1537 -0.0659 -1.0351
   28MOL    C7730371   7.284   5.118   3.464  0.0581 -0.0644 -0.4473
   28MOL    C7830372   7.306   5.265   3.471  0.4300 -0.6276 -0.0804
   28MOL    N7930373   7.210   5.332   3.383 -0.4731  0.0886  0.5170
   28MOL    H8030374   0.674   4.210   4.460  0.6535  0.5964 -1.2745
   28MOL    H8130375   0.710   4.053   4.482  1.4660  2.1091  0.6116
   28MOL    H8230376   0.462   4.008   4.373  2.8667 -1.7169  1.3338
   28MOL    H8330377   0.461   4.090   4.522 -0.3005 -0.9379 -0.5311
   28MOL    H8430378   0.457   4.206   4.246  2.8272  1.5002  0.7289
   28MOL    H8530379   0.435   4.308   4.388  2.9797  0.5796 -3.2439
   28MOL    H8630380   0.248   4.160   4.466  0.5679 -3.5168 -0.1813
   28MOL    H8730381   0.231   4.101   4.303 -1.5118  2.0130 -1.3732
   28MOL    H8830382   0.212   4.396   4.381  0.1338 -1.0767  0.7466
   28MOL    H8930383   0.207   4.324   4.219  1.3810  0.7143  0.2501
   28MOL    H9030384   7.681   4.255   4.427  1.1821  0.0297 -0.0234
   28MOL    H9130385   0.008   4.195   4.265  2.6460  0.4002  0.3842
   28MOL    H9230386   7.544   4.353   4.247 -0.2177 -0.4049  3.8347
   28MOL    H9330387   7.670   4.433   4.165 -1.7177  0.3040  0.3906
   28MOL    H9430388   7.532   4.488   4.413  1.6717 -0.6664  2.1355
   28MOL    H9530389   0.002   4.526   4.427  2.2606 -0.7137 -1.8244
   28MOL    H9630390   7.680   4.697   4.249 -0.8687  0.3295 -1.4525
   28MOL    H9730391   7.554   4.729   4.366 -0.6744  0.1960 -0.9892
   28MOL    H9830392   7.525   4.605   4.090  2.3707  0.5522  0.0273
   28MOL    H9930393   7.387   4.614   4.207 -0.0055  0.5705  0.9129
   28MOL   H10030394   7.337   4.716   3.970 -1.5524  1.3825 -1.6905
   28MOL   H10130395   7.391   5.002   3.970  1.4951 -0.2073 -0.9541
   28MOL   H10230396   7.230   4.940   3.948 -0.3880  1.6180 -0.2289
   28MOL   H10330397   7.480   4.907   3.797 -0.4158 -1.0365 -1.1435
   28MOL   H10430398   7.341   4.820   3.739  0.7597 -0.7163  0.1239
   28MOL   H10530399   7.356   5.134   3.747  0.6121 -1.6949  1.9675
   28MOL   H10630400   7.215   5.043   3.708 -0.8189 -0.7651 -3.4227
   28MOL   H10730401   7.470   5.067   3.553 -0.1660  0.9287 -1.5709
   28MOL   H10830402   7.364   4.938   3.515  1.0461  0.0513 -1.3419
   28MOL   H10930403   7.178   5.106   3.488  0.1207  1.0521  0.4247
   28MOL   H11030404   7.303   5.079   3.364 -0.9598 -0.6165 -0.4335
   28MOL   H11130405   7.405   5.285   3.429  0.1588 -0.6256 -0.7163
   28MOL   H11230406   7.302   5.298   3.575 -0.4058  0.6489 -0.4987
   28MOL   H11330407   7.241   5.349   3.288  0.6014 -0.3170  0.7931
   28MOL   C11430408   7.091   5.389   3.421  0.4143  0.2659  0.2205
   28MOL   O11530409   7.048   5.392   3.540 -0.2436 -0.0335 -0.3563
   28MOL   C11630410   7.018   5.456   3.312 -1.0054 -1.1055 -0.7125
   28MOL   C11730411   6.990   5.609   3.337 -0.2341  0.0380 -0.2507
   28MOL   C11830412   7.112   5.699   3.354 -0.8521 -0.3996  0.3067
   28MOL   C11930413   7.198   5.688   3.225  0.7996  0.2774 -1.1059
   28MOL   C12030414   7.298   5.808   3.208 -0.1093 -0.3751 -0.1819
   28MOL   C12130415   7.395   5.781   3.088  0.3426 -0.8820  0.0571
   28MOL   C12230416   7.505   5.884   3.061  0.0509  0.5423 -0.2291
   28MOL   C12330417   7.611   5.833   2.962 -0.1417  0.0575  0.6004
   28MOL   C12430418   0.014   5.946   2.938 -0.0657  0.5422  0.2529
   28MOL   C12530419   0.121   5.910   2.830 -0.4337 -0.6267 -0.0574
   28MOL   C12630420   0.074   5.868   2.699 -0.7970 -0.6881  0.0202
   28MOL   O12730421   7.663   5.912   2.651 -0.4364  0.1844 -0.3987
   28MOL   N12830422   0.142   5.772   2.643  0.2809 -0.4920  0.0261
   28MOL   C12930423   0.087   5.696   2.531 -0.3212  0.3854  0.1052
   28MOL   C13030424   7.652   5.614   2.565 -0.2988  0.0881  0.0104
   28MOL   C13130425   7.642   5.531   2.701  0.8090 -0.2722 -0.1369
   28MOL   C13230426   7.560   5.402   2.696  1.1470  0.0899 -0.6863
   28MOL   C13330427   7.544   5.337   2.839 -0.0668  0.0164 -0.1119
   28MOL   C13430428   7.469   5.202   2.851 -0.0286  0.3713  0.1804
   28MOL   N13530429   7.515   5.098   2.757 -0.1722  0.1462  1.0215
   28MOL   H13630430   7.073   5.450   3.218  1.6586  1.4197  0.6067
   28MOL   H13730431   6.917   5.417   3.300 -1.5140  0.0324 -0.1914
   28MOL   H13830432   6.918   5.623   3.417  0.2955  0.2390  0.1954
   28MOL   H13930433   6.933   5.643   3.250  1.3590 -1.1954 -1.8102
   28MOL   H14030434   7.066   5.797   3.360 -1.9962 -0.7583 -1.9808
   28MOL   H14130435   7.170   5.683   3.444  1.6069 -1.5169 -1.4190
   28MOL   H14230436   7.252   5.594   3.220  0.0735 -0.1360 -1.3087
   28MOL   H14330437   7.129   5.690   3.140 -0.1254 -0.3888 -0.3912
   28MOL   H14430438   7.241   5.899   3.191  1.0489  0.6780  1.3927
   28MOL   H14530439   7.355   5.825   3.300 -1.1757  4.3650 -0.2497
   28MOL   H14630440   7.330   5.764   3.002 -2.3597 -1.7030  2.1704
   28MOL   H14730441   7.453   5.693   3.115  1.5597  0.0315  0.4667
   28MOL   H14830442   7.460   5.978   3.029 -0.0558  0.2746 -0.8631
   28MOL   H14930443   7.557   5.901   3.156  1.4092  0.5914 -0.9690
   28MOL   H15030444   7.557   5.805   2.872 -0.2916 -1.1650  1.0686
   28MOL   H15130445   7.663   5.748   3.007 -1.1500 -0.9455 -0.1213
   28MOL   H15230446   0.054   5.952   3.039  1.3446 -1.9720 -0.1401
   28MOL   H15330447   7.659   6.042   2.914 -0.2166  0.5493  0.5772
   28MOL   H15430448   0.187   5.835   2.872  0.0571  0.2899  0.8446
   28MOL   H15530449   0.187   5.997   2.823  0.7741 -1.5349 -0.0003
   28MOL   H15630450   0.236   5.749   2.673  1.7083  1.3916 -2.7410
   28MOL   H15730451   0.159   5.619   2.500 -1.9862 -1.2799  0.2607
   28MOL   H15830452   0.058   5.754   2.443  0.2185  1.1268  0.4184
   28MOL   H15930453   7.629   5.553   2.478  2.7673  0.6882 -1.2879
   28MOL   H16030454   7.571   5.686   2.577 -0.7027 -0.6974  2.3350
   28MOL   H16130455   0.051   5.522   2.742  0.3358 -1.5410  0.7645
   28MOL   H16230456   7.591   5.591   2.776 -2.3908 -0.6939 -1.8889
   28MOL   H16330457   7.461   5.414   2.651  0.4537  0.1220  0.8020
   28MOL   H16430458   7.612   5.330   2.633 -1.4228 -0.6543 -2.0537
   28MOL   H16530459   7.503   5.400   2.918  0.1929  0.1932 -0.1168
   28MOL   H16630460   7.645   5.316   2.876 -0.2219 -1.2658 -0.3731
   28MOL   H16730461   7.486   5.173   2.955  2.2872  1.1235  0.0586
   28MOL   H16830462   7.363   5.220   2.862 -0.3697 -1.7006  0.5701
   28MOL   H16930463   7.485   5.098   2.661 -0.3801 -1.4134  1.0704
   28MOL   C17030464   7.582   4.987   2.795  0.0765 -0.6065  0.0401
   28MOL   O17130465   7.610   4.964   2.911 -0.6324 -0.1040  0.0318
   28MOL   C17230466   7.637   4.882   2.692  0.4527 -0.2201  0.3534
   28MOL   C17330467   7.602   4.733   2.738  0.4116  0.4866 -0.3712
   28MOL   C17430468   7.650   4.625   2.648 -0.1427  0.2677  0.5485
   28MOL   C17530469   0.111   4.618   2.666  0.1963  0.5927  0.4729
   28MOL   C17630470   0.177   4.486   2.614  0.0002 -0.3976 -0.2661
   28MOL   C17730471   0.182   4.379   2.729 -0.2218  0.2344 -0.6780
   28MOL   C17830472   0.263   4.253   2.691 -0.6406 -0.0492  0.4176
   28MOL   C17930473   0.275   4.146   2.802 -0.3381  0.1051  0.0440
   28MOL   C18030474   0.370   4.024   2.783  0.7311  0.3283  0.1888
   28MOL   C18130475   0.321   3.923   2.683  0.1127 -0.5539  0.3383
   28MOL   C18230476   0.410   3.793   2.674 -0.1567 -0.3455  0.1282
   28MOL   O18330477   0.532   3.793   2.697  0.2096  0.3238  0.0660
   28MOL   N18430478   0.340   3.685   2.659 -0.4025 -0.1195  0.1395
   28MOL   C18530479   0.395   3.551   2.675 -0.0035 -0.0009  0.0547
   28MOL   C18630480   0.392   3.504   2.819 -0.0039 -0.4239 -0.3337
   28MOL   C18730481   0.419   3.356   2.845  0.0969  0.2407 -0.5041
   28MOL   C18830482   0.484   3.318   2.979  0.6172  0.1357  0.0478
   28MOL   C18930483   0.371   3.278   3.080  0.3310  0.3632  0.4325
   28MOL   C19030484   0.431   3.251   3.223  0.7452 -0.4288  0.2237
   28MOL   N19130485   0.319   3.248   3.319 -0.3812  0.1420  0.0902
   28MOL   H19230486   7.606   4.896   2.589 -0.3178 -0.0472  0.6040
   28MOL   H19330487   0.050   4.910   2.700  0.0737  1.7344 -1.2222
   28MOL   H19430488   7.497   4.725   2.767  0.7307 -1.0302  0.3917
   28MOL   H19530489   7.642   4.720   2.838 -1.5961 -0.2277  0.3596
   28MOL   H19630490   7.624   4.654   2.546 -0.7733  1.1729  0.9543
   28MOL   H19730491   7.607   4.526   2.662 -0.6448  0.4294  0.1454
   28MOL   H19830492   0.152   4.709   2.622  1.8337 -0.2158  0.2887
   28MOL   H19930493   0.118   4.624   2.774 -0.8316 -1.5422  0.6837
   28MOL   H20030494   0.128   4.442   2.526  0.3666  1.5257 -1.4584
   28MOL   H20130495   0.278   4.512   2.583  0.4867 -0.5526  1.1899
   28MOL   H20230496   0.080   4.349   2.751 -0.8566  1.6698 -1.5895
   28MOL   H20330497   0.212   4.428   2.821  2.7688  0.2131 -1.5669
   28MOL   H20430498   0.221   4.199   2.607  3.9088 -1.5372 -1.0530
   28MOL   H20530499   0.359   4.294   2.661 -1.1755  1.1974  0.3853
   28MOL   H20630500   0.298   4.189   2.899 -0.4661 -2.8919  1.4652
   28MOL   H20730501   0.172   4.112   2.811 -0.4432  0.1089 -1.0567
   28MOL   H20830502   0.375   3.966   2.875  0.8952  2.0399  1.2718
   28MOL   H20930503   0.475   4.052   2.774  0.9015 -0.5665 -0.8374
   28MOL   H21030504   0.223   3.892   2.720 -1.0707  1.8341 -0.6199
   28MOL   H21130505   0.297   3.960   2.583 -0.9431 -1.7908  0.1193
   28MOL   H21230506   0.242   3.690   2.637 -0.2470 -2.6759 -1.4122
   28MOL   H21330507   0.495   3.525   2.643  1.4121  1.6377  2.8907
   28MOL   H21430508   0.325   3.494   2.615 -0.4684 -0.2450  0.8132
   28MOL   H21530509   0.476   3.560   2.862  1.3412 -1.2694 -1.7960
   28MOL   H21630510   0.302   3.522   2.877  2.7805  1.9629  3.5329
   28MOL   H21730511   0.327   3.299   2.836  1.8565 -2.6425 -0.7257
   28MOL   H21830512   0.481   3.313   2.767  0.1451 -0.0919 -0.2816
   28MOL   H21930513   0.543   3.395   3.030  1.6229  0.1625 -1.1267
   28MOL   H22030514   0.548   3.232   2.963 -0.1276 -0.7508  1.7282
   28MOL   H22130515   0.316   3.194   3.037  1.2944 -0.4980  0.8525
   28MOL   H22230516   0.304   3.363   3.087  1.7325  1.3563  2.0740
   28MOL   H22330517   0.501   3.328   3.255 -0.0156  0.5880 -0.5327
   28MOL   H22430518   0.491   3.161   3.207  1.6155  0.4869 -1.8295
   28MOL   H22530519   0.236   3.304   3.304 -0.8319 -0.5609 -0.0625
   28MOL   C22630520   0.332   3.207   3.442 -0.3948  0.1134  0.9400
   28MOL   O22730521   0.437   3.149   3.478  0.5000  0.0243 -0.0896
   28MOL   C22830522   0.215   3.235   3.537 -0.2947  0.2776 -0.5263
   28MOL   C22930523   0.249   3.261   3.686 -0.5451  0.1059 -0.1843
   28MOL   C23030524   0.220   3.149   3.787  0.2278 -0.1670  0.0631
   28MOL   C23130525   0.294   3.152   3.929 -0.2729 -0.5950 -0.1597
   28MOL   C23230526   0.258   3.273   4.022  0.3615  0.1584  0.0927
   28MOL   C23330527   0.331   3.274   4.163 -0.0146  0.4899 -0.1684
   28MOL   C23430528   0.287   3.391   4.253 -0.2320  0.1919  0.4743
   28MOL   C23530529   0.324   3.531   4.194  0.6679  1.3613  0.4506
   28MOL   C23630530   0.474   3.547   4.166 -0.3561  0.6606  0.2745
   28MOL   C23730531   0.531   3.692   4.155  0.0465 -0.0390  0.3736
   28MOL   C23830532   0.512   3.752   4.014 -0.3577 -0.3214 -0.4516
   28MOL   O23930533   0.489   3.685   3.913  0.1230  0.7886  0.3845
   28MOL   N24030534   0.533   3.884   3.998  0.0768  0.8253 -0.1390
   28MOL   C24130535   0.505   3.961   3.877  0.8808 -0.0500 -0.9217
   28MOL   C24230536   0.471   4.103   3.912 -0.3253 -0.1838 -0.8161
   28MOL   C24330537   0.428   4.190   3.786  0.8605  0.1644  0.0340
   28MOL   C24430538   0.521   4.306   3.763 -0.2810  0.5303  0.5808
   28MOL   C24530539   0.475   4.397   3.649 -0.5603  0.0445 -0.5062
   28MOL   C24630540   0.572   4.513   3.617  0.0647  0.3635  0.6188
   28MOL   N24730541   0.711   4.483   3.624  0.2170  1.0925 -0.0753
   28MOL   H24830542   0.144   3.154   3.521  0.0509  0.2162 -1.8496
   28MOL   H24930543   0.162   3.318   3.491  0.1489  0.6063 -0.4499
   28MOL   H25030544   0.358   3.268   3.693 -0.2919 -3.3801  0.2194
   28MOL   H25130545   0.201   3.353   3.721 -0.5995  0.2404 -0.6162
   28MOL   H25230546   0.111   3.141   3.794  0.3401 -0.1763  2.2553
   28MOL   H25330547   0.258   3.055   3.749 -0.9611 -0.3136 -0.8114
   28MOL   H25430548   0.401   3.152   3.907 -0.2848 -2.9094 -0.3311
   28MOL   H25530549   0.271   3.065   3.990 -1.2249 -0.3514 -0.1700
   28MOL   H25630550   0.149   3.280   4.029  0.3775 -0.4406  1.0625
   28MOL   H25730551   0.279   3.373   3.983 -1.1460  0.7642  0.7739
   28MOL   H25830552   0.294   3.187   4.218 -1.9719  2.5478  1.8668
   28MOL   H25930553   0.440   3.282   4.163  0.0370  0.3495  2.6624
   28MOL   H26030554   0.327   3.379   4.354  0.8561 -1.8928 -0.1588
   28MOL   H26130555   0.179   3.385   4.264 -0.3739  3.0793  0.7995
   28MOL   H26230556   0.263   3.555   4.108 -0.1983 -1.7806  0.1198
   28MOL   H26330557   0.291   3.609   4.263  0.2272 -0.4393  2.3121
   28MOL   H26430558   0.507   3.501   4.260  0.4487  0.5145 -0.0760
   28MOL   H26530559   0.498   3.486   4.080  1.9463  1.3465  0.4100
   28MOL   H26630560   0.483   3.757   4.229 -1.0855 -0.6102  0.1554
   28MOL   H26730561   0.639   3.688   4.173 -0.2061  0.7923  2.2225
   28MOL   H26830562   0.575   3.933   4.075  0.1688  3.1274 -1.6011
   28MOL   H26930563   0.414   3.926   3.828  0.1973 -0.0821  0.3495
   28MOL   H27030564   0.584   3.956   3.803  1.8703 -0.5867  0.1465
   28MOL   H27130565   0.553   4.156   3.960 -0.9203  1.3401 -1.4351
   28MOL   H27230566   0.384   4.107   3.977  0.2895 -4.7885  0.4303
   28MOL   H27330567   0.435   4.130   3.695 -2.5289  4.2581 -3.1441
   28MOL   H27430568   0.323   4.217   3.797  0.6918 -0.3803 -0.2028
   28MOL   H27530569   0.619   4.263   3.744 -0.5613  0.6667 -1.2236
   28MOL   H27630570   0.529   4.356   3.860 -0.1355  0.0247  0.8304
   28MOL   H27730571   0.377   4.437   3.675 -0.2039  1.7662 -1.7515
   28MOL   H27830572   0.469   4.335   3.560 -2.0085 -0.7749  0.1334
   28MOL   H27930573   0.553   4.586   3.696 -0.9974  1.5605 -0.7086
   28MOL   H28030574   0.553   4.551   3.516 -0.5469 -1.3693  0.0681
   28MOL   H28130575   0.749   4.394   3.595 -2.4515 -0.0079 -0.3158
   28MOL   C28230576   0.803   4.570   3.658 -0.1572 -0.5435  0.2594
   28MOL   O28330577   0.781   4.690   3.675 -0.5497 -0.1930  0.2384
   28MOL   C28430578   0.941   4.516   3.691  0.0086  0.6778  0.1339
   28MOL   C28530579   1.026   4.585   3.792 -0.5156  0.1905 -0.2693
   28MOL   C28630580   0.971   4.577   3.937  0.4125 -0.4167 -0.1470
   28MOL   C28730581   1.059   4.655   4.037  0.5127  0.2878 -0.0688
   28MOL   C28830582   0.995   4.673   4.175  0.5361 -0.1459  0.5295
   28MOL   C28930583   0.904   4.799   4.192 -0.3497 -0.0162 -0.0176
   28MOL   C29030584   0.811   4.847   4.084 -0.1809  0.4504 -0.1586
   28MOL   C29130585   0.728   4.969   4.131  0.2358  0.5480  0.2004
   28MOL   C29230586   0.646   5.042   4.027 -0.1455 -0.5508  0.0281
   28MOL   C29330587   0.580   5.165   4.090 -0.4440 -0.0241  0.1803
   28MOL   C29430588   0.675   5.283   4.119 -0.4832  0.0675 -0.4130
   28MOL   O29530589   0.791   5.268   4.162  0.2544  0.4915  1.0729
   28MOL   N29630590   0.627   5.409   4.107  0.5172 -0.2029 -0.4407
   28MOL   C29730591   0.708   5.533   4.121 -0.6421  0.8803 -0.3016
   28MOL   C29830592   0.765   5.586   3.988 -0.5819 -0.4509 -0.9185
   28MOL   C29930593   0.875   5.694   3.994  0.7546  0.0374  0.3211
   28MOL   C30030594   1.011   5.631   4.044  0.1314 -0.2983 -0.2123
   28MOL   C30130595   1.125   5.736   4.053 -0.4238 -0.4884 -0.0100
   28MOL   C30230596   1.257   5.669   4.067 -0.2081 -0.0349  0.1469
   28MOL   N30330597   1.361   5.762   4.109  0.0581  0.3234  0.7951
   28MOL   H30430598   0.946   4.412   3.724  1.5587  0.6527 -0.1407
   28MOL   H30530599   0.993   4.499   3.597  1.5192 -0.7000  1.1854
   28MOL   H30630600   1.035   4.687   3.756 -0.9419  0.4326  0.3106
   28MOL   H30730601   1.128   4.547   3.788  0.1846  1.6650  2.5805
   28MOL   H30830602   0.868   4.613   3.934  0.6106  0.1011 -0.9460
   28MOL   H30930603   0.968   4.470   3.958  0.7404 -0.3344  0.3079
   28MOL   H31030604   1.082   4.756   4.001  3.0116 -1.7513 -4.6364
   28MOL   H31130605   1.155   4.603   4.039 -0.4283 -1.4309  1.2048
   28MOL   H31230606   0.946   4.579   4.203 -2.0420  1.0176  0.0890
   28MOL   H31330607   1.068   4.683   4.254 -0.4229 -0.6341  1.4980
   28MOL   H31430608   0.845   4.782   4.282  1.6061  0.3187  1.3531
   28MOL   H31530609   0.978   4.876   4.214  1.1740 -2.2680  3.1299
   28MOL   H31630610   0.753   4.762   4.050 -0.3996  0.7893 -0.6377
   28MOL   H31730611   0.872   4.871   3.996 -0.1564  1.4102  0.1201
   28MOL   H31830612   0.798   5.035   4.183  2.1164 -2.0009  1.0106
   28MOL   H31930613   0.665   4.924   4.207 -0.5573  2.2727  0.5838
   28MOL   H32030614   0.711   5.080   3.947  1.8926 -0.3844  1.7127
   28MOL   H32130615   0.578   4.974   3.977  0.3997 -0.9294 -0.2030
   28MOL   H32230616   0.510   5.202   4.016 -1.7761  0.9527  1.8910
   28MOL   H32330617   0.535   5.129   4.183 -1.6895 -1.2884 -0.9036
   28MOL   H32430618   0.531   5.413   4.076  0.6022 -1.7995 -0.9179
   28MOL   H32530619   0.790   5.506   4.188  0.8320 -0.5430 -2.5934
   28MOL   H32630620   0.653   5.614   4.168 -0.2116  0.4891  0.9108
   28MOL   H32730621   0.688   5.612   3.916  0.7631 -1.4922 -2.7725
   28MOL   H32830622   0.811   5.499   3.941 -4.2446 -1.8014 -2.1978
   28MOL   H32930623   0.843   5.767   4.069 -3.8533 -1.5136  0.0182
   28MOL   H33030624   0.891   5.751   3.902 -1.9429 -0.9450 -0.8195
   28MOL   H33130625   1.001   5.582   4.141  2.0315 -2.7633 -1.2078
   28MOL   H33230626   1.043   5.566   3.962 -1.4953 -1.0359 -0.2859
   28MOL   H33330627   1.111   5.812   4.131  0.5500 -1.0636  0.7356
   28MOL   H33430628   1.140   5.785   3.957 -0.5133 -1.5293 -0.5523
   28MOL   H33530629   1.268   5.590   4.140 -1.3881 -1.1438 -0.8591
   28MOL   H33630630   1.281   5.621   3.972  0.4291  0.0537  0.2585
   28MOL   H33730631   1.356   5.801   4.202 -0.1790 -2.3444  1.9273
   28MOL   C33830632   1.457   5.819   4.033  0.7014 -0.2939  0.0789
   28MOL   O33930633   1.467   5.794   3.914 -0.0943 -0.6750 -0.2812
   28MOL   C34030634   1.568   5.900   4.099  0.0293  0.3645  0.4379
   28MOL   C34130635   1.622   6.020   4.021  0.5322 -0.1255  0.4552
   28MOL   C34230636   1.531   6.136   3.984  0.7006  0.3862  0.4066
   28MOL   C34330637   1.486   6.215   4.104  0.6344  0.4988 -0.3896
   28MOL   C34430638   1.430   6.348   4.064  0.7957 -0.0410 -0.6530
   28MOL   C34530639   1.346   6.413   4.174  0.3341  0.5579 -0.2258
   28MOL   C34630640   1.200   6.358   4.187 -0.3260 -0.8949 -0.1863
   28MOL   C34730641   1.124   6.433   4.302  0.0573 -0.5057  0.1899
   28MOL   C34830642   0.980   6.393   4.310  0.2999  0.4775  0.5569
   28MOL   C34930643   0.907   6.441   4.434 -0.8968  0.1288  0.2495
   28MOL   C35030644   0.947   6.400   4.572 -0.0881  0.6170 -0.3494
   28MOL   O35130645   1.045   6.324   4.593 -0.3120  0.8398  0.4123
   28MOL   N35230646   0.866   6.444   4.670  0.0791  0.4806  0.6710
   28MOL   C35330647   0.888   6.415   4.805 -0.3824 -0.2570 -0.5772
   28MOL   C35430648   0.777   6.472   4.892  0.0250 -0.6406 -0.9052
   28MOL   C35530649   0.810   6.434   5.032  0.2020  0.3506  0.0196
   28MOL   C35630650   0.693   6.434   5.131  0.4608  0.0131 -0.2640
   28MOL   C35730651   0.740   6.398   5.271  0.3241  0.5360 -0.3449
   28MOL   C35830652   0.626   6.404   5.374 -0.3067 -0.2067 -0.7894
   28MOL   N35930653   0.683   6.424   5.511  0.3301  0.0849 -0.2637
   28MOL   H36030654   1.655   5.836   4.114  1.4664  1.5494 -2.4691
   28MOL   H36130655   1.529   5.923   4.198 -1.9720  0.6062 -0.3900
   28MOL   H36230656   1.704   6.071   4.070  1.0776  2.2972 -2.8286
   28MOL   H36330657   1.666   5.983   3.929 -1.7936 -0.6186 -0.4976
   28MOL   H36430658   1.448   6.101   3.923  3.3422  0.4833 -3.4410
   28MOL   H36530659   1.590   6.193   3.912  1.8958 -1.3594 -0.0429
   28MOL   H36630660   1.427   6.151   4.170  1.4072  0.2572  0.0803
   28MOL   H36730661   1.576   6.246   4.158  0.4539  1.1907 -0.4833
   28MOL   H36830662   1.515   6.413   4.046 -1.3675  3.0483 -0.0921
   28MOL   H36930663   1.373   6.344   3.971  0.3838  0.6654 -0.4333
   28MOL   H37030664   1.394   6.394   4.271 -0.2094  0.1752 -0.0288
   28MOL   H37130665   1.346   6.521   4.164  0.4084  1.0436  4.0303
   28MOL   H37230666   1.140   6.375   4.098  1.6544  1.2835 -1.1475
   28MOL   H37330667   1.190   6.253   4.215 -2.8959 -0.8188 -0.6773
   28MOL   H37430668   1.173   6.419   4.399 -1.7014 -0.3838  1.1056
   28MOL   H37530669   1.125   6.541   4.290 -0.1074 -0.3825  1.2124
   28MOL   H37630670   0.979   6.284   4.300 -1.9145  0.7343 -3.0232
   28MOL   H37730671   0.936   6.437   4.220 -0.8554  2.2114  1.9462
   28MOL   H37830672   0.915   6.549   4.436  0.9837  0.0264 -1.0531
   28MOL   H37930673   0.802   6.414   4.419 -1.3483  2.0082 -0.1021
   28MOL   H38030674   0.788   6.504   4.646  0.0180  0.2261  0.2325
   28MOL   H38130675   0.988   6.450   4.830 -0.6122  0.0372 -0.0575
   28MOL   H38230676   0.900   6.307   4.808  2.1864  0.0437  1.1158
   28MOL   H38330677   0.677   6.440   4.862 -0.7729  1.1079 -0.1872
   28MOL   H38430678   0.761   6.579   4.873  0.8833 -0.5731 -1.3088
   28MOL   H38530679   0.860   6.337   5.034  0.1347  0.3280  2.7521
   28MOL   H38630680   0.889   6.505   5.055  1.2186 -0.3030 -1.3898
   28MOL   H38730681   0.639   6.528   5.137 -1.0293 -0.8257 -0.3458
   28MOL   H38830682   0.619   6.364   5.093  1.4762 -0.6240 -1.0918
   28MOL   H38930683   0.823   6.461   5.303 -0.7726  2.0932 -0.4970
   28MOL   H39030684   0.780   6.298   5.284 -2.6461 -0.3458  2.9244
   28MOL   H39130685   0.574   6.499   5.356 -0.5706 -0.4910 -1.5605
   28MOL   H39230686   0.557   6.320   5.369 -0.7513  0.1366 -0.5128
   28MOL   H39330687   0.776   6.464   5.516  0.6079 -0.5553 -0.3081
   28MOL   C39430688   0.616   6.402   5.630  0.4665 -0.5934  0.1127
   28MOL   O39530689   0.500   6.358   5.626  0.7615 -0.5708 -0.3232
   28MOL   C39630690   0.677   6.443   5.757 -0.4332 -0.1824 -0.3413
   28MOL   C39730691   0.715   6.321   5.840 -0.9833 -0.1087 -0.4049
   28MOL   C39830692   0.841   6.247   5.791  0.3076  0.0388  0.7015
   28MOL   C39930693   0.862   6.109   5.850  0.1777  0.7142 -0.1835
   28MOL   C40030694   0.898   6.112   6.002 -0.4133  0.7381  0.1367
   28MOL   C40130695   0.968   5.981   6.040  0.3347  0.0394  0.0752
   28MOL   C40230696   1.006   5.971   6.187  0.1522 -0.1350 -0.1037
   28MOL   C40330697   1.072   5.831   6.216  0.1939 -0.8166  0.0875
   28MOL   C40430698   1.087   5.795   6.364  0.4816 -0.2857  0.5904
   28MOL   C40530699   1.164   5.664   6.392  0.5196 -0.1945 -0.1092
   28MOL   C40630700   1.180   5.619   6.539 -0.2753  0.0462 -0.4316
   28MOL   O40730701   1.106   5.671   6.621  0.4387 -0.4276  0.3678
   28MOL   N40830702   1.271   5.527   6.570 -0.1259 -0.6115 -0.6315
   28MOL   C40930703   1.292   5.483   6.709  0.3327 -0.9457  0.0941
   28MOL   C41030704   1.392   5.581   6.784 -0.3871  0.2552 -0.5808
   28MOL   C41130705   1.433   5.521   6.921  0.1721 -0.4474  0.1711
   28MOL   C41230706   1.533   5.610   6.989 -0.0998 -0.0865 -0.5457
   28MOL   C41330707   1.579   5.558   7.126  0.2300 -0.4911 -0.1079
   28MOL   C41430708   1.674   5.666   7.187 -0.1291 -0.3667 -0.5994
   28MOL   N41530709   1.714   5.641   7.325 -0.6396 -0.7223 -0.1637
   28MOL   H41630710   0.606   6.505   5.811  0.4922  1.5206 -1.0450
   28MOL   H41730711   0.763   6.509   5.749 -0.6430  0.6631  3.3613
   28MOL   H41830712   0.628   6.256   5.851 -2.5581  2.2203  1.5172
   28MOL   H41930713   0.726   6.357   5.943  0.8292 -1.1460 -0.2115
   28MOL   H42030714   0.931   6.307   5.806  0.9422  0.2448 -3.3181
   28MOL   H42130715   0.836   6.243   5.683  0.2945  0.8340  0.6663
   28MOL   H42230716   0.954   6.078   5.801 -0.2885  1.4029 -1.4970
   28MOL   H42330717   0.782   6.044   5.816 -0.0869  0.7481  0.3746
   28MOL   H42430718   0.974   6.187   6.021  0.5108  0.4543 -2.1977
   28MOL   H42530719   0.808   6.137   6.058 -1.0893 -1.0140 -0.1315
   28MOL   H42630720   0.909   5.894   6.011 -2.0655  2.2000 -1.7514
   28MOL   H42730721   1.064   5.985   5.988  0.0181  0.0804 -0.5085
   28MOL   H42830722   1.076   6.049   6.216  0.9855 -0.5768 -0.8828
   28MOL   H42930723   0.919   6.001   6.245  1.1339 -0.6040  1.6459
   28MOL   H43030724   0.999   5.762   6.175 -0.4755  0.1427 -0.3551
   28MOL   H43130725   1.165   5.817   6.162  0.6121 -1.0151  0.8443
   28MOL   H43230726   0.993   5.801   6.419  0.4897  0.1576  0.5533
   28MOL   H43330727   1.151   5.874   6.404 -0.0321  0.5502 -0.2352
   28MOL   H43430728   1.137   5.579   6.329  2.8869  0.6122 -2.2927
   28MOL   H43530729   1.269   5.685   6.374  0.4441 -0.4796 -0.9212
   28MOL   H43630730   1.297   5.469   6.491  2.0076  2.1542 -2.0323
   28MOL   H43730731   1.333   5.382   6.715  0.1797 -0.9600  1.1254
   28MOL   H43830732   1.194   5.473   6.757 -0.6920 -0.3735 -1.8366
   28MOL   H43930733   1.344   5.677   6.803 -1.4933 -0.7802  2.1155
   28MOL   H44030734   1.479   5.595   6.720  1.2538 -1.0643  1.2950
   28MOL   H44130735   1.346   5.525   6.986 -0.3653 -0.6876 -0.5399
   28MOL   H44230736   1.461   5.416   6.914  0.4213 -0.2982 -1.1708
   28MOL   H44330737   1.604   5.635   6.911 -2.7504  1.6174 -2.4992
   28MOL   H44430738   1.493   5.711   6.998  2.6198  0.8910  1.1055
   28MOL   H44530739   1.491   5.538   7.187  0.0102  0.1362 -0.2139
   28MOL   H44630740   1.638   5.466   7.124  1.5907  0.3661 -0.4153
   28MOL   H44730741   1.748   5.683   7.108 -0.3464 -1.0845 -0.9589
   28MOL   H44830742   1.626   5.763   7.189  1.6089  0.5218 -0.8893
   28MOL   H44930743   1.660   5.677   7.403  1.2875  2.5745 -0.2572
   28MOL   C45030744   1.801   5.544   7.354 -0.0131 -0.0565 -1.0234
   28MOL   O45130745   1.841   5.468   7.265 -0.5352  0.0124 -0.5403
   28MOL   C45230746   1.843   5.529   7.499  0.3956 -0.5710 -0.0318
   28MOL   C45330747   1.989   5.481   7.531 -0.0824 -0.3036  0.3557
   28MOL   C45430748   2.024   5.328   7.520 -0.3096 -0.2837 -0.3979
   28MOL   C45530749   2.167   5.288   7.561 -0.7677 -0.4839 -0.1851
   28MOL   C45630750   2.177   5.132   7.593  0.0623 -0.3426  0.4068
   28MOL   C45730751   2.312   5.082   7.639 -0.6528 -0.7969 -0.1227
   28MOL   C45830752   2.348   5.092   0.092 -0.1451 -0.5139 -0.4462
   28MOL   C45930753   2.489   5.036   0.117 -0.2720 -0.4994  0.1896
   28MOL   C46030754   2.526   5.045   0.268  0.1924  0.5268 -0.1725
   28MOL   C46130755   2.674   5.019   0.308 -0.6253 -0.5854  0.9552
   28MOL   C46230756   2.776   5.113   0.242 -0.3755  0.5311  0.0740
   28MOL   O46330757   2.850   5.084   0.148 -0.2934  0.1949 -0.5311
   28MOL   N46430758   2.773   5.237   0.287  0.2927 -0.0447 -0.3607
   28MOL   C46530759   2.841   5.342   0.217  0.7213 -0.4892 -0.1462
   28MOL   C46630760   2.771   5.396   0.085  0.3494  0.1026  0.0071
   28MOL   C46730761   2.638   5.468   0.124 -0.0710  0.0197  0.5181
   28MOL   C46830762   2.570   5.508   7.684  1.3934 -0.0789  0.2500
   28MOL   C46930763   2.439   5.588   0.006 -0.8631  0.0031 -0.2954
   28MOL   C47030764   2.417   5.702   7.604  0.0912  0.3421  0.2037
   28MOL   N47130765   2.301   5.782   7.633 -0.1503 -0.4378 -0.0754
   28MOL   H47230766   1.832   5.626   7.547 -0.9337  0.2405 -1.9318
   28MOL   H47330767   1.765   5.472   7.550 -0.0862 -1.2951 -1.5435
   28MOL   H47430768   2.004   5.489   7.639  0.9869 -1.5045  0.2928
   28MOL   H47530769   2.071   5.537   7.486 -0.7365 -0.0637 -0.5570
   28MOL   H47630770   2.002   5.297   7.418 -0.1049  0.8921 -0.8191
   28MOL   H47730771   1.955   5.269   7.580 -1.0625  1.6710  0.7194
   28MOL   H47830772   2.198   5.342   7.651 -0.1353  1.8030 -1.7438
   28MOL   H47930773   2.232   5.308   7.475 -0.7875  1.6280  0.2527
   28MOL   H48030774   2.142   5.074   7.507 -1.2161 -2.5211  2.3228
   28MOL   H48130775   2.108   5.119   7.677 -0.0926  0.4195  0.4054
   28MOL   H48230776   2.388   5.137   7.583 -1.7411  2.3885  1.4335
   28MOL   H48330777   2.331   4.976   7.622  3.5187  0.1690 -1.9649
   28MOL   H48430778   2.348   5.195   0.127 -0.1151 -0.5890 -0.2202
   28MOL   H48530779   2.279   5.043   0.162 -0.1730 -0.1590 -0.2239
   28MOL   H48630780   2.495   4.933   0.079 -0.2527 -0.6132  0.5030
   28MOL   H48730781   2.554   5.108   0.067 -2.1466  0.5352 -0.7878
   28MOL   H48830782   2.456   4.981   0.323  1.0152  0.2471  0.5508
   28MOL   H48930783   2.493   5.143   0.299 -0.1247  0.4536 -0.2701
   28MOL   H49030784   2.683   5.032   0.416  0.7604  1.4795  0.6225
   28MOL   H49130785   2.718   4.924   0.277  0.8927  0.8448 -1.5327
   28MOL   H49230786   2.713   5.268   0.362  0.3816 -1.4732  0.3215
   28MOL   H49330787   2.945   5.314   0.196  0.6647 -0.6156 -0.2591
   28MOL   H49430788   2.841   5.420   0.292 -1.7595 -2.4145  1.9176
   28MOL   H49530789   2.848   5.457   0.037  0.0164 -0.9955 -1.9554
   28MOL   H49630790   2.761   5.321   0.007 -0.4944  1.6259 -1.3542
   28MOL   H49730791   2.653   5.551   0.192  0.7249  0.5444 -0.2949
   28MOL   H49830792   2.582   5.390   0.177 -0.0024 -0.4004 -0.0142
   28MOL   H49930793   2.537   5.429   7.617 -2.6986  1.4577  0.3115
   28MOL   H50030794   2.640   5.560   7.618  0.2992 -1.3672 -1.9656
   28MOL   H50130795   2.348   5.529   0.003 -2.4120  2.2735  0.9244
   28MOL   H50230796   2.447   5.632   0.105 -0.3503 -0.9231  0.0860
   28MOL   H50330797   2.504   5.767   7.606  0.0970  0.4532 -2.0615
   28MOL   H50430798   2.413   5.654   7.506  0.3131  0.5933  0.0701
   28MOL   H50530799   2.249   5.762   0.025  0.3518  2.2953  0.9443
   28MOL   C50630800   2.222   5.843   7.540 -0.7690 -0.3689  0.8910
   28MOL   O50730801   2.252   5.852   7.425 -0.0163 -0.0236  0.3433
   28MOL   C50830802   2.084   5.898   7.576  0.8073 -0.5738 -0.8623
   28MOL   C50930803   2.003   5.955   7.454 -0.3914  0.4761 -0.2077
   28MOL   C51030804   1.873   6.032   7.479 -0.2487  0.4232 -0.6539
   28MOL   C51130805   1.801   6.100   7.359 -0.2354 -0.1884 -1.1405
   28MOL   C51230806   1.700   6.022   7.275 -0.0091 -0.4521 -0.2381
   28MOL   C51330807   1.669   6.088   7.137  0.3950  0.1076 -0.5601
   28MOL   C51430808   1.571   6.001   7.058  0.4096  0.7217  0.7636
   28MOL   C51530809   1.537   6.068   6.926 -0.2148  0.5971  0.3044
   28MOL   C51630810   1.483   5.971   6.817 -0.4781 -0.1992  0.0763
   28MOL   C51730811   1.481   6.037   6.676  0.3404  0.4799 -0.1340
   28MOL   C51830812   1.621   6.030   6.616 -0.2261 -0.7332  0.3645
   28MOL   O51930813   1.655   5.919   6.582  0.0258 -0.6645 -0.0922
   28MOL   N52030814   1.694   6.142   6.602 -0.5578 -0.4564  0.1669
   28MOL   C52130815   1.829   6.157   6.552  0.0241  0.5940 -0.2514
   28MOL   C52230816   1.821   6.196   6.403  0.6556 -0.4147 -0.4174
   28MOL   C52330817   1.765   6.343   6.384 -0.1974  0.0183  0.2101
   28MOL   C52430818   1.871   6.456   6.396  0.0691  0.0263  0.2611
   28MOL   C52530819   1.801   6.592   6.399 -1.0785  0.4863  0.5534
   28MOL   C52630820   1.908   6.697   6.417 -0.2814 -0.4883  0.2844
   28MOL   N52730821   1.989   6.730   6.296  1.1430  0.4200 -0.4962
   28MOL   H52830822   2.092   5.981   7.646  0.5161 -0.2872 -1.1708
   28MOL   H52930823   2.028   5.820   7.628  0.1032 -0.3036 -1.2076
   28MOL   H53030824   1.985   5.867   7.392 -0.0267  0.0127  0.3390
   28MOL   H53130825   2.064   6.018   7.389  0.0070 -0.1753 -0.4752
   28MOL   H53230826   1.909   6.111   7.545  0.3390  0.7653 -1.3847
   28MOL   H53330827   1.794   5.984   7.537  0.4352  0.8729  0.6654
   28MOL   H53430828   1.756   6.194   7.391 -1.5863 -2.8239  5.5840
   28MOL   H53530829   1.884   6.116   7.290 -0.4121  2.3199 -0.8082
   28MOL   H53630830   1.749   5.927   7.252  0.5001  0.0502 -1.2726
   28MOL   H53730831   1.606   6.012   7.328  0.2715 -2.4744 -0.1057
   28MOL   H53830832   1.614   6.179   7.158  0.2959  0.0520 -0.5818
   28MOL   H53930833   1.758   6.100   7.076 -0.0661  0.1112 -1.2338
   28MOL   H54030834   1.614   5.904   7.032 -1.8793 -0.4406  1.1313
   28MOL   H54130835   1.475   5.973   7.101 -0.2957  0.1369 -1.1344
   28MOL   H54230836   1.463   6.145   6.942  1.9287  3.3135 -2.2914
   28MOL   H54330837   1.630   6.112   6.888 -1.0949 -0.1715 -2.8771
   28MOL   H54430838   1.388   5.936   6.858  0.6315 -2.0392  1.1269
   28MOL   H54530839   1.523   5.870   6.816 -0.9615 -0.4912  3.1459
   28MOL   H54630840   1.407   5.992   6.611 -1.1297  0.6863  1.3571
   28MOL   H54730841   1.446   6.140   6.683  1.8702  1.1906 -2.3379
   28MOL   H54830842   1.655   6.231   6.629 -0.3728  0.3521 -2.0982
   28MOL   H54930843   1.883   6.062   6.559 -1.0471  0.0207  0.3451
   28MOL   H55030844   1.891   6.228   6.607  1.8194 -0.3393 -1.0207
   28MOL   H55130845   1.760   6.131   6.339  0.4754  2.1144 -2.9234
   28MOL   H55230846   1.918   6.199   6.355  0.4412  1.4440 -0.7934
   28MOL   H55330847   1.680   6.364   6.449 -0.4555  1.3943 -0.5488
   28MOL   H55430848   1.704   6.353   6.294  0.0300 -1.6196 -0.1449
   28MOL   H55530849   1.941   6.456   6.312  1.4744 -0.3933  1.3954
   28MOL   H55630850   1.934   6.440   6.484 -2.8278 -0.2173  2.3661
   28MOL   H55730851   1.755   6.605   6.301 -0.3869 -1.6235 -0.0954
   28MOL   H55830852   1.720   6.602   6.470 -0.6762 -1.0915  1.2712
   28MOL   H55930853   1.846   6.783   6.443  1.0608  0.7450 -0.5112
   28MOL   H56030854   1.971   6.667   6.500 -0.6309 -1.8852  0.0547
   28MOL   H56130855   2.039   6.654   6.252 -2.2373 -2.1791 -0.0673
   28MOL   C56230856   1.981   6.842   6.220  0.0992  0.4755 -0.3274
   28MOL   O56330857   1.935   6.947   6.260  0.0878 -0.2681  0.0200
   28MOL   C56430858   2.059   6.830   6.091 -0.3317 -0.0482  0.3628
   28MOL   C56530859   2.023   6.912   5.962 -0.2892  0.6303  0.4105
   28MOL   C56630860   2.108   6.887   5.837 -0.0194 -0.4483 -0.1570
   28MOL   C56730861   2.048   6.784   5.734 -0.0238 -0.0510 -0.0701
   28MOL   C56830862   2.119   6.790   5.597 -0.2254  0.1333 -0.1964
   28MOL   C56930863   2.076   6.686   5.493  0.4208  0.1193 -0.6415
   28MOL   C57030864   2.147   6.699   5.359 -0.0771 -0.6296 -0.3724
   28MOL   C57130865   2.114   6.581   5.261 -0.5311 -0.5634  0.0754
   28MOL   C57230866   2.149   6.611   5.113  0.2021  0.6015  0.3352
   28MOL   C57330867   2.298   6.630   5.099  0.2679  0.3801  0.3660
   28MOL   C57430868   2.351   6.777   5.100 -0.7087 -0.2647  0.3810
   28MOL   O57530869   2.282   6.868   5.057  1.0716  0.2611  0.2439
   28MOL   N57630870   2.475   6.785   5.134 -0.3042 -0.8029 -0.0247
   28MOL   C57730871   2.549   6.912   5.136 -0.1436  0.1569 -0.8533
   28MOL   C57830872   2.677   6.907   5.057  0.4119 -0.7607  0.5032
   28MOL   C57930873   2.648   6.910   4.911 -0.2824  0.2981  0.0122
   28MOL   C58030874   2.779   6.893   4.831 -0.5065 -0.3283  0.7837
   28MOL   C58130875   2.859   6.756   4.859  0.0775 -0.2087  0.3493
   28MOL   C58230876   2.952   6.710   4.740 -0.0282  0.4717 -0.6039
   28MOL   N58330877   3.012   6.821   4.671 -0.0774 -0.4369 -0.2167
   28MOL   H58430878   2.166   6.837   6.107 -0.3842  1.0902  0.2198
   28MOL   H58530879   2.031   6.730   6.057 -2.3831  0.4145  0.6385
   28MOL   H58630880   1.917   6.898   5.938 -0.2954 -1.1283  1.3725
   28MOL   H58730881   2.028   7.016   5.993  1.2099 -0.0250  2.4255
   28MOL   H58830882   2.211   6.856   5.856 -0.3274 -1.1171  0.4143
   28MOL   H58930883   2.114   6.985   5.789 -2.3564  0.2647  0.9495
   28MOL   H59030884   2.060   6.684   5.776  1.2232 -0.7683 -2.0773
   28MOL   H59130885   1.942   6.804   5.719  0.2537  0.8265 -0.9143
   28MOL   H59230886   2.100   6.892   5.564  0.3395  1.1670  2.5848
   28MOL   H59330887   2.226   6.771   5.602 -0.5374 -2.4055 -1.7740
   28MOL   H59430888   2.104   6.587   5.530  0.2844  0.3194  0.0169
   28MOL   H59530889   1.971   6.675   5.467  0.9889 -4.6443 -1.4550
   28MOL   H59630890   2.108   6.793   5.318  1.6096  0.1864 -0.1441
   28MOL   H59730891   2.253   6.704   5.382 -0.5446  2.2237  1.4728
   28MOL   H59830892   2.012   6.548   5.279 -0.3711 -0.6322  0.9092
   28MOL   H59930893   2.172   6.491   5.283 -0.0785  0.0508  1.4834
   28MOL   H60030894   2.088   6.693   5.076  1.4735  0.6570 -1.7070
   28MOL   H60130895   2.132   6.523   5.051 -1.1467  0.2693  1.1603
   28MOL   H60230896   2.340   6.562   5.172  0.2459  0.6544  0.6345
   28MOL   H60330897   2.322   6.579   5.005  1.1683  1.8239 -0.2048
   28MOL   H60430898   2.509   6.702   5.180  1.1691 -0.8020 -1.0436
   28MOL   H60530899   2.566   6.937   5.241 -1.9612 -3.9359  0.5512
   28MOL   H60630900   2.490   6.992   5.091  1.7955  2.2596  0.2710
   28MOL   H60730901   2.731   6.824   5.101  1.6677  0.4928  1.3407
   28MOL   H60830902   2.735   6.997   5.080 -0.5274  0.6688 -2.3805
   28MOL   H60930903   2.605   7.004   4.877  0.4874 -0.4233 -3.1170
   28MOL   H61030904   2.571   6.838   4.882  0.0839  0.1316 -0.5538
   28MOL   H61130905   2.752   6.900   4.725  1.2361  1.4836  0.4558
   28MOL   H61230906   2.856   6.966   4.853  0.2291 -0.5781 -0.8241
   28MOL   H61330907   2.775   6.690   4.881 -1.1170  1.4691  0.9191
   28MOL   H61430908   2.916   6.756   4.952  1.8514  0.2888 -0.7114
   28MOL   H61530909   3.030   6.648   4.784 -0.0883  0.0349 -1.1157
   28MOL   H61630910   2.900   6.648   4.667  0.5406  0.4190 -0.9632
   28MOL   H61730911   3.039   6.907   4.718  0.5950  0.0869 -1.5301
   28MOL   C61830912   3.026   6.822   4.539  0.0101  0.4568 -0.5746
   28MOL   O61930913   2.981   6.734   4.462  0.3687  0.3915  0.2967
   28MOL   C62030914   3.096   6.947   4.478  0.2878 -0.2805 -0.1928
   28MOL   C62130915   3.213   6.911   4.383 -0.1344  0.5332 -0.6067
   28MOL   C62230916   3.276   7.043   4.339  0.0212  0.3394 -1.2078
   28MOL   C62330917   3.404   7.021   4.267  0.3697 -0.2783 -0.1597
   28MOL   C62430918   3.470   7.144   4.241  0.3035  0.0565  0.0478
   28MOL   C62530919   3.581   7.128   4.141  0.3245  0.7547  0.4064
   28MOL   C62630920   3.624   7.255   4.073 -0.1342  0.0504  0.1270
   28MOL   C62730921   3.712   7.231   3.948  0.2860  0.2613  0.1405
   28MOL   C62830922   3.765   7.358   3.887  0.6537 -0.1935 -0.0476
   28MOL   C62930923   3.667   7.459   3.824 -0.4830  0.1032  0.0854
   28MOL   C63030924   3.610   7.390   3.703 -0.4493 -0.4098  0.2934
   28MOL   O63130925   3.675   7.399   3.595 -0.4635 -0.5192  0.0533
   28MOL   N63230926   3.489   7.342   3.703 -0.0160  0.4108 -0.1733
   28MOL   C63330927   3.416   7.287   3.587  0.3578  0.0799  0.1190
   28MOL   C63430928   3.474   7.149   3.554  0.0546 -0.8134  0.2510
   28MOL   C63530929   3.448   7.041   3.663  0.0965  0.3608  0.7435
   28MOL   C63630930   3.496   6.898   3.623  0.2454  0.0414 -0.3803
   28MOL   C63730931   3.463   6.798   3.743  0.1917 -0.2294 -0.1293
   28MOL   C63830932   3.502   6.651   3.716  0.5557  0.4565  0.3170
   28MOL   N63930933   3.528   6.581   3.839 -0.1034 -0.0345  0.1491
   28MOL   H64030934   3.122   7.015   4.559  0.9146  0.0901 -0.7023
   28MOL   H64130935   3.016   6.997   4.423  0.6232 -0.0504 -0.4692
   28MOL   H64230936   3.178   6.850   4.300 -0.6188 -2.3777  1.6782
   28MOL   H64330937   3.288   6.861   4.445 -1.5257  0.6240  1.2057
   28MOL   H64430938   3.295   7.098   4.431  3.5321  0.3610 -1.8768
   28MOL   H64530939   3.212   7.100   4.272  1.6427  1.5515 -1.7541
   28MOL   H64630940   3.478   6.959   4.317 -3.0718 -2.8270  1.9975
   28MOL   H64730941   3.398   6.955   4.181 -0.0881  1.6621 -1.6460
   28MOL   H64830942   3.402   7.212   4.189 -1.3079 -0.5245  1.3457
   28MOL   H64930943   3.502   7.208   4.323  0.2721 -1.1114  0.9947
   28MOL   H65030944   3.549   7.056   4.065 -1.3072  0.7498  1.0700
   28MOL   H65130945   3.668   7.077   4.182  1.2795  1.9259 -0.1564
   28MOL   H65230946   3.535   7.309   4.041 -0.2837 -0.2460  0.0477
   28MOL   H65330947   3.666   7.323   4.148 -1.6845  0.3378  0.7485
   28MOL   H65430948   3.793   7.166   3.983  0.1180  0.3804  0.7524
   28MOL   H65530949   3.664   7.170   3.872 -1.9366 -0.7616  2.2788
   28MOL   H65630950   3.846   7.333   3.819  0.4545  0.8294 -0.6654
   28MOL   H65730951   3.803   7.419   3.969  0.0675 -0.7403  0.6402
   28MOL   H65830952   3.579   7.493   3.879 -1.2225  0.0495 -1.0458
   28MOL   H65930953   3.714   7.550   3.788 -0.8510  0.2053 -0.1342
   28MOL   H66030954   3.420   7.366   3.773 -1.5354  1.4270 -1.9581
   28MOL   H66130955   3.312   7.275   3.618 -0.3706  0.2917 -2.1648
   28MOL   H66230956   3.418   7.353   3.501 -0.4578 -3.8080 -3.0653
   28MOL   H66330957   3.578   7.166   3.529  0.0527 -0.9128  0.1790
   28MOL   H66430958   3.431   7.121   3.458  1.6348 -1.2856 -0.3328
   28MOL   H66530959   3.497   7.074   3.755  0.7889  0.6871  0.2550
   28MOL   H66630960   3.342   7.028   3.687 -0.0483  0.3500  0.1143
   28MOL   H66730961   3.602   6.897   3.598  0.4286  0.6305  0.3441
   28MOL   H66830962   3.451   6.873   3.527 -0.6139  0.4549 -0.0963
   28MOL   H66930963   3.516   6.830   3.833 -0.3298 -2.8390  1.1641
   28MOL   H67030964   3.361   6.800   3.781  0.4873 -0.1970  0.6853
   28MOL   H67130965   3.430   6.604   3.649  1.9924 -0.7731 -0.4023
   28MOL   H67230966   3.593   6.656   3.656  0.4437 -1.7536 -0.0902
   28MOL   H67330967   3.531   6.640   3.921  0.7014  1.7877 -1.1660
   28MOL   C67430968   3.547   6.445   3.860  0.8906  0.0033 -0.1549
   28MOL   O67530969   3.556   6.359   3.771 -0.3126 -0.3783  0.3660
   28MOL   C67630970   3.557   6.415   4.004  0.7698  0.1524  0.0393
   28MOL   C67730971   3.503   6.277   4.046  0.3754  0.5842  0.2575
   28MOL   C67830972   3.555   6.220   4.175  0.0782 -0.6721  0.0063
   28MOL   C67930973   3.477   6.098   4.212  0.0724  0.3404  0.1871
   28MOL   C68030974   3.469   6.059   4.370  0.2081  0.5939 -0.1143
   28MOL   C68130975   3.347   5.978   4.414  0.4846 -0.1883 -1.2754
   28MOL   C68230976   3.348   5.918   4.554 -0.7155 -0.1159 -0.1282
   28MOL   C68330977   3.451   5.806   4.568 -0.2797  0.2787 -0.0198
   28MOL   C68430978   3.441   5.741   4.711 -0.1420 -0.2827 -0.3791
   28MOL   C68530979   3.561   5.655   4.749 -0.0161 -0.1237  0.8095
   28MOL   C68630980   3.683   5.725   4.797  0.0456 -0.4073  0.2862
   28MOL   O68730981   3.681   5.796   4.900 -0.0568 -0.0059  0.3054
   28MOL   N68830982   3.790   5.708   4.725  0.2899 -0.7839 -0.2706
   28MOL   C68930983   3.918   5.759   4.759  0.1219  0.6991  0.0944
   28MOL   C69030984   4.040   5.677   4.706  0.4056  0.2010 -0.4929
   28MOL   C69130985   4.167   5.733   4.758 -0.5777  0.3881  0.4236
   28MOL   C69230986   4.302   5.674   4.706 -0.5140  0.8139  0.3400
   28MOL   C69330987   4.433   5.742   4.753 -0.5649  0.1578 -0.6564
   28MOL   C69430988   4.465   5.733   4.897 -0.3126 -0.2243 -0.4314
   28MOL   N69530989   4.582   5.810   4.944 -0.5178  0.2381  0.3094
   28MOL   H69630990   3.513   6.490   4.069  0.3473 -1.0999  1.2279
   28MOL   H69730991   3.661   6.417   4.036  0.4599  0.9017  1.0163
   28MOL   H69830992   3.539   6.206   3.972  0.2723  0.0807  0.6917
   28MOL   H69930993   3.394   6.282   4.043  0.4534  1.9434 -0.4280
   28MOL   H70030994   3.661   6.194   4.166  0.6234  1.6258 -0.4434
   28MOL   H70130995   3.546   6.290   4.258 -0.5073  0.1226 -0.7208
   28MOL   H70230996   3.526   6.015   4.161 -0.5638  0.7202 -1.0800
   28MOL   H70330997   3.376   6.125   4.179  0.4346  1.4995 -0.0059
   28MOL   H70430998   3.476   6.151   4.428  0.4673 -0.6055  1.8288
   28MOL   H70530999   3.560   6.005   4.398 -0.6172 -0.1315  1.2459
   28MOL   H70631000   3.262   6.047   4.411 -0.3133 -1.1187 -0.4562
   28MOL   H70731001   3.304   5.908   4.342 -0.9332 -1.1086  0.4348
   28MOL   H70831002   3.358   5.994   4.631 -4.7325 -0.6516  1.0229
   28MOL   H70931003   3.246   5.884   4.572 -0.9540  1.3263  1.3419
   28MOL   H71031004   3.419   5.725   4.503  1.5471  0.6536 -1.4287
   28MOL   H71131005   3.554   5.836   4.549  0.3044 -1.5295  0.1635
   28MOL   H71231006   3.355   5.674   4.724 -0.4294  0.0329 -0.6466
   28MOL   H71331007   3.435   5.818   4.788  0.8055 -1.1768  0.6098
   28MOL   H71431008   3.526   5.594   4.831  1.2008 -1.7715  0.1280
   28MOL   H71531009   3.588   5.582   4.672  0.6017  1.0722 -0.1333
   28MOL   H71631010   3.783   5.654   4.639 -0.7426 -1.8452  0.4619
   28MOL   H71731011   3.920   5.863   4.727  3.2376  0.8123  0.5703
   28MOL   H71831012   3.928   5.754   4.867  2.8358 -2.0299 -0.2099
   28MOL   H71931013   4.049   5.679   4.598 -0.9364  0.5440 -0.6096
   28MOL   H72031014   4.029   5.571   4.730  1.7153 -0.1534 -1.4153
   28MOL   H72131015   4.161   5.837   4.724 -2.1332 -0.1480 -0.9960
   28MOL   H72231016   4.162   5.723   4.866 -0.2943 -2.4533  0.2010
   28MOL   H72331017   4.314   5.677   4.598  0.0401  1.1735  0.4107
   28MOL   H72431018   4.323   5.570   4.732 -0.8350  0.5902 -0.2849
   28MOL   H72531019   4.445   5.841   4.708  0.2142 -1.3122 -3.8098
   28MOL   H72631020   4.508   5.692   4.692  0.3767  2.0139 -1.0462
   28MOL   H72731021   4.383   5.764   4.962 -1.5722  0.3933 -2.2731
   28MOL   H72831022   4.482   5.628   4.919  1.2491 -0.2944 -1.8447
   28MOL   H72931023   4.565   5.887   5.008  0.1477 -0.7112  1.6314
   28MOL   C73031024   4.708   5.778   4.921  0.2570 -0.3986  0.1961
   28MOL   O73131025   4.743   5.685   4.849  0.7640  0.9060  0.2419
   28MOL   C73231026   4.820   5.861   4.996  0.6710  0.3695  0.3787
   28MOL   C73331027   4.894   5.948   4.896 -0.4526  0.2992  0.2340
   28MOL   C73431028   4.804   6.069   4.837  0.1631 -0.1920  0.3312
   28MOL   C73531029   4.738   6.047   4.697  0.0549  0.1763 -0.1411
   28MOL   C73631030   4.827   6.031   4.580  0.4439 -0.4496  0.4212
   28MOL   C73731031   4.768   6.062   4.443  0.1813 -0.1191 -0.3013
   28MOL   C73831032   4.877   6.087   4.335  0.4110  0.3614  0.7116
   28MOL   C73931033   4.931   5.958   4.273  0.2060  0.3998  0.0785
   28MOL   C74031034   5.007   5.983   4.145  0.2574 -0.2054  0.2944
   28MOL   C74131035   5.159   6.026   4.152  0.2079 -0.2632 -0.0252
   28MOL   C74231036   5.263   5.930   4.195 -0.4019 -0.3572 -0.1158
   28MOL   O74331037   5.325   5.859   4.111 -0.7280  0.2613 -0.8530
   28MOL   N74431038   5.298   5.947   4.319  0.1113 -0.2414  0.1448
   28MOL   C74531039   5.406   5.882   4.391  0.5063  0.5730 -0.6278
   28MOL   C74631040   5.374   5.737   4.437 -0.2762  0.0803 -0.1931
   28MOL   C74731041   5.259   5.751   4.542 -0.6711  0.8337 -0.1366
   28MOL   C74831042   5.198   5.618   4.589  0.2210  0.6324  0.1204
   28MOL   C74931043   5.097   5.612   4.703  0.9484  0.1817  0.6324
   28MOL   C75031044   5.021   5.477   4.714 -0.3520 -0.2920  0.5973
   28MOL   N75131045   4.920   5.472   4.818  0.2559 -0.6575  0.3084
   28MOL   H75231046   4.881   5.795   5.056 -0.8693 -0.8623  0.6398
   28MOL   H75331047   4.768   5.932   5.061  0.5673  1.2901 -0.6862
   28MOL   H75431048   4.939   5.887   4.818  1.0321  1.2183  0.3558
   28MOL   H75531049   4.972   5.999   4.952 -0.0560 -0.4520  0.3791
   28MOL   H75631050   4.869   6.154   4.815 -0.5008 -0.3259 -2.2747
   28MOL   H75731051   4.739   6.097   4.919 -0.1452 -1.5934  0.5799
   28MOL   H75831052   4.685   6.141   4.680 -0.1116 -0.0754 -1.0241
   28MOL   H75931053   4.657   5.974   4.704  1.6852 -1.6303  0.3097
   28MOL   H76031054   4.851   5.925   4.578 -0.9277 -0.7509 -1.2160
   28MOL   H76131055   4.922   6.082   4.595  0.1996  0.1655 -0.0825
   28MOL   H76231056   4.699   5.982   4.416  0.6830 -1.0365  1.0746
   28MOL   H76331057   4.718   6.159   4.446  0.1430 -0.1490  0.1279
   28MOL   H76431058   4.838   6.138   4.246  1.7235 -1.3031 -0.8527
   28MOL   H76531059   4.959   6.152   4.365  2.8370 -0.7977 -3.0672
   28MOL   H76631060   4.998   5.902   4.338  0.0844 -1.2450 -1.1815
   28MOL   H76731061   4.846   5.894   4.248  1.2330 -0.4763 -1.2574
   28MOL   H76831062   4.950   6.052   4.084  0.5029 -0.3550 -0.1037
   28MOL   H76931063   5.007   5.886   4.095 -1.2131  0.1300 -0.3966
   28MOL   H77031064   5.190   6.076   4.060  0.8687 -0.4807  0.0810
   28MOL   H77131065   5.166   6.118   4.211 -0.5523 -0.8849  1.0576
   28MOL   H77231066   5.249   6.027   4.357 -0.8833  0.3385 -2.2374
   28MOL   H77331067   5.435   5.936   4.481 -1.8544  0.4423  0.2474
   28MOL   H77431068   5.494   5.887   4.326 -0.3896 -1.4117 -2.0334
   28MOL   H77531069   5.454   5.678   4.481 -0.0008  0.6756  0.1107
   28MOL   H77631070   5.334   5.682   4.352 -0.9856  0.7359 -0.2938
   28MOL   H77731071   5.180   5.818   4.506  1.2602  3.8699  1.0973
   28MOL   H77831072   5.292   5.810   4.628  1.7778 -1.6161  0.6524
   28MOL   H77931073   5.162   5.569   4.499  1.6463  1.6856 -1.0454
   28MOL   H78031074   5.279   5.554   4.623 -0.1174 -0.4716 -1.1087
   28MOL   H78131075   5.020   5.689   4.700  0.4454 -0.2019  2.5983
   28MOL   H78231076   5.164   5.627   4.788  1.0409 -0.9176  0.7647
   28MOL   H78331077   4.971   5.461   4.618 -1.3700 -3.6576  1.6323
   28MOL   H78431078   5.093   5.396   4.721 -1.0494 -0.8922  0.8674
   28MOL   H78531079   4.866   5.556   4.837  1.3428 -0.0362  0.6479
   28MOL   C78631080   4.897   5.364   4.894  1.1147 -1.0814 -0.9574
   28MOL   O78731081   4.959   5.261   4.893  0.1399 -0.7039  0.1301
   28MOL   C78831082   4.780   5.379   4.984 -0.2601  1.0120 -0.5376
   28MOL   C78931083   4.756   5.262   5.088  0.9713  0.3167 -0.2613
   28MOL   C79031084   4.693   5.126   5.036  0.2765  0.0045  0.0096
   28MOL   C79131085   4.647   5.017   5.138  0.3303 -0.0661  0.1404
   28MOL   C79231086   4.756   4.975   5.240 -0.2635  0.2681 -0.2882
   28MOL   C79331087   4.727   4.839   5.298  0.7929 -0.8384  1.1960
   28MOL   C79431088   4.815   4.800   5.410  0.7112  0.4395  0.6197
   28MOL   C79531089   4.805   4.647   5.438 -0.4639  0.2711 -0.2652
   28MOL   C79631090   4.920   4.579   5.515 -0.1700  0.0251  0.1262
   28MOL   C79731091   5.062   4.599   5.457  0.4316  0.3684  0.0391
   28MOL   C79831092   5.077   4.543   5.314  0.2119  0.1789  0.6723
   28MOL   O79931093   5.022   4.446   5.263 -0.4155 -0.2788 -1.1097
   28MOL   N80031094   5.159   4.617   5.234 -0.7565 -0.1814  0.6859
   28MOL   C80131095   5.187   4.570   5.095 -0.4115  0.0052 -0.2987
   28MOL   C80231096   5.242   4.678   4.997  1.1336  0.3702 -0.4937
   28MOL   C80331097   5.161   4.807   4.987  0.2428 -0.3867  0.5853
   28MOL   C80431098   5.199   4.907   5.096 -0.2379 -0.5384  0.0995
   28MOL   C80531099   5.134   5.051   5.080  0.0849  0.1977 -0.2630
   28MOL   C80631100   5.124   5.135   5.209  0.0173 -0.2377 -0.5553
   28MOL   N80731101   5.113   5.278   5.167 -0.0498 -0.1394 -0.3744
   28MOL   H80831102   4.692   5.396   4.922  0.0466  3.2741 -0.3709
   28MOL   H80931103   4.786   5.473   5.039  3.6427  0.0281  0.8687
   28MOL   H81031104   4.852   5.231   5.131  0.3389 -2.2880 -0.6835
   28MOL   H81131105   4.695   5.302   5.169  0.9230 -0.4290  0.0766
   28MOL   H81231106   4.766   5.084   4.967 -1.0169 -1.5545 -0.4402
   28MOL   H81331107   4.604   5.141   4.976  1.4793 -2.9845 -2.6498
   28MOL   H81431108   4.559   5.046   5.196  1.0010  2.5958 -0.1118
   28MOL   H81531109   4.601   4.934   5.085 -1.2931  0.9110 -0.0254
   28MOL   H81631110   4.851   4.976   5.186  0.8763 -1.1408  1.6432
   28MOL   H81731111   4.755   5.040   5.327 -2.2907  0.3027 -0.3288
   28MOL   H81831112   4.624   4.840   5.332 -0.2279  0.9763 -1.7580
   28MOL   H81931113   4.725   4.772   5.212 -0.5834  1.9144 -0.9682
   28MOL   H82031114   4.915   4.837   5.386  0.2569  0.0782 -1.9424
   28MOL   H82131115   4.781   4.851   5.500 -0.1989  0.8219  0.0594
   28MOL   H82231116   4.707   4.634   5.484 -2.0990  3.3418 -2.6559
   28MOL   H82331117   4.789   4.583   5.351 -0.6490  2.7897 -2.1262
   28MOL   H82431118   4.900   4.472   5.521 -1.1570  0.1680 -0.6060
   28MOL   H82531119   4.926   4.604   5.621  1.2196  1.7212 -0.3318
   28MOL   H82631120   5.095   4.702   5.456 -0.0365  0.5261 -1.3809
   28MOL   H82731121   5.136   4.544   5.515 -2.2974 -1.1407  2.2769
   28MOL   H82831122   5.201   4.698   5.275  0.6513 -0.7820  0.4558
   28MOL   H82931123   5.095   4.533   5.050 -1.2102  0.0756  1.2640
   28MOL   H83031124   5.258   4.487   5.095 -0.0525  0.3162  0.3831
   28MOL   H83131125   5.278   4.638   4.902  1.0979 -0.8768 -0.0037
   28MOL   H83231126   5.342   4.712   5.023  1.5540  0.2126 -1.8377
   28MOL   H83331127   5.186   4.863   4.897  1.9133 -0.9335  0.7070
   28MOL   H83431128   5.053   4.792   4.998  0.3906 -0.0383  2.6281
   28MOL   H83531129   5.306   4.918   5.113  0.1301 -2.6158 -0.7451
   28MOL   H83631130   5.174   4.875   5.197 -0.0240  0.3309  0.4300
   28MOL   H83731131   5.040   5.050   5.025  0.9183 -1.8574 -1.7601
   28MOL   H83831132   5.211   5.094   5.016 -2.0240 -1.0973 -3.8069
   28MOL   H83931133   5.208   5.114   5.275 -1.3121 -3.4191  0.1993
   28MOL   H84031134   5.037   5.101   5.264  0.8278  1.0350  1.5736
   28MOL   H84131135   5.068   5.307   5.082  0.4181 -1.0093 -0.9249
   28MOL   C84231136   5.147   5.381   5.249  0.3632 -0.8883  0.2500
   28MOL   O84331137   5.183   5.368   5.364  0.0143  0.6223 -0.5062
   28MOL   C84431138   5.145   5.517   5.180  0.2363 -0.4164  0.4885
   28MOL   C84531139   5.221   5.626   5.260  0.1880  0.5006  0.0115
   28MOL   C84631140   5.215   5.762   5.213  0.6454  0.0430 -0.3470
   28MOL   C84731141   5.285   5.862   5.306 -0.5189 -0.0735 -0.4982
   28MOL   C84831142   5.430   5.837   5.311 -0.2523  0.2676  0.2775
   28MOL   C84931143   5.508   5.954   5.381  1.0193  0.3366  0.4875
   28MOL   C85031144   5.475   5.962   5.533 -0.6503  0.2055  0.4137
   28MOL   C85131145   5.534   6.091   5.594  0.4470  0.6395 -0.3504
   28MOL   C85231146   5.506   6.109   5.747  0.0830 -0.1382  0.7449
   28MOL   C85331147   5.531   6.256   5.787 -0.2872 -0.2910  0.5980
   28MOL   C85431148   5.680   6.285   5.809 -0.1548  0.4366  0.5091
   28MOL   O85531149   5.738   6.245   5.909 -0.2305 -0.6439  0.7071
   28MOL   N85631150   5.741   6.359   5.716 -1.2303  0.2162  0.0161
   28MOL   C85731151   5.874   6.404   5.705  0.4075 -0.3239  0.3627
   28MOL   C85831152   5.966   6.283   5.665  0.5140 -0.9694 -0.6124
   28MOL   C85931153   5.939   6.232   5.525 -0.2031  0.0204 -0.4959
   28MOL   C86031154   6.034   6.112   5.502 -0.0583 -0.0347  0.2977
   28MOL   C86131155   5.985   5.978   5.570  0.0353 -0.6082 -0.6869
   28MOL   C86231156   6.100   5.874   5.600 -0.2916  0.3531 -0.2302
   28MOL   N86331157   6.040   5.750   5.669  0.0348  0.0273  0.0285
   28MOL   H86431158   5.039   5.540   5.173  0.0570 -1.5044 -0.4003
   28MOL   H86531159   5.185   5.505   5.080  3.1221  0.7123  1.4524
   28MOL   H86631160   5.326   5.600   5.256  0.3042  1.1445 -1.3258
   28MOL   H86731161   5.194   5.619   5.366 -1.9591 -2.2916 -0.6545
   28MOL   H86831162   5.260   5.769   5.113 -0.7161 -0.6632 -1.0254
   28MOL   H86931163   5.115   5.801   5.198  0.1819 -0.4576  1.4125
   28MOL   H87031164   5.244   5.845   5.406  0.9833  1.9277  0.4897
   28MOL   H87131165   5.263   5.961   5.264 -0.5662 -0.9631 -2.6302
   28MOL   H87231166   5.454   5.741   5.356 -0.7201 -0.8163 -1.7231
   28MOL   H87331167   5.477   5.833   5.213  2.6404 -0.3089  1.6187
   28MOL   H87431168   5.611   5.927   5.359  0.4577  0.5408 -2.6337
   28MOL   H87531169   5.493   6.053   5.338 -0.8126 -0.6317 -1.1614
   28MOL   H87631170   5.368   5.972   5.552 -0.0982  1.1952  3.1814
   28MOL   H87731171   5.512   5.874   5.586 -1.4683 -0.9789 -0.9194
   28MOL   H87831172   5.486   6.175   5.544  1.7538  0.7178 -1.5167
   28MOL   H87931173   5.639   6.107   5.571  0.2623  1.6546 -0.4966
   28MOL   H88031174   5.563   6.039   5.807 -0.5888 -0.1637  1.3642
   28MOL   H88131175   5.398   6.095   5.759  0.0545  0.2154  0.9338
   28MOL   H88231176   5.501   6.332   5.715 -1.0394 -1.6035 -0.4833
   28MOL   H88331177   5.484   6.283   5.882 -1.3838 -3.8520  1.1520
   28MOL   H88431178   5.682   6.395   5.643 -2.4245 -0.4175  0.6516
   28MOL   H88531179   5.909   6.438   5.802 -0.1708  2.3316 -0.3418
   28MOL   H88631180   5.885   6.490   5.640  3.3702  0.5608  1.9354
   28MOL   H88731181   5.971   6.207   5.743  1.0115  0.1564  0.4679
   28MOL   H88831182   6.067   6.324   5.667  0.0705  0.0369  2.2668
   28MOL   H88931183   5.944   6.312   5.451  0.7377  0.3721 -0.0572
   28MOL   H89031184   5.837   6.195   5.521  0.4420 -2.1527  1.8396
   28MOL   H89131185   6.133   6.143   5.536 -0.1767  1.5953 -0.7716
   28MOL   H89231186   6.043   6.091   5.395 -0.1287 -0.0376  0.2919
   28MOL   H89331187   5.936   6.006   5.664  1.4830 -1.9154  0.4961
   28MOL   H89431188   5.912   5.936   5.501  0.0137 -0.7784 -0.5633
   28MOL   H89531189   6.135   5.849   5.500 -2.0550 -3.1813 -0.0477
   28MOL   H89631190   6.184   5.917   5.654 -0.2186  1.3882 -1.1450
   28MOL   H89731191   6.025   5.741   5.768  0.3203  0.5166  0.1176
   28MOL   C89831192   5.994   5.650   5.599  0.2889 -1.2175  0.6755
   28MOL   O89931193   6.009   5.641   5.476  0.1325  0.1825  0.0057
   28MOL   C90031194   5.909   5.548   5.683 -0.4305 -0.2194 -0.6654
   28MOL   C90131195   5.778   5.518   5.610 -0.1042 -0.5164  0.1356
   28MOL   C90231196   5.697   5.412   5.681 -0.0528 -0.5856  0.4351
   28MOL   C90331197   5.586   5.364   5.586  0.0519 -0.2957 -0.3382
   28MOL   C90431198   5.452   5.311   5.651  0.3413 -0.3928  0.1099
   28MOL   C90531199   5.347   5.420   5.657 -0.0208 -0.7299 -0.2756
   28MOL   C90631200   5.367   5.535   5.766 -0.3411  0.8266  0.0079
   28MOL   C90731201   5.272   5.645   5.730  0.2955  0.5738 -0.3398
   28MOL   C90831202   5.275   5.767   5.821  0.4049 -0.4514 -0.9356
   28MOL   C90931203   5.185   5.885   5.774  0.2096  1.1357 -0.0120
   28MOL   C91031204   5.040   5.865   5.811  0.1506 -0.5161  0.5979
   28MOL   O91131205   4.979   5.765   5.777 -0.5657 -0.1959 -0.0006
   28MOL   N91231206   4.981   5.961   5.886  0.3375 -0.5500  0.2465
   28MOL   C91331207   4.857   5.929   5.959 -0.7970 -0.0753  0.2637
   28MOL   C91431208   4.878   5.818   6.068  0.4154 -0.4098  0.1075
   28MOL   C91531209   4.757   5.809   6.163  0.3920  0.6285 -0.3108
   28MOL   C91631210   4.786   5.702   6.271  0.3195  0.4166 -0.0130
   28MOL   C91731211   4.758   5.549   6.229 -0.1947  0.7230  0.1240
   28MOL   C91831212   4.762   5.449   6.343  0.5231  0.5416 -0.1519
   28MOL   N91931213   4.756   5.317   6.296  0.5356  0.1473  0.1111
   28MOL   H92031214   5.969   5.460   5.707 -0.6357 -0.3380 -0.5865
   28MOL   H92131215   5.878   5.590   5.779 -0.3477  1.4212 -1.3353
   28MOL   H92231216   5.810   5.478   5.513  1.5903 -0.4143  0.6411
   28MOL   H92331217   5.715   5.605   5.593 -0.9876 -1.0832  0.4134
   28MOL   H92431218   5.667   5.442   5.781  0.1625  1.6230 -0.1536
   28MOL   H92531219   5.759   5.323   5.693  3.0681  1.4216 -0.2751
   28MOL   H92631220   5.559   5.440   5.513  0.9293 -0.8499 -1.2527
   28MOL   H92731221   5.627   5.295   5.512  3.0172  1.6001 -0.5212
   28MOL   H92831222   5.473   5.279   5.753 -1.5142 -1.5645  0.1668
   28MOL   H92931223   5.412   5.224   5.598 -0.9384 -0.2031  0.7481
   28MOL   H93031224   5.329   5.460   5.557  0.8102  1.3833  0.3756
   28MOL   H93131225   5.251   5.373   5.675 -1.3162  1.7931 -0.4084
   28MOL   H93231226   5.473   5.560   5.762  0.0976 -1.1551 -1.9249
   28MOL   H93331227   5.345   5.493   5.864  2.0296  0.8857  0.5826
   28MOL   H93431228   5.172   5.604   5.712  0.9592 -0.5828 -1.4559
   28MOL   H93531229   5.301   5.689   5.635 -1.2142  1.2394 -0.5211
   28MOL   H93631230   5.229   5.756   5.919 -0.1174  1.2155 -0.9854
   28MOL   H93731231   5.378   5.799   5.839 -0.0613 -0.6948  2.7236
   28MOL   H93831232   5.217   5.974   5.829  3.5065  0.0368 -0.0371
   28MOL   H93931233   5.203   5.905   5.668 -0.0219  1.4960  0.0154
   28MOL   H94031234   5.025   6.042   5.928 -0.6859 -0.5998  1.4185
   28MOL   H94131235   4.782   5.872   5.903 -0.1151 -0.1016 -0.6392
   28MOL   H94231236   4.821   6.022   6.000 -0.4100 -0.5394  1.6753
   28MOL   H94331237   4.897   5.722   6.019  1.0824  0.3939 -1.2398
   28MOL   H94431238   4.962   5.835   6.136  0.9109  0.6580 -0.7594
   28MOL   H94531239   4.767   5.908   6.208  1.0341  0.9810 -1.2350
   28MOL   H94631240   4.656   5.812   6.121  1.9685 -0.7434 -4.3805
   28MOL   H94731241   4.733   5.736   6.360 -0.2126  0.4300 -0.3348
   28MOL   H94831242   4.893   5.705   6.295  0.4808 -1.3340 -0.4698
   28MOL   H94931243   4.661   5.541   6.181 -0.1762  0.6660  0.0955
   28MOL   H95031244   4.822   5.519   6.146 -0.3126  0.6800  0.0495
   28MOL   H95131245   4.677   5.462   6.409 -0.8532 -0.4291 -1.6877
   28MOL   H95231246   4.849   5.454   6.408  1.1395 -2.5265 -0.6599
   28MOL   H95331247   4.719   5.303   6.203  0.0285  0.6794  0.2257
   28MOL   C95431248   4.774   5.214   6.387 -0.5733 -0.0709  0.4709
   28MOL   O95531249   4.793   5.239   6.506 -0.2558 -0.0785  0.2002
   28MOL   C95631250   4.736   5.073   6.339  0.0191 -0.7927 -0.0061
   28MOL   C95731251   4.832   4.955   6.379 -0.2063 -0.2516 -0.4073
   28MOL   C95831252   4.958   4.937   6.293  0.6090  0.3500 -0.3595
   28MOL   C95931253   5.048   4.828   6.353 -0.2529 -0.3689 -0.3838
   28MOL   C96031254   5.058   4.703   6.278  0.5257  0.1574 -0.1090
   28MOL   C96131255   5.087   4.578   6.353 -1.0864 -0.0119  0.2287
   28MOL   C96231256   5.099   4.458   6.255  0.0176  0.3085  0.6673
   28MOL   C96331257   5.144   4.327   6.320  0.3203  0.4237  0.1176
   28MOL   C96431258   5.136   4.200   6.226 -0.6013  0.1489  0.0778
   28MOL   C96531259   5.250   4.182   6.123 -0.1654  0.9008 -0.5029
   28MOL   C96631260   5.384   4.198   6.186  0.5803  0.2117 -0.5568
   28MOL   O96731261   5.421   4.106   6.255 -0.1834 -0.4896  0.1443
   28MOL   N96831262   5.445   4.312   6.165  0.0038 -0.1511  0.0382
   28MOL   C96931263   5.554   4.373   6.233 -0.8461 -0.0009  0.1397
   28MOL   C97031264   5.500   4.498   6.313  0.3808 -0.2883  0.0630
   28MOL   C97131265   5.610   4.594   6.376 -0.1172  0.1118  0.5493
   28MOL   C97231266   5.577   4.707   6.464  0.3049  0.0320  1.0669
   28MOL   C97331267   5.476   4.797   6.404  0.2163 -0.3227 -0.4427
   28MOL   C97431268   5.446   4.923   6.496 -0.0011 -0.2388  0.0504
   28MOL   N97531269   5.345   5.018   6.445  0.2616 -0.5969  0.5062
   28MOL   H97631270   4.638   5.054   6.382 -0.0511 -1.6704 -0.5444
   28MOL   H97731271   4.725   5.066   6.231 -0.8988 -1.3605  0.1144
   28MOL   H97831272   4.785   4.857   6.387  1.8801 -1.2346 -0.0356
   28MOL   H97931273   4.862   4.966   6.483 -2.9938  0.0756  0.4212
   28MOL   H98031274   4.929   4.914   6.190 -0.2674 -2.5351  0.4765
   28MOL   H98131275   5.014   5.030   6.293  0.0045  0.7190 -1.1541
   28MOL   H98231276   5.152   4.858   6.365  0.0897 -1.2722 -1.0020
   28MOL   H98331277   5.009   4.811   6.453 -1.8906  0.5442 -0.8479
   28MOL   H98431278   4.967   4.689   6.221  0.3433  0.4185  0.1200
   28MOL   H98531279   5.135   4.726   6.204 -0.3823  0.8033 -0.8538
   28MOL   H98631280   5.181   4.582   6.406 -1.8024 -0.3583  1.5370
   28MOL   H98731281   5.010   4.559   6.428 -1.6040  0.3176 -0.2067
   28MOL   H98831282   5.010   4.442   6.194 -1.8593  0.2559  3.3386
   28MOL   H98931283   5.181   4.476   6.186 -0.9607  1.6266 -0.1573
   28MOL   H99031284   5.243   4.335   6.364  0.2173  0.2878  0.3746
   28MOL   H99131285   5.075   4.306   6.401 -0.2129 -0.2422 -0.4965
   28MOL   H99231286   5.039   4.201   6.178 -0.8235  0.4177  0.5259
   28MOL   H99331287   5.129   4.114   6.292  1.3882  0.8905  1.3205
   28MOL   H99431288   5.250   4.084   6.075  0.8084  0.6787 -0.0684
   28MOL   H99531289   5.235   4.247   6.036  0.1027  2.6927  0.7517
   28MOL   H99631290   5.405   4.370   6.093  2.9989  1.1990 -0.6006
   28MOL   H99731291   5.626   4.405   6.158 -1.7532  1.6874 -0.0302
   28MOL   H99831292   5.602   4.299   6.298 -0.6088  0.2445  0.2422
   28MOL   H99931293   5.435   4.459   6.391 -1.2542  0.9231 -0.6466
   28MOL     H131294   5.431   4.558   6.253 -1.0107 -1.4889  0.4126
   28MOL     H231295   5.666   4.631   6.290  1.4621 -3.5785 -0.1184
   28MOL     H331296   5.681   4.535   6.433 -0.3544  0.0680  0.7977
   28MOL     H431297   5.543   4.670   6.560 -0.0312 -3.4523 -0.3039
   28MOL     H531298   5.670   4.759   6.486  0.1894  0.2619  1.0153
   28MOL     H631299   5.384   4.739   6.396 -0.2727  0.0286  2.3645
   28MOL     H731300   5.498   4.823   6.300 -0.8295  0.7284 -0.4102
   28MOL     H831301   5.416   4.892   6.596  0.7915  1.7851  0.9234
   28MOL     H931302   5.544   4.969   6.502  0.3605 -0.7839 -1.4866
   28MOL    H1031303   5.282   4.974   6.379 -1.4199  0.2389  1.5067
   28MOL    C1131304   5.334   5.147   6.480 -0.2010 -0.6716  0.0730
   28MOL    O1231305   5.419   5.202   6.551  0.2844 -1.0613 -0.6707
   28MOL    C1331306   5.198   5.210   6.442 -0.7118  0.5622 -0.2556
   28MOL    C1431307   5.190   5.362   6.470  0.1600  0.1188 -0.6650
   28MOL    C1531308   5.277   5.459   6.381 -0.6416  0.5007  0.3147
   28MOL    C1631309   5.258   5.604   6.412 -0.0671 -0.5848  0.1227
   28MOL    C1731310   5.282   5.693   6.292 -0.1692 -0.1104  0.5534
   28MOL    C1831311   5.317   5.841   6.313  0.1782  0.0672 -0.1335
   28MOL    C1931312   5.190   5.915   6.368 -0.0416  0.5451  0.4602
   28MOL    C2031313   5.201   6.069   6.401 -0.4120 -0.1172 -0.1536
   28MOL    C2131314   5.071   6.128   6.466 -0.6612 -0.1410 -0.4165
   28MOL    C2231315   5.017   6.045   6.580  0.8352 -0.9916  0.2537
   28MOL    C2331316   4.948   6.131   6.692 -0.1997  0.3392  0.7617
   28MOL    O2431317   5.008   6.218   6.752  0.0486  0.3841 -0.7131
   28MOL    N2531318   4.831   6.085   6.723  0.0820  0.7261 -0.1213
   28MOL    C2631319   4.735   6.140   6.821 -0.2759 -0.2636  0.4774
   28MOL    C2731320   4.629   6.038   6.864 -0.3855 -0.4201  0.0379
   28MOL    C2831321   4.541   6.090   6.976  0.1808  0.1884 -0.3189
   28MOL    C2931322   4.418   5.987   7.006  0.3668 -0.1680 -0.1136
   28MOL    C3031323   4.380   6.008   7.154 -0.3922 -0.0513  0.1945
   28MOL    C3131324   4.466   5.925   7.253  0.2540 -0.0543  0.0834
   28MOL    N3231325   4.431   5.966   7.390 -0.0286  0.1647 -0.2501
   28MOL    H3331326   5.116   5.167   6.500  0.2502  1.1406  1.5800
   28MOL    H3431327   5.185   5.181   6.338  0.4295  1.2618 -0.6042
   28MOL    H3531328   5.220   5.384   6.573 -0.7362 -0.3252 -0.3010
   28MOL    H3631329   5.085   5.389   6.474 -0.5134 -2.3967 -0.6964
   28MOL    H3731330   5.231   5.441   6.284  0.4202  1.4039 -0.3737
   28MOL    H3831331   5.383   5.438   6.372 -1.0192 -1.5913  0.6178
   28MOL    H3931332   5.163   5.620   6.464  0.1107 -1.2266  0.6560
   28MOL    H4031333   5.331   5.625   6.490  1.8192 -0.4082 -1.6621
   28MOL    H4131334   5.359   5.653   6.227 -0.2162 -0.4379  0.6994
   28MOL    H4231335   5.193   5.676   6.232 -0.5273  1.6861  0.5198
   28MOL    H4331336   5.399   5.855   6.384 -0.2271  0.0757  0.3368
   28MOL    H4431337   5.346   5.872   6.213  1.2732  0.4039  0.2737
   28MOL    H4531338   5.108   5.888   6.301 -1.3807 -0.8697  2.6221
   28MOL    H4631339   5.157   5.868   6.461 -0.6265  1.9674  0.9902
   28MOL    H4731340   5.288   6.081   6.466 -2.0933  1.3375  1.8422
   28MOL    H4831341   5.229   6.125   6.311  1.7521 -0.6232  0.1626
   28MOL    H4931342   4.995   6.136   6.388 -1.2657 -3.1247 -0.1885
   28MOL    H5031343   5.093   6.229   6.501 -1.3406 -0.9546  2.4336
   28MOL    H5131344   4.954   5.961   6.552 -2.0532  0.1167  3.1461
   28MOL    H5231345   5.107   5.999   6.622 -0.4491 -0.3015  3.9659
   28MOL    H5331346   4.795   6.001   6.679 -0.5861  0.0138  1.6970
   28MOL    H5431347   4.692   6.231   6.780 -0.5411 -1.0348 -1.0030
   28MOL    H5531348   4.782   6.173   6.913 -0.1382  0.0390  0.2982
   28MOL    H5631349   4.675   5.945   6.899 -0.0029 -0.0498  0.5164
   28MOL    H5731350   4.564   6.016   6.779  0.0512  1.1701 -0.7252
   28MOL    H5831351   4.491   6.185   6.954 -0.5991  0.3892  2.1470
   28MOL    H5931352   4.601   6.106   7.066 -0.9259 -1.4368  0.7312
   28MOL    H6031353   4.449   5.884   6.993  0.3649 -0.1073 -0.6020
   28MOL    H6131354   4.338   6.015   6.938  0.3890 -0.3198 -0.2017
   28MOL    H6231355   4.279   5.976   7.181 -0.4911 -0.7086 -0.9375
   28MOL    H6331356   4.379   6.114   7.182 -1.8337  1.0118 -3.4840
   28MOL    H6431357   4.572   5.948   7.242  0.0526  0.2660 -1.2498
   28MOL    H6531358   4.443   5.819   7.244  0.0700 -0.0094  0.0362
   28MOL    H6631359   4.389   6.055   7.412 -0.6234 -0.0836 -0.3519
   28MOL    C6731360   4.461   5.887   7.497  0.4055  0.1866 -0.1439
   28MOL    O6831361   4.517   5.779   7.493 -0.5216 -0.4531 -0.0952
   28MOL    C6931362   4.412   5.933   7.634  0.3530 -0.5906 -0.4359
   28MOL    C7031363   4.480   5.860   0.066  0.1737  0.4665 -0.2819
   28MOL    C7131364   4.632   5.888   0.070  0.1058  0.6135  0.5405
   28MOL    C7231365   4.677   5.865   0.213 -0.0481 -0.1511 -0.5826
   28MOL    C7331366   4.703   5.716   0.256  0.4660  0.0514  0.1002
   28MOL    C7431367   4.664   5.691   0.401 -0.4768 -0.0704 -0.3749
   28MOL    C7531368   4.522   5.636   0.409  0.4280  0.0237 -0.3099
   28MOL    C7631369   4.429   5.734   0.461 -0.1834 -0.0722  0.2375
   28MOL    C7731370   4.277   5.695   0.474 -0.5335  0.3254 -0.0661
   28MOL    C7831371   4.185   5.802   0.523 -0.6607 -0.5624  0.2988
   28MOL    C7931372   4.201   5.824   0.671  0.5099 -0.5212 -0.2193
   28MOL    O8031373   4.295   5.885   0.722 -0.8137 -0.8158  0.7547
   28MOL    N8131374   4.095   5.770   0.740  0.2927 -0.3174  0.1354
   28MOL    C8231375   4.068   5.803   0.885  0.3496  0.8457 -0.5474
   28MOL    C8331376   4.030   5.677   0.971 -0.2800 -0.7281 -0.4037
   28MOL    C8431377   3.984   5.717   1.108 -0.7540  0.4852 -0.7358
   28MOL    C8531378   4.090   5.776   1.203 -0.0780  0.7553  0.8171
   28MOL    C8631379   4.041   5.775   1.349 -0.5523 -0.2663  0.0187
   28MOL    C8731380   4.152   5.822   1.444 -0.4127 -0.3650 -0.3279
   28MOL    N8831381   4.127   5.780   1.579 -1.0045  0.1912  0.0745
   28MOL    H8931382   4.304   5.921   7.641  0.2239  1.5044  2.1087
   28MOL    H9031383   4.434   6.040   7.635 -0.6670 -0.3451 -2.0593
   28MOL    H9131384   4.432   5.897   0.157 -0.8201 -1.5078  0.0411
   28MOL    H9231385   4.459   5.754   0.078 -1.4773  0.7650 -0.3919
   28MOL    H9331386   4.690   5.827   0.001  0.8365  2.9255 -0.9309
   28MOL    H9431387   4.634   5.995   0.050 -0.7465  0.7554  1.2077
   28MOL    H9531388   4.773   5.913   0.231 -0.7077  0.8666  0.4000
   28MOL    H9631389   4.619   5.912   0.293  1.9292 -0.3340  1.0083
   28MOL    H9731390   4.638   5.661   0.188  0.0443  2.4563 -1.5160
   28MOL    H9831391   4.805   5.685   0.231  0.2079 -2.6201  2.1227
   28MOL    H9931392   4.726   5.609   0.436  0.1141  0.6832  0.3820
   28MOL   H10031393   4.685   5.773   0.470  2.1127  2.1567 -3.6147
   28MOL   H10131394   4.512   5.546   0.470 -2.9383 -0.5602 -1.5676
   28MOL   H10231395   4.480   5.615   0.310  1.0388 -1.4739 -0.2668
   28MOL   H10331396   4.456   5.771   0.560  1.7739 -1.2236  0.1588
   28MOL   H10431397   4.424   5.818   0.392 -0.3956  0.1321  0.4991
   28MOL   H10531398   4.272   5.607   0.538  2.8025  1.2015  1.4743
   28MOL   H10631399   4.247   5.658   0.376  1.6284  0.9274 -0.9794
   28MOL   H10731400   4.217   5.896   0.477 -0.5573 -0.2897  0.9345
   28MOL   H10831401   4.081   5.785   0.493 -1.4752  0.5009  2.4254
   28MOL   H10931402   4.025   5.720   0.688  0.3540 -0.8734  0.5824
   28MOL   H11031403   3.988   5.876   0.879 -0.2508  0.1867 -0.6356
   28MOL   H11131404   4.155   5.853   0.927 -0.4977  1.5649  0.3782
   28MOL   H11231405   4.127   5.629   0.969  0.0339 -0.0517 -1.3193
   28MOL   H11331406   3.965   5.614   0.910 -1.8343  1.7444 -1.3812
   28MOL   H11431407   3.953   5.620   1.148  0.5182  0.2525 -0.2906
   28MOL   H11531408   3.900   5.786   1.109  0.8151  2.4368 -0.0712
   28MOL   H11631409   4.185   5.722   1.207  0.0687  0.8957 -0.4159
   28MOL   H11731410   4.111   5.881   1.183  1.2872  0.4143  0.3938
   28MOL   H11831411   3.942   5.821   1.347  0.7932  2.7554  0.4484
   28MOL   H11931412   4.020   5.673   1.381 -2.3924 -0.6801 -2.3451
   28MOL   H12031413   4.250   5.791   1.408  0.0286 -0.5880  1.0236
   28MOL   H12131414   4.160   5.931   1.442  0.2732 -0.4242 -0.8690
   28MOL   H12231415   4.026   5.788   1.583 -1.2458 -0.9171 -2.4601
   28MOL   H12331416   4.161   5.848   1.645  1.5879  0.5011 -1.5158
   29MOL     C131417   0.100   4.926   3.633  0.1060  0.4733  0.9129
   29MOL     O231418   0.074   5.023   3.707  0.2127  0.1392 -0.1271
   29MOL     C331419   0.243   4.884   3.606 -0.0144  0.2304  0.6109
   29MOL     C431420   0.358   4.963   3.665 -0.1956 -0.4681  0.2308
   29MOL     C531421   0.406   5.087   3.592 -0.1659  0.2323 -0.5007
   29MOL     C631422   0.503   5.172   3.675 -0.1293  0.4057 -0.0923
   29MOL     C731423   0.579   5.272   3.580 -0.0775  0.1443  0.1639
   29MOL     C831424   0.692   5.342   3.659 -0.5354  0.1596 -0.5653
   29MOL     C931425   0.785   5.431   3.571  0.5106  0.5432 -0.2846
   29MOL    C1031426   0.894   5.509   3.646 -0.7980 -0.1997  0.4820
   29MOL    C1131427   1.007   5.580   3.560 -0.4262 -0.1778  0.3544
   29MOL    C1231428   1.091   5.671   3.652  0.2722 -0.2456  0.4149
   29MOL    C1331429   1.187   5.765   3.590 -0.2953 -0.5769 -0.3608
   29MOL    O1431430   1.141   5.836   3.497 -0.2810  0.4574  0.3232
   29MOL    N1531431   1.314   5.777   3.629  0.0836  0.0381 -0.4332
   29MOL    C1631432   1.400   5.889   3.593  0.9603  0.1718  0.2711
   29MOL    C1731433   1.550   5.857   3.598  0.2586 -0.0272 -0.3798
   29MOL    C1831434   1.638   5.981   3.609 -0.4515  0.2766 -0.2464
   29MOL    C1931435   1.793   5.951   3.605 -0.3418  0.3801  0.0295
   29MOL    C2031436   1.829   5.901   3.462 -1.1033  0.1877  0.1675
   29MOL    C2131437   1.979   5.873   3.426 -0.1541 -0.4483 -0.3970
   29MOL    N2231438   2.049   5.773   3.511 -0.5744  0.0346 -0.1330
   29MOL    H2331439   0.250   4.859   3.500 -2.5230  0.5166  0.3399
   29MOL    H2431440   0.239   4.782   3.645  0.7635 -0.3307 -0.7210
   29MOL    H2531441   0.449   4.905   3.682  1.5456  1.6823 -1.4262
   29MOL    H2631442   0.330   4.985   3.768 -1.5732  0.5245 -0.3311
   29MOL    H2731443   0.318   5.151   3.578 -0.0601  0.6363  0.6517
   29MOL    H2831444   0.447   5.063   3.494 -1.0037 -1.8102 -0.3657
   29MOL    H2931445   0.449   5.222   3.755  0.4242  0.2465  0.3771
   29MOL    H3031446   0.581   5.105   3.711 -1.6667 -1.1021  0.4821
   29MOL    H3131447   0.502   5.343   3.550 -1.8257 -1.0076  1.7824
   29MOL    H3231448   0.623   5.218   3.496 -0.3648 -0.2186  0.2443
   29MOL    H3331449   0.645   5.400   3.737  0.6223 -1.0067  1.0412
   29MOL    H3431450   0.759   5.278   3.716 -0.9074  1.9540  1.9332
   29MOL    H3531451   0.833   5.363   3.502 -1.5853  1.1874 -2.4367
   29MOL    H3631452   0.720   5.499   3.516  1.1916  1.9711  0.6212
   29MOL    H3731453   0.837   5.580   3.705 -1.5824 -1.3415  1.1304
   29MOL    H3831454   0.940   5.439   3.716 -0.6230 -0.6688 -0.1013
   29MOL    H3931455   0.965   5.646   3.484 -1.4838 -1.5766 -0.2904
   29MOL    H4031456   1.066   5.499   3.516  1.2605 -0.7460  3.5568
   29MOL    H4131457   1.024   5.740   3.703 -0.6712  1.3328 -2.7814
   29MOL    H4231458   1.131   5.611   3.734  0.3906 -0.8059 -0.0445
   29MOL    H4331459   1.354   5.720   3.702  2.2296  0.3302 -1.3533
   29MOL    H4431460   1.365   5.963   3.664 -3.1686 -0.7037 -0.6846
   29MOL    H4531461   1.383   5.935   3.495 -0.3129 -0.6635  0.0844
   29MOL    H4631462   1.556   5.801   3.504  0.9560 -0.7126  0.0715
   29MOL    H4731463   1.572   5.785   3.677  2.3020 -1.4297 -2.1497
   29MOL    H4831464   1.624   6.063   3.539  1.5484  0.6750 -0.2267
   29MOL    H4931465   1.616   6.025   3.707 -0.4163 -1.4846  0.5617
   29MOL    H5031466   1.801   5.874   3.682 -1.0071  0.9768  0.7039
   29MOL    H5131467   1.851   6.038   3.636  0.3572 -0.0044 -0.2044
   29MOL    H5231468   1.776   5.811   3.431 -1.8591  0.2645  1.1997
   29MOL    H5331469   1.790   5.972   3.388 -3.9185  0.2829  1.6600
   29MOL    H5431470   1.995   5.855   3.320  2.7915 -1.1812  0.1182
   29MOL    H5531471   2.042   5.960   3.448  0.1312 -1.1565  1.6696
   29MOL    H5631472   1.987   5.706   3.555  0.5714 -0.8370  0.1730
   29MOL    H5731473   0.032   4.855   3.585  0.0455  0.3327  1.2013
   29MOL    C5831474   2.177   5.766   3.552 -0.4708 -0.8671  0.2898
   29MOL    O5931475   2.211   5.690   3.643  0.4053  0.2585 -0.1155
   29MOL    C6031476   2.279   5.853   3.484 -0.6345 -0.6478 -0.3183
   29MOL    C6131477   2.369   5.938   3.570 -0.0592 -0.5761 -0.2694
   29MOL    C6231478   2.312   6.018   3.688  0.2585 -0.6501 -0.5378
   29MOL    C6331479   2.210   6.128   3.642  0.3208  0.6636 -0.3166
   29MOL    C6431480   2.271   6.238   3.548 -0.3783 -0.4483  0.1102
   29MOL    C6531481   2.163   6.332   3.487  0.0047 -0.1873  0.0292
   29MOL    C6631482   2.099   6.429   3.591 -0.6609 -0.6996 -0.2522
   29MOL    C6731483   2.022   6.546   3.540 -0.3678 -0.0012 -0.6009
   29MOL    C6831484   2.119   6.652   3.492  0.4165 -0.3855 -0.0851
   29MOL    C6931485   2.057   6.753   3.403 -0.1232  0.4449  0.5467
   29MOL    C7031486   2.105   6.893   3.448 -0.1622 -0.1592 -0.5079
   29MOL    O7131487   2.093   6.923   3.569 -0.3590  0.2591  0.5453
   29MOL    N7231488   2.161   6.980   3.362  0.5067 -0.2941 -0.8402
   29MOL    C7331489   2.204   7.110   3.402  0.3264  0.0808 -0.1774
   29MOL    C7431490   2.224   7.205   3.285  0.7043 -0.1581  0.1165
   29MOL    C7531491   2.292   7.331   3.333 -0.8626  0.2117 -0.6719
   29MOL    C7631492   2.277   7.453   3.245 -0.1456 -0.2049 -0.8285
   29MOL    C7731493   2.140   7.511   3.235  0.4433 -0.2391 -0.2828
   29MOL    C7831494   2.145   7.653   3.162 -0.2526 -0.0376 -0.4747
   29MOL    N7931495   2.198   7.651   3.032  0.3300 -0.2965 -0.0201
   29MOL    H8031496   2.231   5.922   3.414  2.0928  2.0756  0.4072
   29MOL    H8131497   2.344   5.792   3.422  0.3149  0.3931 -0.3477
   29MOL    H8231498   2.432   5.864   3.618  0.6464  1.0250  1.3487
   29MOL    H8331499   2.439   6.000   3.514 -0.2541 -0.6423 -0.5878
   29MOL    H8431500   2.382   6.074   3.750 -0.9990 -1.0301  1.2690
   29MOL    H8531501   2.256   5.952   3.753  1.3616 -0.2331  0.8487
   29MOL    H8631502   2.166   6.178   3.728  0.2008  1.2635 -0.7290
   29MOL    H8731503   2.139   6.074   3.579 -0.2850 -0.3594  1.2137
   29MOL    H8831504   2.336   6.284   3.622  0.7005  0.7436 -1.5501
   29MOL    H8931505   2.334   6.191   3.472 -0.5422 -1.5080  0.6093
   29MOL    H9031506   2.087   6.275   3.434  0.0734 -0.0321 -0.2390
   29MOL    H9131507   2.197   6.386   3.398 -1.8625 -2.8167 -2.3555
   29MOL    H9231508   2.172   6.467   3.663 -1.2332  0.5193 -0.3132
   29MOL    H9331509   2.048   6.371   3.668  2.7277 -1.0929  1.8125
   29MOL    H9431510   1.948   6.524   3.463 -0.0491 -2.5115 -0.2311
   29MOL    H9531511   1.965   6.587   3.623 -0.1054 -0.2347 -0.3028
   29MOL    H9631512   2.191   6.601   3.428  0.0146 -2.4386  1.0490
   29MOL    H9731513   2.169   6.689   3.582 -0.8832  0.8094  0.1677
   29MOL    H9831514   2.081   6.743   3.298  1.7506  1.2629  0.8785
   29MOL    H9931515   1.949   6.760   3.415 -0.3332 -0.6948 -0.6588
   29MOL   H10031516   2.155   6.964   3.262  0.0517 -0.3734 -0.7992
   29MOL   H10131517   2.293   7.093   3.463 -1.0795  1.9106  2.4497
   29MOL   H10231518   2.142   7.150   3.482 -1.2779  1.4888 -2.0596
   29MOL   H10331519   2.266   7.165   3.192 -3.4600 -1.1921 -1.4499
   29MOL   H10431520   2.123   7.226   3.251  0.5758 -0.1666  0.4975
   29MOL   H10531521   2.398   7.322   3.353 -0.3218  1.6506 -2.7610
   29MOL   H10631522   2.262   7.359   3.434 -0.6402  2.0686 -1.0962
   29MOL   H10731523   2.338   7.533   3.287 -1.8424  0.4239  0.4718
   29MOL   H10831524   2.320   7.422   3.149  1.7259 -2.9371  0.8269
   29MOL   H10931525   2.081   7.517   3.327  1.4043  1.8045  0.2382
   29MOL   H11031526   2.083   7.442   3.174  2.6899 -2.0723 -0.3958
   29MOL   H11131527   2.193   0.045   3.214  0.4439 -0.8757  0.2639
   29MOL   H11231528   2.039   7.676   3.157 -0.3202 -0.5660 -1.5401
   29MOL   H11331529   2.297   7.651   3.013  0.0778 -0.3733 -1.4148
   29MOL   C11431530   2.127   7.626   2.921 -0.1008 -0.1367 -0.3801
   29MOL   O11531531   2.005   7.621   2.912 -0.3594  0.2899 -0.3106
   29MOL   C11631532   2.205   7.588   2.798  0.5704 -0.1420  0.0466
   29MOL   C11731533   2.125   7.606   2.669  0.1216 -0.4444  0.1328
   29MOL   C11831534   2.210   7.574   2.545 -0.7454 -0.2962 -0.6660
   29MOL   C11931535   2.344   7.647   2.541  1.3761 -0.3270 -0.2994
   29MOL   C12031536   2.420   7.643   2.406  0.0066  0.5648  0.3249
   29MOL   C12131537   2.572   7.665   2.428  0.0598 -0.3198 -0.7394
   29MOL   C12231538   2.634   0.072   2.323  0.4109 -0.2871  0.5961
   29MOL   C12331539   2.786   0.075   2.340  0.6227  0.1844  0.4957
   29MOL   C12431540   2.848   0.186   2.257 -0.7446 -0.3305  0.7128
   29MOL   C12531541   2.997   0.177   2.274  0.2443  0.2818 -0.0625
   29MOL   C12631542   3.077   0.284   2.199 -0.3742 -0.0513 -0.0713
   29MOL   O12731543   3.019   0.354   2.122 -0.1938 -0.6469 -0.2996
   29MOL   N12831544   3.204   0.278   2.217  0.5000 -0.1244  0.4280
   29MOL   C12931545   3.289   0.389   2.174  0.0577 -0.1326  0.4335
   29MOL   C13031546   3.436   0.361   2.211 -0.0200 -0.5219 -0.0943
   29MOL   C13131547   3.501   0.231   2.145  0.0540 -0.0023 -0.0083
   29MOL   C13231548   3.655   0.226   2.163  0.0372 -0.3134 -0.1837
   29MOL   C13331549   3.688   0.188   2.305 -0.0836 -0.6834  0.4204
   29MOL   C13431550   3.836   0.152   2.318 -0.0974  0.1492 -0.4936
   29MOL   N13531551   3.846   0.100   2.456  0.5609  0.2789  0.0073
   29MOL   H13631552   2.289   7.657   2.804 -1.0584  1.6438  3.6761
   29MOL   H13731553   2.229   7.483   2.816 -1.8321 -0.8857 -0.8915
   29MOL   H13831554   2.085   0.015   2.657 -0.1158 -0.7444 -1.7409
   29MOL   H13931555   2.040   7.538   2.673 -0.1652 -0.0529  1.0294
   29MOL   H14031556   2.227   7.467   2.531  0.6145 -0.1591 -0.1261
   29MOL   H14131557   2.150   7.595   2.456 -0.0915  0.3009 -0.9702
   29MOL   H14231558   2.334   0.061   2.567 -1.2518 -0.3996 -0.9066
   29MOL   H14331559   2.420   7.621   2.615  0.9829 -1.6675 -0.3599
   29MOL   H14431560   2.399   7.552   2.350 -1.0316  0.7015  0.4930
   29MOL   H14531561   2.381   0.021   2.333 -2.1411 -1.9213 -0.9788
   29MOL   H14631562   2.618   7.566   2.423  1.0470  0.1542 -1.3477
   29MOL   H14731563   2.592   0.020   2.524  0.7652 -1.2148 -0.4448
   29MOL   H14831564   2.603   0.054   2.221 -0.4947 -0.8232  0.9601
   29MOL   H14931565   2.594   0.172   2.337  0.4824 -0.2880  0.8111
   29MOL   H15031566   2.834   7.675   2.306 -1.5065 -1.1382  0.9481
   29MOL   H15131567   2.805   0.084   2.447  0.5550  0.6324  0.4723
   29MOL   H15231568   2.808   0.279   2.298  0.7510 -0.7869  3.3319
   29MOL   H15331569   2.809   0.181   2.155 -2.2742  1.9602  1.1487
   29MOL   H15431570   3.033   0.077   2.251 -0.6525  0.5030 -2.6312
   29MOL   H15531571   3.026   0.179   2.379  0.8476 -2.7341 -0.1400
   29MOL   H15631572   3.243   0.202   2.271  1.5974 -1.1376 -1.7356
   29MOL   H15731573   3.249   0.490   2.183  1.4028  0.4281  0.3315
   29MOL   H15831574   3.294   0.378   2.066 -0.6255 -0.3458  0.4241
   29MOL   H15931575   3.462   0.374   2.316  2.8964 -0.3770 -0.7720
   29MOL   H16031576   3.494   0.444   2.170 -0.0107  1.0123  2.9396
   29MOL   H16131577   3.457   0.136   2.172  0.1433  0.0062  0.1640
   29MOL   H16231578   3.486   0.234   2.037 -0.9365 -0.6166  0.1095
   29MOL   H16331579   3.689   0.160   2.083 -2.2074  0.3767 -1.7788
   29MOL   H16431580   3.689   0.327   2.138 -1.8425  0.5877  0.7444
   29MOL   H16531581   3.627   0.103   2.337  0.2773 -1.1513 -0.1404
   29MOL   H16631582   3.656   0.268   2.372  0.6682 -1.4956  1.7740
   29MOL   H16731583   3.863   0.077   2.244 -1.4302 -0.0507 -0.7957
   29MOL   H16831584   3.882   0.245   2.286  1.9786  0.2581  2.6225
   29MOL   H16931585   3.776   0.133   2.520  1.1809 -0.0124  0.8574
   29MOL   C17031586   3.944   0.019   2.492  0.1694 -0.0327 -0.9164
   29MOL   O17131587   4.026   7.683   2.409  1.0613 -0.2748  0.3995
   29MOL   C17231588   3.953   7.662   2.631  0.4420 -0.1825 -0.5371
   29MOL   C17331589   3.978   7.512   2.637  0.2531 -0.0749  0.1542
   29MOL   C17431590   3.963   7.460   2.790 -0.2906  0.8176  1.3635
   29MOL   C17531591   3.982   7.309   2.811 -0.3878  0.2117  0.4507
   29MOL   C17631592   3.950   7.250   2.953  0.2010  0.6588  0.1496
   29MOL   C17731593   3.945   7.093   2.943 -0.1529  0.1883  0.4433
   29MOL   C17831594   3.917   7.033   3.077 -0.3120 -0.4083 -0.0909
   29MOL   C17931595   3.899   6.886   3.068  0.3388  0.0938 -0.4711
   29MOL   C18031596   4.025   6.800   3.035 -0.0179 -0.8103  0.0382
   29MOL   C18131597   4.014   6.647   3.045  0.0471 -0.0245 -0.5773
   29MOL   C18231598   3.934   6.581   2.934 -0.6288  0.3902  0.3732
   29MOL   O18331599   3.951   6.595   2.811  0.3185  1.2676 -0.0437
   29MOL   N18431600   3.845   6.502   2.991 -0.2972 -0.3275  0.0497
   29MOL   C18531601   3.775   6.397   2.925 -0.2360  0.1159 -0.3350
   29MOL   C18631602   3.865   6.275   2.904 -1.1425  0.0325  0.1444
   29MOL   C18731603   3.791   6.150   2.840 -0.2058 -0.1753 -0.1646
   29MOL   C18831604   3.881   6.032   2.835 -0.3455  0.2424 -0.2866
   29MOL   C18931605   3.804   5.910   2.788  0.3448  0.7727 -0.4008
   29MOL   C19031606   3.900   5.790   2.797  0.6441 -0.6911 -0.2492
   29MOL   N19131607   3.943   5.755   2.930  0.2673  0.3410  0.2174
   29MOL   H19231608   4.036   0.023   2.678 -0.1578 -0.8158  1.2952
   29MOL   H19331609   3.873   0.015   2.691  0.2593 -1.7014  0.3758
   29MOL   H19431610   4.081   7.489   2.611  0.3874 -0.9526  1.4028
   29MOL   H19531611   3.914   7.463   2.563  0.5961 -0.1211 -0.1131
   29MOL   H19631612   3.863   7.497   2.813 -0.4189  1.5389 -0.2874
   29MOL   H19731613   4.031   7.516   2.853 -1.3160  0.4417  2.8289
   29MOL   H19831614   3.928   7.256   2.732 -0.2988  2.0222 -0.8757
   29MOL   H19931615   4.084   7.286   2.782  0.5055  2.4602  1.6862
   29MOL   H20031616   4.031   7.289   3.014  0.1723 -2.4066  2.2815
   29MOL   H20131617   3.849   7.278   2.982  0.3422  0.7457  0.5477
   29MOL   H20231618   4.037   7.057   2.898 -0.2553  0.9179 -0.3638
   29MOL   H20331619   3.866   7.057   2.877  0.3412  0.9808 -0.5895
   29MOL   H20431620   4.002   7.043   3.144 -0.4497 -1.4956  0.2582
   29MOL   H20531621   3.827   7.074   3.123  1.1658  0.4360  2.1228
   29MOL   H20631622   3.869   6.841   3.163 -2.2783  0.0128 -1.2972
   29MOL   H20731623   3.809   6.867   3.010 -1.3880 -0.2130  2.2028
   29MOL   H20831624   4.110   6.836   3.093 -0.0382  1.3868 -1.2441
   29MOL   H20931625   4.066   6.832   2.939  0.9214  0.2718  0.7818
   29MOL   H21031626   4.107   6.592   3.034 -0.2286 -0.4239 -0.9207
   29MOL   H21131627   3.978   6.612   3.142 -1.1499  1.7561 -0.3529
   29MOL   H21231628   3.827   6.516   3.089 -2.0970  0.2764 -0.3471
   29MOL   H21331629   3.731   6.438   2.835 -0.1812  1.1518  0.0993
   29MOL   H21431630   3.693   6.370   2.992 -1.7292 -0.2167 -2.2551
   29MOL   H21531631   3.951   6.310   2.847 -1.2728 -0.1676 -0.1761
   29MOL   H21631632   3.916   6.248   2.997 -1.3697 -1.3187 -0.1055
   29MOL   H21731633   3.699   6.139   2.898 -0.4200  2.0158 -0.0803
   29MOL   H21831634   3.754   6.169   2.740 -1.9447 -3.0614 -0.1435
   29MOL   H21931635   3.936   6.028   2.929  0.4207  0.3115 -0.7343
   29MOL   H22031636   3.956   6.047   2.758  0.1060 -0.3857  0.0291
   29MOL   H22131637   3.764   5.927   2.689  1.8961 -1.1701 -1.3969
   29MOL   H22231638   3.720   5.897   2.858  1.1634  0.2258  0.4966
   29MOL   H22331639   3.987   5.819   2.738 -0.3623 -1.4903 -2.1666
   29MOL   H22431640   3.859   5.705   2.743 -0.7622 -0.0347 -0.2651
   29MOL   H22531641   3.877   5.706   2.989  2.2039  0.1162  2.2603
   29MOL   C22631642   4.060   5.777   2.983 -0.1149 -0.2415  0.2222
   29MOL   O22731643   4.154   5.823   2.921 -0.4453 -0.4603  0.0022
   29MOL   C22831644   4.078   5.721   3.123  0.4180 -0.0488  0.4309
   29MOL   C22931645   4.106   5.833   3.231  0.9718 -0.4562 -0.5983
   29MOL   C23031646   4.197   5.803   3.345  0.7342  0.3009 -0.3064
   29MOL   C23131647   4.348   5.830   3.335 -0.1592 -0.5852  0.4126
   29MOL   C23231648   4.385   5.981   3.321 -0.4810 -0.6852  0.6554
   29MOL   C23331649   4.538   6.000   3.341 -0.4650 -0.5774 -0.2533
   29MOL   C23431650   4.576   6.153   3.346 -0.6067  0.4021 -0.8624
   29MOL   C23531651   4.547   6.212   3.478  0.5280  0.2605 -0.3739
   29MOL   C23631652   4.628   6.343   3.531 -0.4129  0.4717 -0.6562
   29MOL   C23731653   4.564   6.411   3.654 -0.0191  0.3597  0.8356
   29MOL   C23831654   4.630   6.546   3.688  0.0157 -0.3480  0.6643
   29MOL   O23931655   4.649   6.627   3.593  0.0983 -0.5239 -0.5015
   29MOL   N24031656   4.639   6.583   3.816  0.3533  0.4366 -0.6768
   29MOL   C24131657   4.676   6.711   3.868 -0.1049 -0.1093 -0.3085
   29MOL   C24231658   4.629   6.742   4.007  0.2520 -0.3919 -0.4037
   29MOL   C24331659   4.679   6.881   4.059  0.8928  0.3924 -0.2419
   29MOL   C24431660   4.635   6.924   4.201  0.4846  0.2560  0.6799
   29MOL   C24531661   4.478   6.939   4.224 -0.0046  0.1945  0.9221
   29MOL   C24631662   4.441   7.024   4.347 -0.5924 -0.1614 -0.4758
   29MOL   N24731663   4.496   6.977   4.470  0.1091 -0.1933  0.9816
   29MOL   H24831664   4.153   5.642   3.114  0.4944  0.0381  0.2948
   29MOL   H24931665   3.986   5.674   3.159  0.8587 -0.9757  0.3701
   29MOL   H25031666   4.157   5.910   3.174 -1.6239  0.6068 -1.5364
   29MOL   H25131667   4.014   5.877   3.269  0.3128 -0.8287 -1.7307
   29MOL   H25231668   4.164   5.863   3.430 -0.1235 -0.0590 -0.3722
   29MOL   H25331669   4.173   5.701   3.376  1.1514  0.3754  0.2722
   29MOL   H25431670   4.391   5.767   3.257  0.3833  1.8479 -1.2901
   29MOL   H25531671   4.386   5.802   3.434  0.2545 -1.9884 -0.1311
   29MOL   H25631672   4.325   6.049   3.382 -1.2039 -2.0790  1.4972
   29MOL   H25731673   4.360   6.013   3.219  0.1493 -0.7267  0.4876
   29MOL   H25831674   4.564   5.950   3.434 -0.0475  0.8501  0.4169
   29MOL   H25931675   4.595   5.958   3.258  0.7163  3.1106 -1.4255
   29MOL   H26031676   4.517   6.205   3.270  0.1371  0.0004 -1.7328
   29MOL   H26131677   4.683   6.164   3.329 -0.7172  0.0884 -1.7969
   29MOL   H26231678   4.442   6.235   3.492  0.6945 -0.6947  2.8933
   29MOL   H26331679   4.578   6.137   3.551  0.3666 -0.4199 -0.9967
   29MOL   H26431680   4.733   6.321   3.551 -1.1176 -1.8769  0.7104
   29MOL   H26531681   4.641   6.408   3.444  3.4347 -0.3077 -0.7738
   29MOL   H26631682   4.460   6.441   3.637  0.3183  1.8653  1.3302
   29MOL   H26731683   4.556   6.341   3.737  0.3984  0.8828  1.3203
   29MOL   H26831684   4.636   6.517   3.892  2.0122  1.2654  0.1278
   29MOL   H26931685   4.617   6.775   3.803  2.5271  1.8008 -0.9001
   29MOL   H27031686   4.785   6.720   3.867  0.0524 -1.3367  1.8644
   29MOL   H27131687   4.662   6.666   4.078 -0.0195  0.9371  1.2017
   29MOL   H27231688   4.520   6.751   4.007  0.3849  1.7421  1.4680
   29MOL   H27331689   4.786   6.897   4.047  1.1208 -1.3734 -0.6806
   29MOL   H27431690   4.644   6.957   3.988  0.8874 -0.2538 -0.9383
   29MOL   H27531691   4.699   7.002   4.244 -1.4356  2.4341 -0.3255
   29MOL   H27631692   4.662   6.835   4.259  1.4413  0.6347  0.8333
   29MOL   H27731693   4.437   6.839   4.239  2.3762 -0.4994  3.2095
   29MOL   H27831694   4.440   6.974   4.129 -0.1896 -3.0745 -0.2915
   29MOL   H27931695   4.335   7.047   4.355 -0.7518 -0.3830 -1.9460
   29MOL   H28031696   4.488   7.121   4.329 -0.0763 -0.4296 -0.5747
   29MOL   H28131697   4.585   7.013   4.499  0.4739  1.7373 -2.2484
   29MOL   C28231698   4.431   6.894   4.552  0.0175 -0.0354 -0.4648
   29MOL   O28331699   4.318   6.849   4.534 -0.8823 -0.2540 -0.1664
   29MOL   C28431700   4.506   6.835   4.669  0.3237  0.1642 -0.0840
   29MOL   C28531701   4.434   6.830   4.809 -0.8043 -0.1375  0.0778
   29MOL   C28631702   4.520   6.773   4.924  0.5185  0.3243  0.0662
   29MOL   C28731703   4.577   6.635   4.882  0.2247  0.0760 -0.0889
   29MOL   C28831704   4.609   6.556   5.013 -0.8423 -0.2784 -1.1463
   29MOL   C28931705   4.694   6.431   4.990  0.6762 -0.3249  0.4256
   29MOL   C29031706   4.700   6.338   5.106 -0.2298  0.5357 -0.2746
   29MOL   C29131707   4.559   6.277   5.148 -0.7764  1.3501 -0.2042
   29MOL   C29231708   4.557   6.186   5.271  0.2163  0.2029  0.0778
   29MOL   C29331709   4.414   6.134   5.292 -0.1630  0.5307  0.9295
   29MOL   C29431710   4.356   6.040   5.185  0.3527  0.4060  0.0962
   29MOL   O29531711   4.423   5.990   5.096 -0.0080  0.0289 -0.1247
   29MOL   N29631712   4.234   5.993   5.203  0.0976 -0.2192  0.8244
   29MOL   C29731713   4.171   5.893   5.111  0.5199  0.0738  0.1564
   29MOL   C29831714   4.019   5.903   5.124 -0.0932  0.0558  0.0564
   29MOL   C29931715   3.966   6.049   5.104  0.0939  0.9833 -0.1237
   29MOL   C30031716   3.825   6.067   5.038  0.2674 -0.7317 -0.5360
   29MOL   C30131717   3.719   6.019   5.146 -0.8187  0.0448 -0.8185
   29MOL   C30231718   3.569   6.049   5.108  0.4710 -0.0358 -0.4176
   29MOL   N30331719   3.543   6.047   4.965 -0.5763  0.0727  0.5961
   29MOL   H30431720   4.518   6.734   4.631 -1.4939  1.0734 -3.2334
   29MOL   H30531721   4.607   6.875   4.679  0.7794 -0.8113 -0.7897
   29MOL   H30631722   4.346   6.766   4.808  0.4040 -1.8496  1.0781
   29MOL   H30731723   4.412   6.932   4.841  0.9856  0.7078 -1.2925
   29MOL   H30831724   4.600   6.841   4.949 -0.1066  1.0045  0.2385
   29MOL   H30931725   4.463   6.766   5.017  3.0067  2.3008  1.7999
   29MOL   H31031726   4.666   6.654   4.823  1.2000  0.2328  1.3916
   29MOL   H31131727   4.502   6.583   4.822 -2.0276  0.5916  2.1988
   29MOL   H31231728   4.652   6.623   5.087  0.6400  0.5100 -2.6816
   29MOL   H31331729   4.518   6.528   5.066  0.4913  1.0977  1.9509
   29MOL   H31431730   4.644   6.378   4.908 -1.6853  1.2921  0.7855
   29MOL   H31531731   4.799   6.439   4.960  0.7144  0.1518  0.6955
   29MOL   H31631732   4.750   6.387   5.190 -1.5205  0.2433  0.6838
   29MOL   H31731733   4.776   6.264   5.078  2.2210  3.0672 -0.5937
   29MOL   H31831734   4.527   6.226   5.058  0.7670 -0.8658  0.4556
   29MOL   H31931735   4.485   6.355   5.165 -0.8048  1.2728  0.0291
   29MOL   H32031736   4.622   6.098   5.269 -0.8180 -0.5515 -0.4753
   29MOL   H32131737   4.590   6.248   5.354  0.2933  0.7109 -0.3285
   29MOL   H32231738   4.402   6.079   5.386 -1.7260 -0.7164  0.0405
   29MOL   H32331739   4.345   6.218   5.295 -0.3698  0.4363 -0.7590
   29MOL   H32431740   4.201   5.994   5.298 -1.2595  1.4132  0.3608
   29MOL   H32531741   4.192   5.791   5.143 -0.4225  0.0291  0.6486
   29MOL   H32631742   4.187   5.912   5.005 -1.6676 -1.7501 -0.5365
   29MOL   H32731743   3.996   5.883   5.229 -1.9388  2.3590  0.1230
   29MOL   H32831744   3.966   5.822   5.074  0.7683 -1.5938  1.7147
   29MOL   H32931745   4.033   6.091   5.029  1.2631  0.1480  0.4478
   29MOL   H33031746   3.964   6.108   5.195 -1.0577 -0.1605  0.6037
   29MOL   H33131747   3.807   6.171   5.009 -1.2934 -0.7525  0.2864
   29MOL   H33231748   3.816   6.009   4.947  2.2300 -2.4532  0.3365
   29MOL   H33331749   3.749   6.067   5.239 -0.8759  0.1337 -0.8455
   29MOL   H33431750   3.720   5.911   5.157  0.9255 -0.3257 -4.1278
   29MOL   H33531751   3.508   5.972   5.154 -0.3397  0.6724 -0.3069
   29MOL   H33631752   3.540   6.142   5.157  1.7905  0.1047  0.1055
   29MOL   H33731753   3.577   5.961   4.924 -2.3271 -1.0622  1.4904
   29MOL   C33831754   3.525   6.152   4.883  0.0707 -0.0468  0.7656
   29MOL   O33931755   3.473   6.253   4.921  0.8537 -0.2184 -0.1066
   29MOL   C34031756   3.569   6.141   4.737 -0.4963 -0.3775  0.3223
   29MOL   C34131757   3.675   6.248   4.707  0.2458  0.2619  0.0524
   29MOL   C34231758   3.819   6.202   4.683  0.2843  0.0155 -0.0169
   29MOL   C34331759   3.837   6.105   4.568 -0.2795 -0.2800  0.4303
   29MOL   C34431760   3.988   6.086   4.551  0.5749  0.9583  0.4872
   29MOL   C34531761   4.028   5.996   4.425 -0.1043 -0.2831  0.4472
   29MOL   C34631762   4.180   5.965   4.432  0.5439 -0.6271  0.6996
   29MOL   C34731763   4.235   5.867   4.327  0.5853  0.2501 -0.0606
   29MOL   C34831764   4.386   5.866   4.327 -0.5347  0.8488  0.3224
   29MOL   C34931765   4.465   5.784   4.216  0.2813 -0.3830 -0.1018
   29MOL   C35031766   4.429   5.832   4.075  0.0184  0.2763 -0.8524
   29MOL   O35131767   4.401   5.951   4.054 -0.1745  0.1399  0.1416
   29MOL   N35231768   4.430   5.744   3.976 -0.1578 -0.0360  1.0528
   29MOL   C35331769   4.367   5.765   3.845 -0.1802  0.1735 -0.5024
   29MOL   C35431770   4.248   5.665   3.825 -0.3506 -0.4400  0.3975
   29MOL   C35531771   4.171   5.696   3.691 -0.2415 -0.3056 -0.3607
   29MOL   C35631772   4.022   5.644   3.693 -0.6356 -0.5510 -0.0985
   29MOL   C35731773   3.936   5.695   3.580  0.2443  0.4005 -0.8258
   29MOL   C35831774   3.796   5.637   3.571 -0.3539  0.1057 -0.4869
   29MOL   N35931775   3.714   5.702   3.467  0.4632 -0.3099 -0.5916
   29MOL   H36031776   3.482   6.167   4.676 -0.0710  1.1435  0.3334
   29MOL   H36131777   3.609   6.042   4.716  0.1198  0.0702 -0.6612
   29MOL   H36231778   3.640   6.283   4.609  0.5640  0.0975 -0.1224
   29MOL   H36331779   3.676   6.338   4.768 -0.2145  0.9274 -0.9150
   29MOL   H36431780   3.860   6.151   4.771  2.3040 -1.3962 -1.7353
   29MOL   H36531781   3.875   6.293   4.662  1.3473 -0.5728  0.2746
   29MOL   H36631782   3.791   6.008   4.586  2.0085 -1.3788  0.4459
   29MOL   H36731783   3.792   6.135   4.473  0.1679  1.6856  0.8094
   29MOL   H36831784   4.029   6.186   4.538  0.4637  0.6189 -3.2387
   29MOL   H36931785   4.038   6.059   4.644  2.4674 -1.3156 -1.1221
   29MOL   H37031786   3.973   5.903   4.436 -0.9171  0.0545 -0.6536
   29MOL   H37131787   3.985   6.045   4.337  0.6116  3.2396  1.9523
   29MOL   H37231788   4.234   6.060   4.429 -0.1600 -0.2746 -2.3425
   29MOL   H37331789   4.196   5.922   4.531 -2.9917 -2.7438  0.4029
   29MOL   H37431790   4.199   5.770   4.361 -1.8329  0.4684 -1.8833
   29MOL   H37531791   4.194   5.890   4.229  0.1440 -0.5211 -0.0550
   29MOL   H37631792   4.424   5.815   4.416 -0.5917  0.4000  0.0899
   29MOL   H37731793   4.422   5.968   4.342 -0.4790  0.9788 -0.6505
   29MOL   H37831794   4.570   5.799   4.239 -0.2959  0.0113  2.4083
   29MOL   H37931795   4.446   5.677   4.221  1.0554 -0.5293 -0.3201
   29MOL   H38031796   4.440   5.647   4.002  0.7334 -0.0055  0.8170
   29MOL   H38131797   4.446   5.748   3.771 -0.3903 -0.7992 -0.5071
   29MOL   H38231798   4.331   5.867   3.830 -2.3954 -0.1446  2.2441
   29MOL   H38331799   4.176   5.664   3.907 -1.0517 -0.4440 -0.2137
   29MOL   H38431800   4.278   5.561   3.831 -3.6524 -1.3921  1.6994
   29MOL   H38531801   4.173   5.805   3.686  0.9575 -0.4214 -3.6079
   29MOL   H38631802   4.234   5.667   3.607  0.3097  0.4079 -0.1991
   29MOL   H38731803   4.032   5.536   3.681 -1.7102 -0.5956 -0.7840
   29MOL   H38831804   3.986   5.664   3.794  1.1302 -1.3786  0.7163
   29MOL   H38931805   3.993   5.678   3.488  0.4404  0.5087 -0.7259
   29MOL   H39031806   3.928   5.803   3.584 -2.0644  0.2479 -0.9245
   29MOL   H39131807   3.805   5.529   3.557 -0.6578 -0.1020  0.8644
   29MOL   H39231808   3.747   5.659   3.666 -0.0619 -0.2096 -0.2577
   29MOL   H39331809   3.659   5.782   3.493 -0.1658 -0.7101 -0.6864
   29MOL   C39431810   3.715   5.682   3.334  0.7229  0.0189  0.4837
   29MOL   O39531811   3.791   5.597   3.284 -0.4351  0.8048 -0.4406
   29MOL   C39631812   3.627   5.761   3.242  0.1323  0.3867 -0.0863
   29MOL   C39731813   3.701   5.884   3.187  0.2766 -0.2092  0.0465
   29MOL   C39831814   3.736   5.992   3.282 -0.5416 -0.1384  0.0960
   29MOL   C39931815   3.827   6.090   3.216 -0.7098 -0.2165  0.1242
   29MOL   C40031816   3.882   6.188   3.321  0.0499 -0.0135 -0.2760
   29MOL   C40131817   3.994   6.131   3.410  0.1906  0.1027  0.0088
   29MOL   C40231818   4.032   6.234   3.509 -0.5966 -0.0281 -0.2607
   29MOL   C40331819   4.143   6.181   3.603  0.8221 -0.1083 -0.7409
   29MOL   C40431820   4.210   6.294   3.677  0.3458  0.0340  0.0481
   29MOL   C40531821   4.125   6.348   3.790 -0.2828  0.6173  1.0899
   29MOL   C40631822   4.200   6.423   3.898 -0.4528  0.2085 -0.1248
   29MOL   O40731823   4.317   6.464   3.881 -0.0463  0.2723 -0.3081
   29MOL   N40831824   4.128   6.454   4.005  0.5824 -0.6965 -0.4185
   29MOL   C40931825   3.990   6.422   4.036  0.4752  0.0827 -0.8216
   29MOL   C41031826   3.985   6.308   4.139 -0.2821  0.2233  1.5584
   29MOL   C41131827   4.052   6.350   4.272  0.4612 -0.7372  0.2018
   29MOL   C41231828   4.014   6.481   4.343 -0.7005  0.3874 -0.0774
   29MOL   C41331829   4.074   6.490   4.487 -0.4933 -0.2651  0.5965
   29MOL   C41431830   4.016   6.609   4.559  0.9809 -0.2277  0.7369
   29MOL   N41531831   4.061   6.742   4.513  0.7403  0.5109 -0.3671
   29MOL   H41631832   3.543   5.795   3.302 -0.9154  0.9899 -1.8347
   29MOL   H41731833   3.596   5.695   3.161  1.8064 -3.0704  1.9718
   29MOL   H41831834   3.639   5.918   3.103 -0.1402  0.1071  0.4827
   29MOL   H41931835   3.792   5.845   3.140 -0.0026  1.3838 -1.8775
   29MOL   H42031836   3.788   5.960   3.373 -0.0968  1.3636  0.3852
   29MOL   H42131837   3.648   6.038   3.327  0.5610  2.5367 -0.4052
   29MOL   H42231838   3.769   6.144   3.140  0.5467  1.6932  0.4913
   29MOL   H42331839   3.907   6.046   3.156  0.1884 -0.3698  1.4306
   29MOL   H42431840   3.909   6.278   3.267 -0.3614  1.0884  1.3250
   29MOL   H42531841   3.802   6.238   3.375  2.1729  1.4676  1.5846
   29MOL   H42631842   3.959   6.048   3.472  1.2245  0.5786  1.2451
   29MOL   H42731843   4.082   6.099   3.354  0.0249  2.4332 -1.6552
   29MOL   H42831844   4.076   6.318   3.455  2.1078  0.6173  2.8202
   29MOL   H42931845   3.948   6.274   3.566 -0.9312 -0.5797 -0.3658
   29MOL   H43031846   4.094   6.111   3.670 -0.2153 -2.4696 -3.9002
   29MOL   H43131847   4.229   6.140   3.550  1.7081 -0.4674  0.9535
   29MOL   H43231848   4.249   6.376   3.616 -0.1637  1.0073  1.0205
   29MOL   H43331849   4.299   6.254   3.725 -0.4089 -1.3655  0.3059
   29MOL   H43431850   4.050   6.413   3.746  1.4922 -0.0712 -3.1988
   29MOL   H43531851   4.074   6.264   3.838 -0.7274  0.8038  0.9331
   29MOL   H43631852   4.175   6.499   4.082  1.0596 -0.3275 -0.9161
   29MOL   H43731853   3.925   6.406   3.950 -1.3246 -3.5324  1.1121
   29MOL   H43831854   3.945   6.512   4.077  0.2696 -0.5433  0.3319
   29MOL   H43931855   4.020   6.218   4.090 -2.6543 -0.7951  1.6601
   29MOL   H44031856   3.882   6.293   4.171 -1.6857  2.3216 -1.6813
   29MOL   H44131857   4.032   6.269   4.343 -0.1230 -2.0297 -1.3992
   29MOL   H44231858   4.159   6.350   4.252  0.5363 -2.2297  0.4769
   29MOL   H44331859   4.059   6.562   4.284  0.5367 -0.3519 -0.1582
   29MOL   H44431860   3.908   6.501   4.357 -1.2014 -1.1529 -1.6008
   29MOL   H44531861   4.052   6.394   4.532  1.1393 -0.7871  0.2915
   29MOL   H44631862   4.182   6.499   4.487 -0.5517  0.6586 -0.7616
   29MOL   H44731863   3.907   6.602   4.560  0.8412  1.4367 -1.0329
   29MOL   H44831864   4.036   6.611   4.667  1.4906 -1.4273  0.6767
   29MOL   H44931865   4.157   6.773   4.522  1.0876  0.0132 -2.2407
   29MOL   C45031866   3.972   6.823   4.451  0.3582 -0.4262  0.8199
   29MOL   O45131867   3.854   6.805   4.444 -0.4226 -0.5149  0.8614
   29MOL   C45231868   4.029   6.953   4.407  0.2209  0.0462 -0.5112
   29MOL   C45331869   3.937   7.077   4.439  0.9541 -0.6356  0.6267
   29MOL   C45431870   3.966   7.188   4.335 -0.4038 -0.5472  0.5258
   29MOL   C45531871   3.888   7.319   4.368  0.5500  0.2253 -1.3556
   29MOL   C45631872   3.907   7.432   4.266  0.1101  0.0730 -0.4566
   29MOL   C45731873   3.813   7.552   4.293 -0.4910 -0.6070  0.0359
   29MOL   C45831874   3.810   7.656   4.173 -0.5882  0.2162 -0.1415
   29MOL   C45931875   3.943   0.023   4.127 -0.0846  0.4833 -0.0763
   29MOL   C46031876   4.028   0.095   4.232  0.2658 -0.2848  0.4218
   29MOL   C46131877   3.958   0.221   4.291  0.3606 -0.4896 -0.1386
   29MOL   C46231878   4.055   0.318   4.355  0.0477 -0.6453 -0.3510
   29MOL   O46331879   4.147   0.288   4.436 -0.9131  0.6575  0.5475
   29MOL   N46431880   4.035   0.446   4.315  0.2376 -0.8222 -0.4073
   29MOL   C46531881   4.113   0.562   4.358  0.0102 -0.1466  0.3687
   29MOL   C46631882   4.083   0.681   4.276 -0.4599  0.1167  0.0253
   29MOL   C46731883   4.180   0.796   4.306  0.4108 -0.0033 -0.3511
   29MOL   C46831884   4.178   0.926   4.225  0.0391 -0.8842  0.1867
   29MOL   C46931885   4.234   0.911   4.088  0.1787 -0.1692  0.2238
   29MOL   C47031886   4.257   1.039   4.001  0.9735 -0.1180 -0.0112
   29MOL   N47131887   4.307   1.019   3.869 -0.1326 -0.1890 -0.3523
   29MOL   H47231888   4.131   6.970   4.440  0.3211  0.5070 -1.0320
   29MOL   H47331889   4.032   6.938   4.299  2.2354 -1.6106 -0.2452
   29MOL   H47431890   3.949   7.092   4.547 -1.6445 -1.8756  1.1306
   29MOL   H47531891   3.833   7.050   4.420 -0.1249  3.2442  0.6785
   29MOL   H47631892   3.946   7.148   4.236 -2.1379  0.4307  0.4690
   29MOL   H47731893   4.073   7.208   4.337 -1.0138  3.2095 -0.6160
   29MOL   H47831894   3.897   7.359   4.469 -1.7950 -1.6429 -0.3472
   29MOL   H47931895   3.785   7.284   4.370  0.0488  1.6747 -0.8203
   29MOL   H48031896   3.878   7.404   4.165 -3.8990  0.0150  0.6521
   29MOL   H48131897   4.014   7.457   4.265 -0.1001  1.1806  1.5064
   29MOL   H48231898   3.832   7.603   4.387  1.8194 -0.2251 -0.6164
   29MOL   H48331899   3.713   7.513   4.310 -1.3167  1.5694  0.4159
   29MOL   H48431900   3.778   7.601   4.085  0.1192  0.7177 -0.7178
   29MOL   H48531901   3.734   0.038   4.199  0.3091  2.5181 -3.6738
   29MOL   H48631902   3.998   7.632   4.082 -2.6533 -0.2932 -1.9070
   29MOL   H48731903   3.933   0.092   4.044  3.1605  1.5098  0.3261
   29MOL   H48831904   4.117   0.119   4.174  0.2369 -1.6889 -0.2373
   29MOL   H48931905   4.049   0.031   4.318 -0.3970  1.6229  2.0314
   29MOL   H49031906   3.899   0.268   4.213  1.0360  1.7865  0.6868
   29MOL   H49131907   3.891   0.182   4.368  2.8571 -0.9687  1.8600
   29MOL   H49231908   3.960   0.465   4.250  0.4770  1.2496 -0.0946
   29MOL   H49331909   4.221   0.541   4.359  0.0226 -0.1043 -0.0814
   29MOL   H49431910   4.097   0.575   4.465  2.5645 -1.8382  1.0114
   29MOL   H49531911   4.102   0.659   4.171 -2.2906  0.2668 -0.3535
   29MOL   H49631912   3.976   0.705   4.272 -0.8048 -1.5682 -1.2520
   29MOL   H49731913   4.282   0.759   4.298 -0.8663 -3.5466 -1.0818
   29MOL   H49831914   4.169   0.812   4.413  0.3627  0.4634 -0.4268
   29MOL   H49931915   4.249   0.990   4.277 -0.4826 -0.0049 -0.1597
   29MOL   H50031916   4.077   0.967   4.231  0.6758  0.5872  1.2108
   29MOL   H50131917   4.333   0.872   4.112  1.0866  0.7994 -1.8835
   29MOL   H50231918   4.174   0.843   4.027  0.4568 -0.3113  0.1102
   29MOL   H50331919   4.162   1.093   4.003  0.4871 -0.9736  0.0635
   29MOL   H50431920   4.324   1.104   4.058 -0.3725  0.2329  1.1921
   29MOL   H50531921   4.238   1.010   3.795 -2.9811 -0.9343  2.3316
   29MOL   C50631922   4.435   1.038   3.826 -0.1818  0.3312  0.1046
   29MOL   O50731923   4.527   1.054   3.905  0.0926  0.6028  0.0799
   29MOL   C50831924   4.467   1.019   3.676  0.3499  0.3108  0.3473
   29MOL   C50931925   4.588   0.929   3.650  0.6849  0.1263  0.3009
   29MOL   C51031926   4.574   0.777   3.683  0.2644 -0.0581 -0.6355
   29MOL   C51131927   4.701   0.690   3.650  0.2887 -0.2310 -0.3344
   29MOL   C51231928   4.678   0.546   3.689  0.1306  0.1258  0.8636
   29MOL   C51331929   4.770   0.445   3.616  0.8336 -0.5295 -0.7336
   29MOL   C51431930   4.784   0.318   3.703 -0.6913  0.1820 -0.2861
   29MOL   C51531931   4.844   0.206   3.615  0.2146  0.3067  0.0501
   29MOL   C51631932   4.995   0.228   3.592  0.3783  0.2731 -0.1083
   29MOL   C51731933   5.043   0.129   3.479  0.2491 -0.3189 -0.0531
   29MOL   C51831934   5.190   0.143   3.454  0.5131  0.3099  1.0016
   29MOL   O51931935   5.229   0.255   3.417 -0.2787 -0.2005  0.0724
   29MOL   N52031936   5.272   0.043   3.478  0.6092 -0.1379 -0.5338
   29MOL   C52131937   5.406   0.048   3.416 -0.1000  0.4015 -1.0019
   29MOL   C52231938   5.486   7.621   3.446  0.4946 -0.0021 -0.0367
   29MOL   C52331939   5.515   7.582   3.588  0.1369  0.4080 -0.6828
   29MOL   C52431940   5.592   7.451   3.599  0.7249 -0.3295  0.3120
   29MOL   C52531941   5.615   7.411   3.742  0.1048 -0.3372  0.1786
   29MOL   C52631942   5.688   7.275   3.758 -0.1872 -0.9489  0.4467
   29MOL   N52731943   5.813   7.281   3.684 -0.1160  0.2136  0.0167
   29MOL   H52831944   4.493   1.114   3.630 -0.2881  0.1704 -0.3207
   29MOL   H52931945   4.377   0.988   3.622 -0.9090  0.5441  2.2870
   29MOL   H53031946   4.669   0.968   3.712 -0.6310  2.5346  0.5547
   29MOL   H53131947   4.619   0.936   3.546  2.5868  0.2670  0.8431
   29MOL   H53231948   4.506   0.726   3.615  0.6226 -4.4873  2.1447
   29MOL   H53331949   4.537   0.764   3.785 -3.9711  1.4366 -1.8671
   29MOL   H53431950   4.728   0.693   3.544 -0.7181 -1.6387 -0.6559
   29MOL   H53531951   4.786   0.733   3.703 -2.8602  1.4081  3.6146
   29MOL   H53631952   4.677   0.527   3.796  0.7388 -1.3073  0.6220
   29MOL   H53731953   4.578   0.520   3.657  0.3842  0.6578 -0.4102
   29MOL   H53831954   4.740   0.420   3.514  1.3298  0.8863 -1.2322
   29MOL   H53931955   4.868   0.490   3.605  1.1086 -0.5818  1.4182
   29MOL   H54031956   4.851   0.334   3.787 -1.1043 -2.8069  0.6911
   29MOL   H54131957   4.688   0.291   3.747  0.0084 -0.0492  1.1250
   29MOL   H54231958   4.823   0.109   3.659  0.1807 -0.4330 -1.5785
   29MOL   H54331959   4.781   0.214   3.527 -0.8832 -0.8454  0.7185
   29MOL   H54431960   5.042   0.210   3.688 -0.1076 -1.1010 -0.1186
   29MOL   H54531961   5.034   0.324   3.559 -0.5164 -0.3538 -3.1961
   29MOL   H54631962   5.016   0.032   3.519 -0.1870 -0.2584 -0.2028
   29MOL   H54731963   4.999   0.141   3.380  1.7620 -0.1683 -0.7288
   29MOL   H54831964   5.228   7.646   3.498  1.6339 -0.0198  2.3384
   29MOL   H54931965   5.457   0.135   3.455  1.3548 -1.2438  0.8583
   29MOL   H55031966   5.391   0.066   3.309  2.0686  1.4724 -1.1385
   29MOL   H55131967   5.582   7.611   3.396  1.7133 -1.3392  2.5145
   29MOL   H55231968   5.423   7.545   3.399  1.2357  0.3213 -1.6079
   29MOL   H55331969   5.414   7.575   3.627  0.7348 -1.9662  0.5227
   29MOL   H55431970   5.577   7.662   3.630 -0.5178  0.9414 -0.7322
   29MOL   H55531971   5.687   7.463   3.547  0.4188 -1.4843 -0.5378
   29MOL   H55631972   5.535   7.373   3.550  0.6357 -1.4548  2.1651
   29MOL   H55731973   5.679   7.486   3.788  1.0437 -0.8868 -0.2111
   29MOL   H55831974   5.523   7.411   3.800 -0.1811 -1.8270 -0.2696
   29MOL   H55931975   5.688   7.248   3.864  2.5240 -0.4804  0.6154
   29MOL   H56031976   5.642   7.190   3.709  2.8560 -0.4729 -3.5066
   29MOL   H56131977   5.875   7.355   3.711 -1.2050  0.4914  1.7829
   29MOL   C56231978   5.848   7.206   3.577 -0.3550  0.1726 -0.2284
   29MOL   O56331979   5.765   7.131   3.522 -0.0860  0.0690 -0.2978
   29MOL   C56431980   5.994   7.203   3.529  0.2065 -0.1862  0.4984
   29MOL   C56531981   6.019   7.273   3.393 -0.1597 -0.4042 -0.0684
   29MOL   C56631982   6.074   7.413   3.401 -0.1272 -0.2767  0.4609
   29MOL   C56731983   5.966   7.522   3.447  0.4346 -0.0543  0.0965
   29MOL   C56831984   6.017   7.663   3.423  0.5573  0.4530  0.6683
   29MOL   C56931985   5.908   0.084   3.456 -0.4140 -0.1857  0.2091
   29MOL   C57031986   5.890   0.101   3.609 -0.6331 -0.0645 -0.2808
   29MOL   C57131987   5.794   0.216   3.641  0.0882  0.0839 -0.4222
   29MOL   C57231988   5.823   0.263   3.789  0.4533 -0.4592 -0.2660
   29MOL   C57331989   5.737   0.375   3.840  0.6290 -0.3617  0.3184
   29MOL   C57431990   5.744   0.501   3.754  0.0545 -0.5906 -0.4899
   29MOL   O57531991   5.854   0.558   3.735 -0.2318  0.1899 -0.0631
   29MOL   N57631992   5.632   0.550   3.703  0.0652 -0.7697 -0.3508
   29MOL   C57731993   5.628   0.660   3.609  0.4261 -0.0708  0.1344
   29MOL   C57831994   5.482   0.721   3.591 -0.7056  1.0491 -0.5745
   29MOL   C57931995   5.468   0.840   3.505 -0.6453 -0.0238 -0.1009
   29MOL   C58031996   5.323   0.893   3.503  0.0838  0.2102 -0.1376
   29MOL   C58131997   5.310   0.983   3.373  0.3187 -0.4388 -0.3856
   29MOL   C58231998   5.164   1.025   3.349  0.2071  0.3865 -0.1048
   29MOL   N58331999   5.115   1.115   3.455  0.1118 -0.6414 -0.0403
   29MOL   H58432000   6.063   7.243   3.603  1.2009 -1.5525  0.3111
   29MOL   H58532001   6.015   7.098   3.508 -1.9025 -0.0244 -2.9281
   29MOL   H58632002   6.096   7.208   3.353  0.1873  1.1202 -1.9637
   29MOL   H58732003   5.938   7.257   3.323  0.1974  1.7903 -1.0226
   29MOL   H58832004   6.112   7.436   3.301 -1.3576  0.6656  0.2006
   29MOL   H58932005   6.158   7.413   3.470 -0.7272 -0.1199  1.1976
   29MOL   H59032006   5.869   7.513   3.398  1.0142  1.3469 -1.3348
   29MOL   H59132007   5.945   7.512   3.554 -0.3071 -2.0317 -0.2009
   29MOL   H59232008   6.093   7.688   3.498  1.2092 -0.2184  0.2280
   29MOL   H59332009   6.052   7.677   3.321 -0.8882 -1.5668 -0.1365
   29MOL   H59432010   5.948   0.179   3.421  0.5246  0.4231  2.8539
   29MOL   H59532011   5.826   0.054   3.390  1.2308 -4.2872 -0.0880
   29MOL   H59632012   5.846   0.011   3.653 -0.2857  0.6341  1.5210
   29MOL   H59732013   5.987   0.111   3.657 -0.5171  0.3776 -0.6137
   29MOL   H59832014   5.688   0.190   3.636  0.1276 -0.4762  1.2309
   29MOL   H59932015   5.808   0.306   3.580  0.7218  0.4090  0.1903
   29MOL   H60032016   5.927   0.295   3.792 -0.3766  2.7041 -2.7952
   29MOL   H60132017   5.793   0.183   3.856 -0.6970  0.0897 -0.1238
   29MOL   H60232018   5.635   0.342   3.825 -1.5827  4.4096  3.5532
   29MOL   H60332019   5.762   0.407   3.941 -0.1063  0.6453  0.1887
   29MOL   H60432020   5.548   0.495   3.717 -1.1633  0.8720 -0.9994
   29MOL   H60532021   5.675   0.637   3.514 -0.0015 -1.3402  0.2126
   29MOL   H60632022   5.693   0.740   3.645 -1.9918  1.4376  1.3409
   29MOL   H60732023   5.446   0.738   3.692 -0.9172  0.4376 -0.5439
   29MOL   H60832024   5.419   0.642   3.551 -3.5087  2.8920  0.1317
   29MOL   H60932025   5.519   0.825   3.409  0.0127  0.4752  0.1709
   29MOL   H61032026   5.536   0.918   3.539 -4.5303  2.1266  3.1117
   29MOL   H61132027   5.243   0.819   3.505 -0.9744  1.3528  0.0632
   29MOL   H61232028   5.302   0.960   3.586 -0.8103  0.5165 -0.6060
   29MOL   H61332029   5.340   0.929   3.283  1.3872 -0.0936 -0.2409
   29MOL   H61432030   5.362   1.078   3.383  0.4074 -0.6948  1.7537
   29MOL   H61532031   5.176   1.090   3.263 -0.9265  1.5972  0.6329
   29MOL   H61632032   5.103   0.942   3.314  3.6585 -2.5409  0.5431
   29MOL   H61732033   5.145   1.211   3.449 -2.5332  0.3086  1.2546
   29MOL   C61832034   5.010   1.105   3.537  0.9711  0.3243  0.9689
   29MOL   O61932035   4.940   1.004   3.540  0.4549 -0.2986  0.4571
   29MOL   C62032036   4.989   1.219   3.629  0.2656 -0.4449  0.3271
   29MOL   C62132037   4.840   1.252   3.640  0.6183 -0.3570  0.2605
   29MOL   C62232038   4.802   1.349   3.752 -0.2389 -0.4734  0.1613
   29MOL   C62332039   4.646   1.367   3.775 -1.3412  0.2640  0.1920
   29MOL   C62432040   4.619   1.483   3.867  0.2337  0.2182 -0.6886
   29MOL   C62532041   4.643   1.448   4.013 -0.3425 -0.3839  0.2654
   29MOL   C62632042   4.545   1.352   4.083  0.3877 -0.4126  1.1593
   29MOL   C62732043   4.569   1.333   4.229  0.5551  0.4134  0.0764
   29MOL   C62832044   4.513   1.204   4.291  0.9645 -0.4309 -0.5394
   29MOL   C62932045   4.573   1.072   4.238 -0.6891  0.1635  0.4055
   29MOL   C63032046   4.726   1.079   4.228 -0.0607  0.7074 -0.0905
   29MOL   O63132047   4.791   1.116   4.326  0.2693  0.0639 -0.3837
   29MOL   N63232048   4.776   1.043   4.110  0.3067 -0.0260 -0.3042
   29MOL   C63332049   4.913   1.062   4.056 -0.0847  0.5453 -0.1266
   29MOL   C63432050   4.944   0.953   3.949 -0.5800  0.1559  0.1538
   29MOL   C63532051   5.092   0.941   3.904  0.6086  0.2301 -0.8113
   29MOL   C63632052   5.096   0.826   3.810 -0.8384  0.2638  0.2119
   29MOL   C63732053   5.137   0.694   3.875 -0.2355  0.0603 -0.2902
   29MOL   C63832054   5.131   0.584   3.772  0.7249  0.0589 -0.3503
   29MOL   N63932055   5.159   0.457   3.832 -0.1914 -0.3657 -0.6934
   29MOL   H64032056   5.031   1.314   3.595 -0.2890 -0.5191 -0.5921
   29MOL   H64132057   5.040   1.211   3.724  0.6576 -0.9730  0.0748
   29MOL   H64232058   4.784   1.160   3.655  0.8820 -0.8614 -1.6506
   29MOL   H64332059   4.810   1.268   3.536  2.3918 -3.1057 -0.7607
   29MOL   H64432060   4.846   1.448   3.738 -1.2567  0.1556  1.3283
   29MOL   H64532061   4.847   1.314   3.845 -1.6621  0.4600  1.2245
   29MOL   H64632062   4.601   1.385   3.677  0.2251  1.0365 -0.4050
   29MOL   H64732063   4.595   1.279   3.813  0.7344 -1.1999 -0.3754
   29MOL   H64832064   4.688   1.563   3.841  1.8680  0.0726  2.8281
   29MOL   H64932065   4.519   1.524   3.856  0.2363  0.1571 -0.9272
   29MOL   H65032066   4.642   1.541   4.070  0.6477  1.4385 -2.6094
   29MOL   H65132067   4.745   1.412   4.006 -0.3236  0.0751 -2.2882
   29MOL   H65232068   4.441   1.380   4.070  0.6018 -1.0183 -2.4700
   29MOL   H65332069   4.548   1.259   4.025 -1.4060  0.3665 -0.2002
   29MOL   H65432070   4.677   1.336   4.245  0.7798  0.7550 -1.4615
   29MOL   H65532071   4.525   1.421   4.276 -3.0347 -0.1538 -2.0689
   29MOL   H65632072   4.404   1.202   4.290  0.9066 -0.8481  1.9241
   29MOL   H65732073   4.538   1.214   4.397  2.7538  0.1631 -0.9861
   29MOL   H65832074   4.554   0.984   4.299  2.0316 -0.1799  0.8407
   29MOL   H65932075   4.534   1.045   4.140  0.6163  0.3403 -0.1818
   29MOL   H66032076   4.708   1.006   4.044 -1.6094  2.2872  0.3035
   29MOL   H66132077   4.915   1.161   4.011  0.0953  0.3086 -0.6429
   29MOL   H66232078   4.978   1.077   4.143 -2.1253  0.3629  1.4778
   29MOL   H66332079   4.882   0.976   3.862 -1.1642  1.1470  0.8152
   29MOL   H66432080   4.893   0.863   3.982 -0.2584 -0.3648 -0.7353
   29MOL   H66532081   5.116   1.028   3.843  0.6700 -0.0873 -1.2413
   29MOL   H66632082   5.168   0.944   3.982  1.5120  0.4472 -1.6882
   29MOL   H66732083   5.163   0.846   3.726  1.7803 -1.3376  1.8770
   29MOL   H66832084   5.001   0.809   3.759  0.3422 -1.3580 -1.4996
   29MOL   H66932085   5.237   0.703   3.916  0.0008  1.4440 -1.0979
   29MOL   H67032086   5.069   0.679   3.958 -1.8409 -1.8650 -1.9047
   29MOL   H67132087   5.032   0.571   3.729  0.9427 -1.3918 -0.4648
   29MOL   H67232088   5.202   0.605   3.692  1.1322  0.3507  0.0848
   29MOL   H67332089   5.090   0.429   3.900  0.3344  0.1512  0.0575
   29MOL   C67432090   5.273   0.400   3.819 -0.2009  0.0135 -0.0772
   29MOL   O67532091   5.358   0.427   3.733  0.2092  0.4760 -0.2972
   29MOL   C67632092   5.305   0.293   3.921 -0.0769  0.0690  0.0007
   29MOL   C67732093   5.404   0.178   3.894  0.3646 -0.2799  0.8949
   29MOL   C67832094   5.493   0.157   4.009  0.6520  0.3409  0.4183
   29MOL   C67932095   5.584   0.029   4.018  0.5421  0.2821 -0.0449
   29MOL   C68032096   5.503   7.585   4.019  0.3646  0.2001  0.1134
   29MOL   C68132097   5.411   7.568   4.146  0.9429 -0.0143  0.4089
   29MOL   C68232098   5.338   7.439   4.160  0.4015 -0.5219  0.0751
   29MOL   C68332099   5.409   7.308   4.122  0.6102 -0.0179  0.1241
   29MOL   C68432100   5.538   7.281   4.202  0.2243 -0.5442 -0.3319
   29MOL   C68532101   5.528   7.288   4.351  0.1490  0.2006  0.3161
   29MOL   C68632102   5.664   7.291   4.415 -0.7789 -0.2311 -0.1627
   29MOL   O68732103   5.760   7.227   4.375 -0.9636 -0.4902 -0.5526
   29MOL   N68832104   5.669   7.362   4.532  0.1667 -0.2082  0.1485
   29MOL   C68932105   5.787   7.354   4.618  0.9752  0.8704 -0.0353
   29MOL   C69032106   5.797   7.219   4.701  0.5104  0.0829  0.7544
   29MOL   C69132107   5.667   7.186   4.783 -0.4008  0.9945  1.0511
   29MOL   C69232108   5.674   7.083   4.889 -0.2891 -0.3444  0.3997
   29MOL   C69332109   5.536   7.076   4.962 -0.4509 -0.4604  0.2687
   29MOL   C69432110   5.549   6.995   5.090  0.0239 -0.1929  0.0673
   29MOL   N69532111   5.453   7.036   5.191  0.4797 -0.4333 -0.3983
   29MOL   H69632112   5.210   0.240   3.927  0.4570 -0.7887  1.0793
   29MOL   H69732113   5.315   0.336   4.020  2.0280 -2.9702  1.1778
   29MOL   H69832114   5.467   0.208   3.810  0.3600 -0.3495  0.8661
   29MOL   H69932115   5.353   0.084   3.870  0.1091  0.2838 -0.8307
   29MOL   H70032116   5.553   0.247   4.028 -0.3747  1.0132  0.5159
   29MOL   H70132117   5.426   0.155   4.094 -1.0258 -2.4279 -0.8990
   29MOL   H70232118   5.648   0.026   4.105  1.4732  1.3599 -0.6841
   29MOL   H70332119   5.665   0.039   3.946  0.6079  1.3685  0.1793
   29MOL   H70432120   5.575   7.505   4.008  3.5442  2.1052  5.0621
   29MOL   H70532121   5.438   7.590   3.932 -0.5425 -2.3768  0.6107
   29MOL   H70632122   5.478   7.567   4.232  2.4442  4.0081 -0.5837
   29MOL   H70732123   5.335   7.646   4.151 -0.0103 -1.0413  2.6010
   29MOL   H70832124   5.285   7.433   4.255 -1.3071  0.1991 -0.7961
   29MOL   H70932125   5.254   7.455   4.092  0.9286 -1.3328 -0.7886
   29MOL   H71032126   5.330   7.234   4.138 -0.0699  0.9167  1.1556
   29MOL   H71132127   5.425   7.309   4.014  0.1935  1.9398  0.0650
   29MOL   H71232128   5.620   7.345   4.168  0.6642 -1.9005 -1.8584
   29MOL   H71332129   5.567   7.181   4.171  0.8042 -0.4746 -0.0309
   29MOL   H71432130   5.467   7.372   4.383  0.8721  0.0609  2.0747
   29MOL   H71532131   5.473   7.195   4.372 -2.2350  1.2158 -1.1593
   29MOL   H71632132   5.591   7.419   4.563  1.4396  0.8272  1.4760
   29MOL   H71732133   5.872   7.367   4.552 -0.5050 -0.6709 -2.3233
   29MOL   H71832134   5.771   7.440   4.682  2.3362  1.6780 -0.7601
   29MOL   H71932135   5.885   7.224   4.764  0.3995  0.7302  0.8589
   29MOL   H72032136   5.806   7.128   4.642  1.9760 -1.1078  2.7904
   29MOL   H72132137   5.628   7.283   4.814 -0.2058  1.3191  0.2911
   29MOL   H72232138   5.594   7.157   4.706 -1.0944  0.7371  1.8002
   29MOL   H72332139   5.760   7.100   4.953  0.2159 -0.4195 -0.2555
   29MOL   H72432140   5.696   6.988   4.840 -1.6016 -0.6907  0.4489
   29MOL   H72532141   5.459   7.042   4.893  0.0833 -0.7303 -0.2029
   29MOL   H72632142   5.513   7.180   4.987  0.3392 -0.6973  2.0768
   29MOL   H72732143   5.538   6.890   5.062 -1.8539  0.0671 -0.2668
   29MOL   H72832144   5.646   7.021   5.132 -0.3529  1.5506 -0.1346
   29MOL   H72932145   5.443   7.136   5.206  1.5455 -0.3925  0.0348
   29MOL   C73032146   5.376   6.952   5.265  0.4622 -0.1445 -0.5643
   29MOL   O73132147   5.385   6.833   5.273  0.3103  0.1883 -0.1258
   29MOL   C73232148   5.269   7.028   5.347  0.2507 -0.3705 -0.4137
   29MOL   C73332149   5.130   6.960   5.333 -0.6889 -0.3921 -0.1638
   29MOL   C73432150   5.010   7.042   5.358  0.3752  0.2998  0.2212
   29MOL   C73532151   4.871   6.985   5.312  0.8241 -0.3068  0.3527
   29MOL   C73632152   4.752   7.082   5.344 -0.2041 -0.7999  0.0270
   29MOL   C73732153   4.604   7.036   5.300 -0.1081  0.6852  0.3571
   29MOL   C73832154   4.497   7.124   5.356  0.7101  0.4811 -0.9773
   29MOL   C73932155   4.356   7.059   5.376  0.3079 -0.6880  0.7662
   29MOL   C74032156   4.302   7.021   5.241 -0.7459  0.1497 -0.2968
   29MOL   C74132157   4.271   7.135   5.141 -0.1628 -0.1821  0.1282
   29MOL   C74232158   4.215   7.085   5.011  0.5094 -0.2145 -0.1149
   29MOL   O74332159   4.207   6.961   4.988  0.0111 -0.2422  0.3181
   29MOL   N74432160   4.188   7.170   4.916  0.5740  0.7408 -0.3217
   29MOL   C74532161   4.143   7.147   4.776  0.0853  0.0809  0.2803
   29MOL   C74632162   4.222   7.235   4.679 -0.7194  0.0367  0.3548
   29MOL   C74732163   4.172   7.380   4.657 -0.2000 -0.4125  0.1072
   29MOL   C74832164   4.269   7.478   4.581 -0.1643 -0.4838 -0.1225
   29MOL   C74932165   4.227   7.624   4.564 -0.5624 -0.3005 -0.0530
   29MOL   C75032166   4.202   0.017   4.698  0.1580 -0.1821  0.2301
   29MOL   N75132167   4.129   0.135   4.674 -0.1506  0.1347  0.7565
   29MOL   H75232168   5.259   7.118   5.285  0.3742  1.3291  1.9882
   29MOL   H75332169   5.309   7.053   5.445 -0.9759 -0.4242  0.1042
   29MOL   H75432170   5.128   6.862   5.381 -0.7327 -0.4403 -0.2647
   29MOL   H75532171   5.125   6.926   5.229  0.1414  1.2493 -0.7664
   29MOL   H75632172   5.017   7.137   5.305  1.8634  1.6403  2.7362
   29MOL   H75732173   4.997   7.072   5.462  1.4843 -0.2297  0.5154
   29MOL   H75832174   4.858   6.896   5.373 -3.4536  0.2141  0.3642
   29MOL   H75932175   4.865   6.942   5.212 -2.5593  0.3324  0.2084
   29MOL   H76032176   4.760   7.187   5.313 -1.7322 -0.0422  2.1157
   29MOL   H76132177   4.737   7.092   5.451 -0.5999  1.6551 -0.2173
   29MOL   H76232178   4.584   7.035   5.193  1.7959 -0.6458 -0.0201
   29MOL   H76332179   4.591   6.933   5.333  0.2542  0.5844  0.1875
   29MOL   H76432180   4.539   7.155   5.452  3.4365 -0.0587 -1.9551
   29MOL   H76532181   4.499   7.209   5.288  1.8388  0.3370 -1.1237
   29MOL   H76632182   4.362   6.967   5.434  1.1903 -0.4937  0.9901
   29MOL   H76732183   4.290   7.130   5.424 -0.1524 -1.6103  1.4976
   29MOL   H76832184   4.211   6.962   5.255 -0.9971  0.2126 -1.5911
   29MOL   H76932185   4.368   6.947   5.196  1.6915  2.1841 -0.1465
   29MOL   H77032186   4.207   7.208   5.191  0.4823  0.1413  0.4752
   29MOL   H77132187   4.357   7.200   5.126 -0.9512 -0.0656 -4.8351
   29MOL   H77232188   4.192   7.268   4.939 -2.0036  0.7685  0.1111
   29MOL   H77332189   4.037   7.167   4.769 -0.2409 -1.2989  1.1348
   29MOL   H77432190   4.178   7.048   4.746 -1.4173  0.1229 -1.7173
   29MOL   H77532191   4.236   7.196   4.579 -1.3939 -1.0292  0.6726
   29MOL   H77632192   4.323   7.255   4.716 -0.4344 -0.7400 -0.0051
   29MOL   H77732193   4.165   7.421   4.758  0.7146  2.1680 -0.8549
   29MOL   H77832194   4.071   7.385   4.618 -0.4074 -1.2776  0.5284
   29MOL   H77932195   4.370   7.470   4.622  0.7408 -0.4390 -2.2439
   29MOL   H78032196   4.286   7.449   4.477 -2.3821 -2.9205  0.1489
   29MOL   H78132197   4.139   7.637   4.501 -0.8688 -0.8076  0.2673
   29MOL   H78232198   4.298   7.686   4.509 -0.4907 -0.0924  0.2737
   29MOL   H78332199   4.160   7.648   4.778  1.6263 -0.8479  0.4937
   29MOL   H78432200   4.298   0.039   4.744 -0.9373 -0.2847  2.6617
   29MOL   H78532201   4.140   0.177   4.582  1.0839 -1.4716  0.1604
   29MOL   C78632202   4.050   0.189   4.764  0.2947  0.0084  0.4136
   29MOL   O78732203   4.041   0.144   4.876  0.1300  0.1000 -0.0870
   29MOL   C78832204   3.970   0.313   4.722 -0.1822 -0.3593  0.3731
   29MOL   C78932205   3.822   0.289   4.734  0.3567 -0.4530 -0.5005
   29MOL   C79032206   3.765   0.218   4.608  0.1726  0.5798  0.1163
   29MOL   C79132207   3.615   0.184   4.610  0.1294 -0.2647 -0.4464
   29MOL   C79232208   3.562   0.138   4.479  0.2659  0.6593 -0.0166
   29MOL   C79332209   3.438   0.052   4.486 -0.1872  0.3944  0.2743
   29MOL   C79432210   3.423   7.671   4.348  0.3885  0.2170  0.8046
   29MOL   C79532211   3.287   7.599   4.332  0.0182 -0.2262 -0.1729
   29MOL   C79632212   3.264   7.554   4.189 -0.0138  0.2279  0.2357
   29MOL   C79732213   3.233   7.657   4.080  0.0112  0.0568 -0.3475
   29MOL   C79832214   3.224   7.594   3.945  0.2981  0.6503 -0.1784
   29MOL   O79932215   3.316   7.534   3.896 -0.0735  0.0494 -0.1952
   29MOL   N80032216   3.113   7.622   3.878 -0.8249  0.0470 -0.2070
   29MOL   C80132217   3.081   7.579   3.740  0.9081 -0.9429 -0.1902
   29MOL   C80232218   2.987   7.451   3.735 -0.3297 -0.1991  0.2961
   29MOL   C80332219   2.912   7.423   3.591  0.2268 -0.2431 -0.1994
   29MOL   C80432220   2.791   7.333   3.590 -0.2760  0.5106 -0.2142
   29MOL   C80532221   2.807   7.186   3.636 -0.5265  0.9129 -0.1671
   29MOL   C80632222   2.704   7.094   3.579 -0.6755  0.4358  0.0521
   29MOL   N80732223   2.700   6.966   3.666  0.2057 -0.2249  0.1975
   29MOL   H80832224   3.998   0.364   4.630  1.5762 -2.2573 -0.1875
   29MOL   H80932225   4.004   0.377   4.803  1.6160 -1.4112  0.4769
   29MOL   H81032226   3.802   0.232   4.825  0.8638 -0.6321 -0.4970
   29MOL   H81132227   3.779   0.389   4.731 -0.1314 -0.6717 -0.9575
   29MOL   H81232228   3.813   0.121   4.594  0.7830  0.6193  1.8696
   29MOL   H81332229   3.769   0.288   4.525  1.5404 -0.3655 -0.6386
   29MOL   H81432230   3.592   0.108   4.684 -0.5687  0.1704 -0.2121
   29MOL   H81532231   3.564   0.276   4.638  1.4545  0.3743 -0.1210
   29MOL   H81632232   3.544   0.221   4.411  0.8241  0.4088 -0.4697
   29MOL   H81732233   3.640   0.081   4.429  1.3759  1.7401  0.4368
   29MOL   H81832234   3.447   7.676   4.571  1.1109  1.2679  0.8558
   29MOL   H81932235   3.349   0.113   4.495 -1.3762 -0.8216 -2.5388
   29MOL   H82032236   3.449   0.041   4.262  1.2805  0.7177  1.4143
   29MOL   H82132237   3.500   7.597   4.325 -1.0443 -0.5228 -1.7889
   29MOL   H82232238   3.290   7.515   4.402 -3.5310 -0.1333  0.2089
   29MOL   H82332239   3.199   7.657   4.361 -0.9822 -0.9974 -1.5931
   29MOL   H82432240   3.176   7.489   4.194 -0.5986  0.8986 -1.1918
   29MOL   H82532241   3.346   7.490   4.156 -0.1847  0.1261  0.0069
   29MOL   H82632242   3.149   0.029   4.104  0.7307  0.7222  0.4595
   29MOL   H82732243   3.319   0.033   4.077 -0.1137  0.1931 -0.8401
   29MOL   H82832244   3.038   7.666   3.930 -1.9506 -0.0817 -1.7155
   29MOL   H82932245   3.175   7.547   3.695 -0.2477 -3.5470 -0.8453
   29MOL   H83032246   3.042   7.665   3.686  3.0326  1.0830  1.4036
   29MOL   H83132247   2.911   7.464   3.812 -0.1222  0.0944  0.4492
   29MOL   H83232248   3.040   7.362   3.768  0.5234  0.1422 -0.1535
   29MOL   H83332249   2.892   7.523   3.553  0.5492  0.0634  0.4191
   29MOL   H83432250   2.987   7.382   3.523 -1.1169 -1.5155 -0.9485
   29MOL   H83532251   2.760   7.330   3.485 -1.9016 -1.7182  0.2665
   29MOL   H83632252   2.716   7.386   3.649 -1.3809 -1.8481  0.5926
   29MOL   H83732253   2.801   7.186   3.745 -1.3763 -0.1940 -0.2045
   29MOL   H83832254   2.904   7.148   3.606  0.3695  1.3718  2.0709
   29MOL   H83932255   2.740   7.068   3.480  1.0589 -0.8574  1.0001
   29MOL   H84032256   2.605   7.139   3.573  0.7670  3.6237 -0.5046
   29MOL   H84132257   2.659   6.980   3.758  1.9861  5.1783  0.3971
   29MOL   C84232258   2.752   6.845   3.651 -0.0217  0.5412 -0.7560
   29MOL   O84332259   2.800   6.810   3.544 -0.5583  0.1438  0.1104
   29MOL   C84432260   2.747   6.747   3.767 -0.5590 -0.3902  0.0812
   29MOL   C84532261   2.616   6.666   3.752 -0.3638  0.7252  0.2388
   29MOL   C84632262   2.482   6.739   3.772 -0.5661  0.0160  0.1094
   29MOL   C84732263   2.364   6.650   3.797 -0.6523  0.1010 -0.7537
   29MOL   C84832264   2.240   6.721   3.848  0.0426 -0.4467  0.1220
   29MOL   C84932265   2.251   6.773   3.993 -0.9550 -0.3996  0.3339
   29MOL   C85032266   2.223   6.665   4.109  0.2962  0.0455  0.1054
   29MOL   C85132267   2.239   6.717   4.249 -0.0265 -0.6927 -0.5415
   29MOL   C85232268   2.107   6.758   4.318  0.0868 -0.3813  0.6598
   29MOL   C85332269   2.037   6.876   4.241  0.5394 -0.7311 -0.2211
   29MOL   C85432270   1.898   6.916   4.291  0.0870 -0.1050  0.3271
   29MOL   O85532271   1.848   6.865   4.397 -0.3522  0.0049  0.3473
   29MOL   N85632272   1.841   7.010   4.214 -0.0556  0.2524 -0.5891
   29MOL   C85732273   1.699   7.043   4.213 -0.3390 -0.7114  0.0976
   29MOL   C85832274   1.613   6.935   4.144  0.4621  0.3278 -0.1840
   29MOL   C85932275   1.470   6.979   4.133  0.1406  0.5326  0.3655
   29MOL   C86032276   1.382   6.867   4.077 -0.0226  0.6123  0.1567
   29MOL   C86132277   1.242   6.917   4.055  0.1108  0.2787  0.1438
   29MOL   C86232278   1.161   6.799   4.009 -0.0335 -0.0406  0.3198
   29MOL   N86332279   1.195   6.744   3.877  0.2695 -0.6986 -0.2656
   29MOL   H86432280   2.751   6.786   3.868 -0.9065  1.6167 -0.6528
   29MOL   H86532281   2.835   6.685   3.750  0.3066  0.6702  0.6111
   29MOL   H86632282   2.614   6.589   3.829 -2.9375 -0.2787 -0.7815
   29MOL   H86732283   2.609   6.609   3.660  0.4354  1.6862 -0.4305
   29MOL   H86832284   2.506   6.808   3.852  1.1900 -1.1877  0.6446
   29MOL   H86932285   2.452   6.802   3.688 -2.3460 -2.6558 -1.3275
   29MOL   H87032286   2.400   6.585   3.877 -1.3120 -1.3237 -1.5901
   29MOL   H87132287   2.342   6.587   3.710  0.7697  0.9123 -1.7203
   29MOL   H87232288   2.216   6.798   3.774 -0.5885 -0.6142  0.1467
   29MOL   H87332289   2.149   6.662   3.852 -0.8818  0.9169 -0.2182
   29MOL   H87432290   2.339   6.834   4.013 -1.7796  1.1313 -0.6012
   29MOL   H87532291   2.169   6.845   3.999  1.3650  2.2669  1.3681
   29MOL   H87632292   2.121   6.628   4.096  0.6273 -0.3831 -1.3301
   29MOL   H87732293   2.289   6.581   4.090 -0.7120 -0.7839  0.2482
   29MOL   H87832294   2.310   6.799   4.248  1.6584 -2.1193 -1.2141
   29MOL   H87932295   2.284   6.645   4.317 -0.1915 -0.3330 -0.0481
   29MOL   H88032296   2.139   6.798   4.414 -0.8760  1.7634  0.1146
   29MOL   H88132297   2.045   6.670   4.336 -1.6710  0.2827 -1.8011
   29MOL   H88232298   2.103   6.963   4.236  1.3714 -1.4092 -1.1502
   29MOL   H88332299   2.012   6.844   4.140  0.1081  1.3946 -0.8295
   29MOL   H88432300   1.884   7.055   4.135 -3.0631  0.5302 -2.1112
   29MOL   H88532301   1.692   7.139   4.162 -0.3085 -0.6685  0.1743
   29MOL   H88632302   1.654   7.052   4.312 -3.5802  0.4692 -1.4145
   29MOL   H88732303   1.616   6.842   4.201  0.8720 -0.3759 -1.3177
   29MOL   H88832304   1.652   6.918   4.044  1.3349  0.1583  0.1822
   29MOL   H88932305   1.455   7.072   4.079  1.5101  0.9318  0.6376
   29MOL   H89032306   1.429   7.008   4.230 -2.4190 -0.5720 -0.3437
   29MOL   H89132307   1.385   6.779   4.141 -1.1622 -0.6659 -1.5014
   29MOL   H89232308   1.427   6.845   3.980 -0.6485 -0.0533  0.0174
   29MOL   H89332309   1.200   6.957   4.147  0.8763 -2.4308  1.7285
   29MOL   H89432310   1.248   6.992   3.976  0.0287 -1.4348 -1.4964
   29MOL   H89532311   1.174   6.725   4.088 -1.6636 -0.8710 -0.1547
   29MOL   H89632312   1.060   6.841   4.008  0.3334  0.8614  0.6875
   29MOL   H89732313   1.258   6.797   3.818  1.7304 -2.6292 -0.4850
   29MOL   C89832314   1.133   6.636   3.827 -0.1519 -0.5358  0.6073
   29MOL   O89932315   1.047   6.576   3.890  0.7017  0.5745  0.1373
   29MOL   C90032316   1.158   6.586   3.686 -1.0331  0.7715  0.3561
   29MOL   C90132317   1.031   6.592   3.600  0.7006  0.3152  0.3515
   29MOL   C90232318   0.999   6.729   3.546  0.1811  0.4796  0.1449
   29MOL   C90332319   1.096   6.776   3.434 -0.6034 -0.4330  0.4065
   29MOL   C90432320   1.053   6.899   3.361  0.2203 -0.2420  0.6452
   29MOL   C90532321   1.151   6.952   3.255 -0.0188 -0.6893  0.7230
   29MOL   C90632322   1.094   7.066   3.158  0.0929 -0.6267 -0.4646
   29MOL   C90732323   1.188   7.111   3.049  0.2338  0.2274  0.3746
   29MOL   C90832324   1.320   7.180   3.098  0.0580 -0.2569 -0.7729
   29MOL   C90932325   1.307   7.314   3.181 -0.0735  0.2450 -0.3680
   29MOL   C91032326   1.225   7.417   3.098 -0.0474  0.1559 -1.0966
   29MOL   O91132327   1.270   7.470   3.002  0.0794 -0.4769 -0.2100
   29MOL   N91232328   1.106   7.447   3.149 -0.0150  0.0689  0.4405
   29MOL   C91332329   1.009   7.527   3.074 -0.4142 -0.3390 -0.2674
   29MOL   C91432330   0.904   7.597   3.167 -0.3492 -0.1348  0.2606
   29MOL   C91532331   0.785   7.657   3.090 -1.6017  0.1479 -1.1344
   29MOL   C91632332   0.672   0.032   3.177 -0.6429  0.4017  0.0987
   29MOL   C91732333   0.557   0.084   3.091  0.2176  0.2416  0.4889
   29MOL   C91832334   0.454   0.163   3.173  0.4048 -0.2002 -0.0825
   29MOL   N91932335   0.358   0.227   3.077 -0.1480  0.2740 -0.3164
   29MOL   H92032336   1.250   6.625   3.644 -0.1209 -2.0396 -0.3798
   29MOL   H92132337   1.192   6.482   3.693  2.7907  2.0160  1.6007
   29MOL   H92232338   0.945   6.544   3.647 -1.3045  2.5757 -0.8611
   29MOL   H92332339   1.046   6.534   3.509 -1.6299  0.4263 -0.1296
   29MOL   H92432340   0.996   6.809   3.620 -0.5629 -0.3544  1.0159
   29MOL   H92532341   0.902   6.719   3.498  0.7557 -0.7628 -0.7961
   29MOL   H92632342   1.200   6.792   3.463  0.4295 -0.3634 -3.1060
   29MOL   H92732343   1.099   6.693   3.363 -1.6631  0.6016 -0.8786
   29MOL   H92832344   1.042   6.970   3.443  0.7123 -1.8331  2.1195
   29MOL   H92932345   0.951   6.880   3.327 -0.1393  0.2718  1.4296
   29MOL   H93032346   1.238   6.989   3.308  1.5700 -0.4249 -1.9469
   29MOL   H93132347   1.179   6.866   3.193  0.3360  1.2086 -1.8584
   29MOL   H93232348   1.040   7.144   3.213  0.5005 -0.7736  0.1492
   29MOL   H93332349   1.009   7.020   3.107 -1.7314  0.8481  1.1409
   29MOL   H93432350   1.129   7.182   2.991 -0.5782 -0.6123  0.1719
   29MOL   H93532351   1.212   7.028   2.983  0.0937  0.1281  0.4483
   29MOL   H93632352   1.370   7.106   3.160 -2.0550 -0.6215  0.5523
   29MOL   H93732353   1.395   7.196   3.020  2.1764 -2.3953  0.7681
   29MOL   H93832354   1.266   7.299   3.280  1.3137 -1.2001  0.0062
   29MOL   H93932355   1.409   7.350   3.195 -0.5985  1.6402 -0.0347
   29MOL   H94032356   1.079   7.402   3.235  2.8275  0.0555  1.3538
   29MOL   H94132357   0.956   7.457   3.008 -0.4812  2.1848 -2.9933
   29MOL   H94232358   1.068   7.601   3.020 -3.5802  1.6993 -1.0733
   29MOL   H94332359   0.876   7.526   3.245  0.7459 -1.4833 -0.5632
   29MOL   H94432360   0.939   7.690   3.211 -1.4788  0.8805 -0.9227
   29MOL   H94532361   0.838   0.039   3.029  0.0547 -0.4401 -0.4498
   29MOL   H94632362   0.745   7.581   3.024 -1.1086 -0.9298 -0.2098
   29MOL   H94732363   0.713   0.107   3.246 -0.0763  0.2561 -0.0797
   29MOL   H94832364   0.625   7.642   3.232 -1.8495  0.4608 -0.8441
   29MOL   H94932365   0.597   0.157   3.021  0.1500 -1.6211 -1.5430
   29MOL   H95032366   0.516   0.004   3.030 -1.2067  2.2770 -1.3153
   29MOL   H95132367   0.503   0.227   3.247  0.9629 -0.8086  0.0704
   29MOL   H95232368   0.398   0.087   3.227 -0.3351 -0.4108 -1.1319
   29MOL   H95332369   0.359   0.188   2.984  1.0924 -0.7042  0.0885
   29MOL   C95432370   0.258   0.318   3.105  0.1196  0.9972  0.9337
   29MOL   O95532371   0.239   0.370   3.219  0.1931 -0.2234  0.1772
   29MOL   C95632372   0.159   0.333   2.993 -0.3390  0.0430  0.2758
   29MOL   C95732373   0.156   0.479   2.935 -0.4758  0.0605 -0.1204
   29MOL   C95832374   0.073   0.579   3.023  0.0593 -0.0188 -0.0446
   29MOL   C95932375   0.008   0.679   2.933  0.4817 -0.7017 -0.4558
   29MOL   C96032376   7.651   0.798   3.009  0.4769  0.2825  0.7726
   29MOL   C96132377   7.563   0.898   2.929  0.4996 -0.2757  0.4287
   29MOL   C96232378   7.570   1.026   3.013  0.2847 -0.8233  0.1291
   29MOL   C96332379   7.480   1.143   2.965  0.0543  0.4524 -0.2402
   29MOL   C96432380   7.515   1.204   2.831 -0.2893 -0.3541  0.6575
   29MOL   C96532381   7.403   1.256   2.743  0.2713 -0.2189  0.3137
   29MOL   C96632382   7.314   1.156   2.676  0.0162  0.3686  0.6273
   29MOL   O96732383   7.213   1.114   2.730 -0.2268  0.0636 -0.3607
   29MOL   N96832384   7.349   1.110   2.558 -0.7927 -0.2006 -0.0472
   29MOL   C96932385   7.313   0.976   2.507  1.5234 -0.2305 -0.1476
   29MOL   C97032386   7.417   0.869   2.543  0.2423  0.2481  0.0548
   29MOL   C97132387   7.404   0.734   2.476  0.0250 -0.1177  0.4158
   29MOL   C97232388   7.407   0.740   2.322  0.3603  0.3998 -0.2221
   29MOL   C97332389   7.401   0.593   2.270 -0.0085 -0.1845 -0.3069
   29MOL   C97432390   7.540   0.533   2.268 -0.1245 -0.0323  0.1450
   29MOL   N97532391   7.532   0.385   2.256  1.0473  0.1769  0.4884
   29MOL   H97632392   0.191   0.275   2.906 -0.1397  0.2377  0.2188
   29MOL   H97732393   0.058   0.304   3.022 -0.7073 -0.2233 -1.2354
   29MOL   H97832394   0.121   0.487   2.832  0.5696 -0.1633 -0.5029
   29MOL   H97932395   0.259   0.513   2.932 -1.3751  2.8920 -0.1665
   29MOL   H98032396   0.002   0.520   3.080 -0.0971 -0.5554 -0.7822
   29MOL   H98132397   0.138   0.631   3.093 -0.9341 -0.2594  1.0677
   29MOL   H98232398   0.070   0.706   2.848 -1.3381  0.1315 -1.5327
   29MOL   H98332399   7.605   0.642   2.892  0.5867 -0.1704 -1.1856
   29MOL   H98432400   7.607   0.771   3.105  1.7376  2.5214  2.0240
   29MOL   H98532401   0.046   0.862   3.030  0.8189  0.1856 -0.3307
   29MOL   H98632402   7.602   0.913   2.829 -1.6082  3.1416  0.0374
   29MOL   H98732403   7.465   0.852   2.916  1.7540 -2.6423 -1.0286
   29MOL   H98832404   7.549   1.006   3.118 -0.8815  0.5643  0.1816
   29MOL   H98932405   7.670   1.071   3.009  0.8102 -1.8531  1.3047
   29MOL   H99032406   7.383   1.094   2.958  0.8688 -1.0023 -1.8154
   29MOL   H99132407   7.477   1.216   3.046 -1.6438 -0.3793  0.4625
   29MOL   H99232408   7.555   1.114   2.784  2.7172  0.6850  1.0871
   29MOL   H99332409   7.592   1.281   2.845 -0.0503 -0.0862 -1.7748
   29MOL   H99432410   7.347   1.331   2.800  0.1120 -0.4093  0.4078
   29MOL   H99532411   7.445   1.321   2.666  0.3042  0.6887  1.0906
   29MOL   H99632412   7.437   1.144   2.521  0.6131 -1.6894  1.7673
   29MOL   H99732413   7.319   0.987   2.399  0.4084 -2.1546 -0.4271
   29MOL   H99832414   7.214   0.935   2.529  0.2146  3.0112  0.3039
   29MOL   H99932415   7.418   0.848   2.650 -0.3480  1.4014  0.2972
   29MOL     H132416   7.515   0.912   2.523 -0.4715  1.5980 -0.6446
   29MOL     H232417   7.320   0.685   2.525  1.2761 -1.2525  1.4614
   29MOL     H332418   7.485   0.670   2.511  1.4329  0.5453 -1.5412
   29MOL     H432419   7.322   0.800   2.288  0.2552 -0.9490 -2.4095
   29MOL     H532420   7.495   0.794   2.286 -0.0475  1.4321  0.3043
   29MOL     H632421   7.364   0.594   2.167  0.4844  0.6261 -0.4766
   29MOL     H732422   7.331   0.533   2.329 -0.9805  2.3553  1.1790
   29MOL     H832423   7.608   0.574   2.195  0.0940 -0.5158  0.0774
   29MOL     H932424   7.580   0.540   2.369  0.0311  1.9677 -0.0370
   29MOL    H1032425   7.516   0.347   2.164 -0.2653  0.5094  0.5673
   29MOL    C1132426   7.532   0.302   2.360 -0.1485 -0.3168 -0.6482
   29MOL    O1232427   7.561   0.331   2.473  0.2252 -0.4943  0.2671
   29MOL    C1332428   7.483   0.160   2.342 -0.3763  0.5612 -0.3414
   29MOL    C1432429   7.472   0.073   2.470 -0.3812  0.1192 -0.4131
   29MOL    C1532430   7.423   7.621   2.436 -0.0836 -0.2529  0.3597
   29MOL    C1632431   7.420   7.547   2.568 -0.7944  0.4889 -0.1095
   29MOL    C1732432   7.359   7.407   2.560  0.0607  0.4994  0.0487
   29MOL    C1832433   7.375   7.328   2.692  0.3314  0.4923 -0.1153
   29MOL    C1932434   7.320   7.409   2.814 -0.2513  0.0979 -0.1331
   29MOL    C2032435   7.341   7.347   2.955  0.0918  0.0420 -0.3587
   29MOL    C2132436   7.273   7.423   3.074 -0.8725  0.1724  1.0078
   29MOL    C2232437   7.362   7.533   3.137  0.0399  0.3729  0.1447
   29MOL    C2332438   7.276   7.633   3.214 -1.0562 -0.0676  0.2742
   29MOL    O2432439   7.178   7.599   3.276 -0.5475  0.6047 -0.1066
   29MOL    N2532440   7.321   0.065   3.203 -0.0290  0.7288  0.4631
   29MOL    C2632441   7.257   0.182   3.271 -0.0434  0.2370  0.1490
   29MOL    C2732442   7.313   0.319   3.230 -0.2088 -0.2990  0.0544
   29MOL    C2832443   7.201   0.429   3.204 -0.2037  0.0183 -0.3257
   29MOL    C2932444   7.105   0.451   3.322  0.0182 -0.3840  0.1355
   29MOL    C3032445   6.992   0.555   3.276  0.5098  0.7419  0.3668
   29MOL    C3132446   6.883   0.502   3.179 -0.4094  0.3114  0.0207
   29MOL    N3232447   6.763   0.584   3.161  0.3870  0.9040  0.3952
   29MOL    H3332448   7.552   0.114   2.271 -0.6726 -0.2608 -0.0942
   29MOL    H3432449   7.384   0.164   2.298 -0.8039 -1.8440  0.3296
   29MOL    H3532450   7.400   0.125   2.533  0.7306 -0.9320  1.7668
   29MOL    H3632451   7.568   0.067   2.521 -0.9598 -0.7012  0.6026
   29MOL    H3732452   7.487   7.579   2.359  0.8907 -0.9298  1.5038
   29MOL    H3832453   7.324   7.626   2.391  0.9644  2.1894 -1.8327
   29MOL    H3932454   7.517   7.545   2.617 -1.7572  0.6413  1.8354
   29MOL    H4032455   7.361   7.608   2.636 -0.1164 -0.7197  1.5790
   29MOL    H4132456   7.254   7.413   2.532 -0.9553  3.1444  4.0221
   29MOL    H4232457   7.398   7.343   2.481 -0.0221  0.8815 -0.3023
   29MOL    H4332458   7.335   7.227   2.692  1.9016 -0.1556  1.2437
   29MOL    H4432459   7.481   7.313   2.716  0.5045  2.9679  0.8124
   29MOL    H4532460   7.348   7.514   2.822 -1.2541  0.4273 -0.7506
   29MOL    H4632461   7.214   7.417   2.787  0.6110  0.5270 -3.6327
   29MOL    H4732462   7.300   7.246   2.951  0.5408 -0.1346 -0.5622
   29MOL    H4832463   7.447   7.354   2.978 -0.4029  0.6567  1.8207
   29MOL    H4932464   7.244   7.346   3.145  0.2007  0.1051  1.3899
   29MOL    H5032465   7.177   7.451   3.032 -1.0703 -1.3777  0.4364
   29MOL    H5132466   7.445   7.498   3.198  0.6471  1.0930 -0.2648
   29MOL    H5232467   7.402   7.575   3.045  0.7730 -0.1799  0.2062
   29MOL    H5332468   7.403   0.068   3.143  0.0150  1.7235  0.5622
   29MOL    H5432469   7.265   0.176   3.379 -2.0126 -0.0948  0.2895
   29MOL    H5532470   7.150   0.178   3.253 -0.0938  3.4527 -0.5432
   29MOL    H5632471   7.367   0.318   3.135  0.5844 -0.1716  0.5013
   29MOL    H5732472   7.389   0.360   3.296 -1.8524  3.5961 -0.3043
   29MOL    H5832473   7.142   0.397   3.118 -0.4604  0.9677 -0.5112
   29MOL    H5932474   7.252   0.524   3.189 -1.4692  0.7779  0.0809
   29MOL    H6032475   7.164   0.484   3.407 -0.8415 -0.1969  0.6572
   29MOL    H6132476   7.048   0.362   3.347 -2.6184  1.2777  0.1894
   29MOL    H6232477   7.030   0.649   3.234  1.5111  0.5742  0.8893
   29MOL    H6332478   6.923   0.577   3.357 -0.2352  1.2372 -0.3961
   29MOL    H6432479   6.855   0.402   3.212 -0.5447  0.3102 -0.0966
   29MOL    H6532480   6.920   0.494   3.077  0.7434 -1.1958  0.5549
   29MOL    H6632481   6.786   0.654   3.092 -0.8717  1.1710  0.2425
   29MOL    C6732482   6.638   0.556   3.204 -0.1971 -1.0151 -0.0923
   29MOL    O6832483   6.610   0.461   3.276 -0.2712 -0.5912  0.0108
   29MOL    C6932484   6.542   0.668   3.181  0.2888 -0.0756  0.3287
   29MOL    C7032485   6.519   0.759   3.302  0.9400 -1.0079  0.0369
   29MOL    C7132486   6.450   0.889   3.259 -0.1231  0.5614 -0.8149
   29MOL    C7232487   6.429   0.973   3.382 -0.4101  0.9014 -0.2485
   29MOL    C7332488   6.314   1.076   3.364  0.3098 -0.6437  1.1513
   29MOL    C7432489   6.340   1.179   3.247 -0.8122  0.3738 -0.7575
   29MOL    C7532490   6.220   1.260   3.207  0.2965  0.5622  0.3631
   29MOL    C7632491   6.102   1.188   3.140 -1.0256 -0.4539  0.2383
   29MOL    C7732492   6.013   1.291   3.070  0.9760  0.3972 -0.1437
   29MOL    C7832493   5.900   1.217   2.989  0.3478  0.3757  0.3992
   29MOL    C7932494   5.826   1.310   2.893 -0.6164  0.9339 -0.8079
   29MOL    O8032495   5.823   1.432   2.907 -0.1475 -0.1432 -0.1277
   29MOL    N8132496   5.783   1.258   2.781 -0.5870  0.1375 -0.1242
   29MOL    C8232497   5.712   1.331   2.670  0.0802  0.3508  0.0578
   29MOL    C8332498   5.681   1.238   2.548 -0.7039  0.1664  0.1994
   29MOL    C8432499   5.649   1.333   2.429  0.2394 -0.4408 -0.6998
   29MOL    C8532500   5.649   1.254   2.300 -0.2930  0.4044  0.1759
   29MOL    C8632501   5.600   1.342   2.187 -0.6290  0.3188 -0.5559
   29MOL    C8732502   5.580   1.266   2.057 -0.2590 -0.8670 -0.0563
   29MOL    N8832503   5.527   1.359   1.968 -0.3639 -0.7993 -0.1342
   29MOL    H8932504   6.453   0.610   3.155  0.1299  0.5243 -0.4879
   29MOL    H9032505   6.571   0.727   3.094 -1.9389  0.5146 -0.0706
   29MOL    H9132506   6.461   0.702   3.375  0.8062 -2.1111 -0.9007
   29MOL    H9232507   6.614   0.781   3.351 -0.7630  0.3199  2.8519
   29MOL    H9332508   6.498   0.953   3.185 -0.2284  1.5535 -0.0303
   29MOL    H9432509   6.354   0.852   3.223 -1.3004  2.7175 -0.0228
   29MOL    H9532510   6.397   0.903   3.459  1.3285  1.7620  1.2992
   29MOL    H9632511   6.521   1.021   3.417  1.1580 -1.2627 -1.2736
   29MOL    H9732512   6.223   1.022   3.336  1.7870 -1.4306 -2.3804
   29MOL    H9832513   6.288   1.129   3.455  1.3965 -1.7346  2.1173
   29MOL    H9932514   6.423   1.244   3.276  0.5341 -0.2047 -3.1443
   29MOL   H10032515   6.361   1.124   3.155 -0.8305  0.0963 -0.5953
   29MOL   H10132516   6.254   1.342   3.143 -0.3163  0.9120  0.4804
   29MOL   H10232517   6.176   1.315   3.290 -0.5947 -0.0423  0.3030
   29MOL   H10332518   6.140   1.117   3.066  1.4622  0.4190  0.6121
   29MOL   H10432519   6.043   1.124   3.206 -3.9594  0.9055 -0.9881
   29MOL   H10532520   6.064   1.354   2.997  2.3258  0.2679  0.6547
   29MOL   H10632521   5.970   1.354   3.147  0.9689 -0.8393  0.8843
   29MOL   H10732522   5.954   1.143   2.929  1.0985  1.0761  0.1922
   29MOL   H10832523   5.830   1.170   3.058  0.2762  2.2710  1.6613
   29MOL   H10932524   5.799   1.161   2.761  1.0280  0.6296 -1.2806
   29MOL   H11032525   5.780   1.409   2.637  2.3099 -1.2580  0.7137
   29MOL   H11132526   5.618   1.371   2.708 -0.5051  0.5270 -1.5443
   29MOL   H11232527   5.604   1.168   2.581 -0.1340 -0.6631 -0.2352
   29MOL   H11332528   5.770   1.189   2.510  0.1167  2.5025 -0.9684
   29MOL   H11432529   5.714   1.421   2.428  1.2439 -1.1668  0.2172
   29MOL   H11532530   5.556   1.387   2.450  0.4385  0.2834 -1.6368
   29MOL   H11632531   5.747   1.210   2.280 -0.5316  0.2308 -0.6598
   29MOL   H11732532   5.581   1.169   2.301 -0.5480  0.4884 -3.4266
   29MOL   H11832533   5.511   1.396   2.220 -1.3660 -1.3730  0.3353
   29MOL   H11932534   5.668   1.422   2.160  1.4972 -1.1426  0.3764
   29MOL   H12032535   5.670   1.220   2.017 -0.1702  0.0042 -0.8994
   29MOL   H12132536   5.498   1.197   2.078 -1.5914  0.1039 -1.8736
   29MOL   H12232537   5.606   1.387   1.911 -1.3785  0.1148 -1.1155
   29MOL   H12332538   5.502   1.448   2.009 -2.1912 -0.9687 -0.8145
   30MOL     C132539   7.506   2.967   7.430  0.4367  0.1950  0.0758
   30MOL     O232540   7.571   2.918   7.336  0.4642 -0.8332 -0.3355
   30MOL     C332541   7.354   2.980   7.438 -0.5163 -0.0040  0.1487
   30MOL     C432542   7.278   2.948   7.304  0.2484  0.1268  0.4980
   30MOL     C532543   7.257   2.794   7.282  0.1910 -0.0530 -0.2289
   30MOL     C632544   7.177   2.762   7.152 -0.8322 -0.5607  0.4955
   30MOL     C732545   7.156   2.607   7.128  0.7028 -0.2336  0.2764
   30MOL     C832546   7.042   2.589   7.024  0.2442 -0.6412  0.4830
   30MOL     C932547   7.010   2.444   6.986 -0.4598 -0.5242 -0.3036
   30MOL    C1032548   6.944   2.372   7.104 -0.3822 -0.1891  0.1115
   30MOL    C1132549   6.867   2.247   7.048  0.3300  0.2966 -0.3293
   30MOL    C1232550   6.736   2.209   7.130  0.3631 -0.0165  0.2292
   30MOL    C1332551   6.680   2.074   7.092 -0.3037  0.4409  0.0273
   30MOL    O1432552   6.721   2.012   6.992 -0.0273  0.5595  0.3332
   30MOL    N1532553   6.581   2.031   7.175 -0.1905  0.4541 -0.3739
   30MOL    C1632554   6.516   1.907   7.169  0.3956 -0.4007 -0.6091
   30MOL    C1732555   6.378   1.901   7.097  0.4438  0.3699 -0.2812
   30MOL    C1832556   6.308   1.765   7.129 -0.1465 -0.1139 -0.5153
   30MOL    C1932557   6.185   1.736   7.033 -0.2050  0.2325  0.7521
   30MOL    C2032558   6.077   1.849   7.034 -0.4897  0.0578 -0.5679
   30MOL    C2132559   5.948   1.820   6.962 -0.2934 -0.1494 -0.0191
   30MOL    N2232560   5.876   1.956   6.956 -0.1464  0.4347 -0.1888
   30MOL    H2332561   7.333   3.082   7.471 -2.9064 -0.2780 -0.3613
   30MOL    H2432562   7.327   2.912   7.519 -0.1346  0.5905  0.7824
   30MOL    H2532563   7.323   3.000   7.220 -0.8626 -0.4383 -0.4615
   30MOL    H2632564   7.178   2.990   7.307 -0.2708 -1.0176 -0.3319
   30MOL    H2732565   7.202   2.747   7.363 -2.0892  1.4997 -0.8366
   30MOL    H2832566   7.354   2.743   7.284 -0.8064 -1.9772  1.0135
   30MOL    H2932567   7.080   2.811   7.151 -0.7026 -0.3111 -0.7563
   30MOL    H3032568   7.226   2.803   7.064  1.4342  0.9414  2.3978
   30MOL    H3132569   7.130   2.565   7.226  0.4310 -1.4697 -0.3228
   30MOL    H3232570   7.242   2.548   7.095  1.9608  1.8050 -0.1545
   30MOL    H3332571   6.961   2.641   7.075  0.3679 -0.1546  0.1873
   30MOL    H3432572   7.074   2.647   6.938 -0.8642  1.6597  1.5851
   30MOL    H3532573   6.951   2.446   6.894 -1.8849 -1.4583  0.5766
   30MOL    H3632574   7.103   2.393   6.961  0.2091  0.5681 -0.0880
   30MOL    H3732575   7.009   2.333   7.183 -0.8199 -1.6535 -0.2311
   30MOL    H3832576   6.867   2.438   7.143  0.0161  1.8000 -2.3748
   30MOL    H3932577   6.934   2.163   7.031  2.2755  1.8853 -0.7184
   30MOL    H4032578   6.831   2.274   6.949 -2.5711  1.2870  0.9467
   30MOL    H4132579   6.759   2.215   7.236  1.1585 -1.4584  0.1485
   30MOL    H4232580   6.652   2.274   7.107  0.4480  0.3765  1.0192
   30MOL    H4332581   6.545   2.097   7.244  1.6425  1.5922 -0.4733
   30MOL    H4432582   6.493   1.881   7.272 -1.2822  1.7269 -0.4092
   30MOL    H4532583   6.588   1.837   7.125  0.5931 -0.0430 -0.8647
   30MOL    H4632584   6.397   1.907   6.990 -0.2211  1.1969 -0.3558
   30MOL    H4732585   6.320   1.989   7.124  0.1991  0.1265 -0.0101
   30MOL    H4832586   6.361   1.672   7.147  0.1255  0.2449  0.6001
   30MOL    H4932587   6.266   1.784   7.228  1.3113  3.2909 -0.4663
   30MOL    H5032588   6.140   1.640   7.058 -0.2931  0.4760  1.5301
   30MOL    H5132589   6.214   1.725   6.929 -1.2844  0.8536  0.3679
   30MOL    H5232590   6.058   1.855   7.142  1.0561 -2.0985 -0.1546
   30MOL    H5332591   6.117   1.941   6.991  1.2270 -0.3197  0.1574
   30MOL    H5432592   5.973   1.772   6.868  2.2009  1.4558 -0.2364
   30MOL    H5532593   5.897   1.750   7.028 -0.2528 -0.5887 -0.4517
   30MOL    H5632594   5.928   2.034   6.919  0.1592  0.2315 -0.1911
   30MOL    H5732595   7.553   3.003   7.522  0.7265 -1.2757  0.5226
   30MOL    C5832596   5.757   1.976   7.009 -0.1191  0.3854  0.8850
   30MOL    O5932597   5.697   1.887   7.068  0.2714 -0.2351 -0.2276
   30MOL    C6032598   5.691   2.108   6.986  0.3408 -0.2689  0.5758
   30MOL    C6132599   5.683   2.191   7.113  0.0959  0.0259 -0.7860
   30MOL    C6232600   5.816   2.250   7.178 -0.8234 -0.0302  0.2114
   30MOL    C6332601   5.878   2.141   7.272  0.4311  0.1830  0.2023
   30MOL    C6432602   6.008   2.186   7.338 -0.5076 -0.1251 -0.2802
   30MOL    C6532603   6.128   2.192   7.244 -0.0377  0.1599 -0.2420
   30MOL    C6632604   6.258   2.214   7.315 -0.8415 -0.5606  0.1033
   30MOL    C6732605   6.318   2.359   7.316 -0.3342 -0.2554  0.3616
   30MOL    C6832606   6.428   2.385   7.419 -0.0260  0.1085  0.2330
   30MOL    C6932607   6.491   2.530   7.408 -0.8630 -0.7420  0.2965
   30MOL    C7032608   6.567   2.573   7.281 -0.3273 -0.6324  0.8479
   30MOL    O7132609   6.610   2.488   7.208  0.5560  0.1534  0.3042
   30MOL    N7232610   6.593   2.702   7.264  0.3110  0.0478 -0.2434
   30MOL    C7332611   6.648   2.742   7.131 -0.0800 -0.0946  0.0900
   30MOL    C7432612   6.689   2.896   7.113  0.5345  0.6446  0.4701
   30MOL    C7532613   6.773   2.910   6.990 -0.1160 -0.3687 -0.0062
   30MOL    C7632614   6.824   3.052   6.962 -0.2577  0.5536  0.1159
   30MOL    C7732615   6.918   3.119   7.069  0.2530  0.4467 -0.2953
   30MOL    C7832616   6.956   3.267   7.038 -0.5522 -0.5453  0.6480
   30MOL    N7932617   7.059   3.323   7.127 -0.4307  0.2304  0.0455
   30MOL    H8032618   5.589   2.082   6.959  0.3465 -0.5470  0.8198
   30MOL    H8132619   5.756   2.147   6.907  1.0537 -2.5374 -0.0093
   30MOL    H8232620   5.608   2.269   7.096  1.3561  1.7065  1.1309
   30MOL    H8332621   5.630   2.136   7.190  0.5840  1.3767  0.5557
   30MOL    H8432622   5.801   2.342   7.236  0.5697 -0.2840  0.9855
   30MOL    H8532623   5.878   2.286   7.096  1.1238  0.0146  1.6814
   30MOL    H8632624   5.893   2.048   7.218 -2.8937  0.1307 -0.7444
   30MOL    H8732625   5.809   2.126   7.355 -1.2653  0.8940 -1.0483
   30MOL    H8832626   5.997   2.289   7.373  0.1462 -0.7701  1.8687
   30MOL    H8932627   6.031   2.132   7.429 -0.1792  0.5225  0.0281
   30MOL    H9032628   6.116   2.268   7.167  2.0728  0.5387 -0.2382
   30MOL    H9132629   6.138   2.093   7.199  0.2731 -0.6035  1.4452
   30MOL    H9232630   6.334   2.138   7.294  0.5760  0.9608 -0.3937
   30MOL    H9332631   6.244   2.188   7.420  0.5485 -2.3980 -0.1424
   30MOL    H9432632   6.354   2.377   7.214 -0.6252 -1.2246  0.0855
   30MOL    H9532633   6.238   2.431   7.336  0.9712  1.5338 -0.6797
   30MOL    H9632634   6.510   2.316   7.400 -1.3946 -1.2177 -0.9296
   30MOL    H9732635   6.393   2.366   7.521  1.2301  1.1165  0.8633
   30MOL    H9832636   6.408   2.594   7.438 -0.6838 -1.2700  1.9393
   30MOL    H9932637   6.563   2.531   7.490  0.7996  0.5913 -1.1343
   30MOL   H10032638   6.577   2.760   7.345  2.5166  0.3637 -0.0033
   30MOL   H10132639   6.593   2.719   7.040 -0.4585 -0.8136  0.4922
   30MOL   H10232640   6.749   2.701   7.134  0.1023  0.1760 -1.8273
   30MOL   H10332641   6.603   2.964   7.116  0.3638  0.4807 -0.5652
   30MOL   H10432642   6.752   2.920   7.198  0.4047 -1.5496  1.2342
   30MOL   H10532643   6.713   2.878   6.905  1.2986 -2.3935 -0.2762
   30MOL   H10632644   6.858   2.842   6.995 -0.6994 -1.0045  1.4730
   30MOL   H10732645   6.852   3.065   6.858 -2.2663  1.5230 -0.3119
   30MOL   H10832646   6.732   3.111   6.956 -0.0440  0.8566 -0.1762
   30MOL   H10932647   7.015   3.070   7.068 -0.3000 -0.8596  3.4995
   30MOL   H11032648   6.875   3.094   7.166 -2.1257 -0.2919 -1.5005
   30MOL   H11132649   6.865   3.327   7.035 -0.4286 -0.2963  1.7500
   30MOL   H11232650   6.987   3.264   6.933  1.3670 -3.6697  1.2405
   30MOL   H11332651   7.036   3.330   7.225 -3.1146  0.7569 -0.5889
   30MOL   C11432652   7.188   3.341   7.099 -0.4874  0.4539 -0.2800
   30MOL   O11532653   7.229   3.334   6.984  0.3604  0.2205  0.2005
   30MOL   C11632654   7.283   3.376   7.213 -0.1615 -0.2352  0.1958
   30MOL   C11732655   7.428   3.393   7.171  0.0957 -0.0109 -0.0695
   30MOL   C11832656   7.505   3.451   7.293 -0.3836  0.7304  0.0391
   30MOL   C11932657   7.507   3.347   7.411 -0.7130  0.0913 -0.0159
   30MOL   C12032658   7.603   3.407   7.517 -0.1056 -0.1103  0.1245
   30MOL   C12132659   7.651   3.303   7.611 -0.9324  0.1635 -0.7493
   30MOL   C12232660   0.059   3.332   0.036  0.3353  0.3897 -0.0283
   30MOL   C12332661   0.018   3.452   0.125 -0.6425  0.3972  0.2160
   30MOL   C12432662   0.120   3.466   0.241  0.5037 -0.2136  0.0092
   30MOL   C12532663   0.254   3.538   0.211 -0.2291  0.0843  0.5323
   30MOL   C12632664   0.237   3.689   0.173  0.7287 -0.5250 -0.5254
   30MOL   O12732665   0.212   3.763   0.266 -0.6082 -0.4406 -0.4424
   30MOL   N12832666   0.259   3.730   0.045 -0.3230 -0.0536 -0.3776
   30MOL   C12932667   0.223   3.862   7.690 -0.4258 -0.0761  0.2202
   30MOL   C13032668   0.350   3.943   7.653  0.4129 -0.1550 -0.3071
   30MOL   C13132669   0.320   4.092   7.605 -0.6062  0.2828  0.1911
   30MOL   C13232670   0.448   4.167   7.580 -0.2067 -0.2396 -0.0239
   30MOL   C13332671   0.425   4.305   7.532  0.4719  0.1949 -0.4461
   30MOL   C13432672   0.558   4.390   7.515 -0.0273  0.5407  0.3166
   30MOL   N13532673   0.673   4.321   7.462 -0.2501 -0.0446 -0.5423
   30MOL   H13632674   7.247   3.465   7.264 -0.8836  0.1096 -0.8933
   30MOL   H13732675   7.266   3.295   7.283  0.6691 -1.2451 -0.7571
   30MOL   H13832676   7.422   3.458   7.084  1.9322 -2.9397 -2.4925
   30MOL   H13932677   7.472   3.300   7.134 -2.2057 -0.6358 -1.3265
   30MOL   H14032678   7.602   3.468   7.247  0.3902 -2.8748  0.2412
   30MOL   H14132679   7.456   3.544   7.323 -0.4583  0.7880 -0.2657
   30MOL   H14232680   7.414   3.325   7.462 -1.7120 -3.4798 -3.1141
   30MOL   H14332681   7.544   3.252   7.374  1.3315  0.2208  1.6330
   30MOL   H14432682   0.001   3.434   7.463  0.9675  0.4790  2.1469
   30MOL   H14532683   7.566   3.495   7.570  1.4972  0.4227  0.3917
   30MOL   H14632684   0.001   3.220   7.555  2.3065  0.8177  0.5378
   30MOL   H14732685   7.570   3.260   7.670  0.6584 -0.1582  1.2719
   30MOL   H14832686   0.083   3.244   0.095  2.0552  0.4395 -0.6165
   30MOL   H14932687   0.154   3.357   7.679 -1.4709  2.2940 -2.7180
   30MOL   H15032688   7.614   3.431   0.173 -0.3109  0.0144  0.7080
   30MOL   H15132689   0.012   3.546   0.070 -0.4583 -0.0741 -0.6234
   30MOL   H15232690   0.148   3.374   0.291  1.0894  0.3060  0.6316
   30MOL   H15332691   0.077   3.524   0.323  1.2546  2.1711 -1.2445
   30MOL   H15432692   0.307   3.476   0.138 -2.1179 -1.2083  0.2190
   30MOL   H15532693   0.313   3.540   0.303 -0.7716 -1.0882  0.9063
   30MOL   H15632694   0.274   3.656   7.670  1.8638  0.2839 -0.3167
   30MOL   H15732695   0.164   3.918   0.071  1.5385 -0.3625  2.0903
   30MOL   H15832696   0.163   3.845   7.600  1.7622 -1.1429 -1.0819
   30MOL   H15932697   0.398   3.885   7.574  1.7006 -1.0854  1.1358
   30MOL   H16032698   0.409   3.949   0.052 -0.7428  0.7259  0.4006
   30MOL   H16132699   0.266   4.096   7.511  1.3095  0.6793 -0.9349
   30MOL   H16232700   0.263   4.146   7.681 -0.2467 -0.5942  1.0986
   30MOL   H16332701   0.512   4.177   7.667  1.9426  1.0989 -1.7000
   30MOL   H16432702   0.497   4.119   7.495  1.3149 -0.5403  1.0045
   30MOL   H16532703   0.365   4.360   7.604 -0.0668  0.9574 -1.4673
   30MOL   H16632704   0.371   4.303   7.437  1.6247 -1.1071 -1.0957
   30MOL   H16732705   0.553   4.483   7.458 -0.4042  1.1324  1.2864
   30MOL   H16832706   0.584   4.420   7.617  0.8199  0.2950  0.1737
   30MOL   H16932707   0.658   4.229   7.421  3.1947 -0.1128 -1.8292
   30MOL   C17032708   0.791   4.382   7.440  0.5501  0.4563 -0.7855
   30MOL   O17132709   0.815   4.496   7.484  0.3576 -0.5364  0.1676
   30MOL   C17232710   0.882   4.320   7.338  0.6148  0.0950 -0.5020
   30MOL   C17332711   0.969   4.410   7.258  0.0398 -0.2881 -0.4255
   30MOL   C17432712   1.055   4.325   7.163 -0.3253 -0.0031 -0.1705
   30MOL   C17532713   1.133   4.425   7.078 -0.7272  0.4823  0.7745
   30MOL   C17632714   1.185   4.361   6.943  0.3794 -0.2733 -0.0448
   30MOL   C17732715   1.282   4.244   6.969  0.3519 -0.4016  0.2056
   30MOL   C17832716   1.392   4.265   7.066 -0.4162 -0.1511 -0.4064
   30MOL   C17932717   1.480   4.142   7.096  0.0846 -0.1077  0.1594
   30MOL   C18032718   1.559   4.094   6.972 -0.5319  0.5757 -0.6517
   30MOL   C18132719   1.667   4.193   6.910  0.4909  0.2468 -0.1350
   30MOL   C18232720   1.787   4.223   7.000  0.0666 -0.7709 -0.1303
   30MOL   O18332721   1.807   4.342   7.023 -0.1994  0.3752 -0.0559
   30MOL   N18432722   1.865   4.118   7.037  0.4449 -0.0973  0.0415
   30MOL   C18532723   1.995   4.119   7.096 -0.0271  0.0589  0.0176
   30MOL   C18632724   2.021   3.983   7.171 -0.0115 -0.8175  0.2426
   30MOL   C18732725   1.914   3.955   7.276  0.1530  0.2915 -0.0628
   30MOL   C18832726   1.924   4.054   7.391 -0.1851  0.1910  0.2764
   30MOL   C18932727   1.800   4.038   7.481 -1.0870 -0.7032  0.3173
   30MOL   C19032728   1.800   4.129   7.595 -0.3650 -0.4895  0.2131
   30MOL   N19132729   1.917   4.099   7.678  0.5638  0.1659  0.1615
   30MOL   H19232730   0.946   4.256   7.399  0.5060 -0.5366 -1.0441
   30MOL   H19332731   0.829   4.250   7.273 -0.3514  0.9051 -0.5870
   30MOL   H19432732   1.030   4.469   7.326 -1.0264  0.4759 -0.1235
   30MOL   H19532733   0.895   4.468   7.202 -0.4831 -0.9572 -0.4467
   30MOL   H19632734   0.989   4.278   7.090 -1.6734  1.6135 -0.0316
   30MOL   H19732735   1.125   4.260   7.216 -0.1341  0.3834  0.0557
   30MOL   H19832736   1.078   4.517   7.059  0.9636  1.2921 -0.2910
   30MOL   H19932737   1.225   4.461   7.125 -0.7235 -1.4831  2.3384
   30MOL   H20032738   1.107   4.310   6.886  0.5607  0.2180 -0.7467
   30MOL   H20132739   1.235   4.440   6.888  0.2831 -0.0197  0.2324
   30MOL   H20232740   1.324   4.214   6.873  0.7589 -1.4581  0.6974
   30MOL   H20332741   1.226   4.155   7.001 -1.6292  1.6713  2.7092
   30MOL   H20432742   1.448   4.349   7.025 -1.3603  0.8065  0.2451
   30MOL   H20532743   1.348   4.284   7.163  1.1884 -0.8522  0.4758
   30MOL   H20632744   1.547   4.177   7.174  0.1248  1.0036 -0.3595
   30MOL   H20732745   1.423   4.056   7.132  0.6856  0.3844  2.3111
   30MOL   H20832746   1.483   4.080   6.895  0.3388  2.8242 -1.9537
   30MOL   H20932747   1.613   4.000   6.983 -0.0423  0.9792  0.4426
   30MOL   H21032748   1.701   4.149   6.816  0.4593  0.3068 -0.1741
   30MOL   H21132749   1.619   4.288   6.889 -1.3603 -0.7063 -0.2945
   30MOL   H21232750   1.843   4.027   7.001 -0.8888  0.5197 -0.7314
   30MOL   H21332751   2.008   4.202   7.164  0.5724 -0.6090  0.7231
   30MOL   H21432752   2.067   4.133   7.016  0.4827  0.1302  0.4857
   30MOL   H21532753   2.026   3.893   7.110 -1.5412 -0.7922  0.0608
   30MOL   H21632754   2.117   3.991   7.223  0.3689 -0.1050 -0.5659
   30MOL   H21732755   1.811   3.955   7.240 -0.6723  0.9356  2.2508
   30MOL   H21832756   1.925   3.854   7.314  1.6678  0.1601 -0.7709
   30MOL   H21932757   1.940   4.156   7.356 -3.3283  0.2605 -1.0747
   30MOL   H22032758   2.017   4.032   7.443  0.6634  3.7299  0.4379
   30MOL   H22132759   1.794   3.936   7.520  0.0045 -1.7308 -2.0900
   30MOL   H22232760   1.716   4.066   7.418 -0.1550  0.4657 -0.4207
   30MOL   H22332761   1.713   4.112   7.658  1.6772 -1.1065  2.9972
   30MOL   H22432762   1.792   4.232   7.562 -2.5992 -0.8149 -0.3060
   30MOL   H22532763   1.940   4.002   0.002 -1.9316 -0.7685 -1.5637
   30MOL   C22632764   1.976   4.184   0.070  0.2224 -0.2019  0.5209
   30MOL   O22732765   1.942   4.305   0.082 -0.2771  0.7865  0.5237
   30MOL   C22832766   2.097   4.138   0.151  0.3217  0.1747  0.4697
   30MOL   C22932767   2.224   4.138   0.060 -0.5085  0.0633 -0.4959
   30MOL   C23032768   2.352   4.142   0.148 -0.4675 -0.3183  0.4818
   30MOL   C23132769   2.478   4.146   0.057  0.0400  0.1690  0.2269
   30MOL   C23232770   2.602   4.147   0.145 -0.4911 -0.0544 -0.5419
   30MOL   C23332771   2.726   4.137   0.047 -0.1335  0.3103  0.1154
   30MOL   C23432772   2.865   4.181   0.096  0.5238  1.0420  0.4712
   30MOL   C23532773   2.940   4.092   0.197  0.3401 -0.0368  0.5324
   30MOL   C23632774   2.884   4.065   0.335  0.2210  0.3392 -0.0280
   30MOL   C23732775   2.995   4.012   0.433  0.2535 -0.3465 -0.7432
   30MOL   C23832776   2.943   4.011   0.581 -0.3866  0.2111 -0.3971
   30MOL   O23932777   2.874   4.105   0.618  0.1562  0.3252 -0.3763
   30MOL   N24032778   2.991   3.913   0.661 -0.3964 -0.7024  0.2870
   30MOL   C24132779   2.965   3.896   0.806  0.5999  0.8068  0.4730
   30MOL   C24232780   2.819   3.830   0.831  0.1379  0.4497 -0.5352
   30MOL   C24332781   2.819   3.788   0.973  0.3541  0.2208  0.0808
   30MOL   C24432782   2.819   3.911   1.073  0.2413 -0.2589  0.1745
   30MOL   C24532783   2.807   3.857   1.215  0.4583  0.6055 -0.2831
   30MOL   C24632784   2.926   3.761   1.252 -0.0908 -0.2861  0.4830
   30MOL   N24732785   3.062   3.796   1.204 -0.0826  0.2181  0.7271
   30MOL   H24832786   2.096   4.038   0.196 -1.0742 -0.7996 -1.6832
   30MOL   H24932787   2.115   4.210   0.231 -3.7566  1.2735  0.5280
   30MOL   H25032788   2.214   4.049   7.690 -1.1535  0.4966 -1.0191
   30MOL   H25132789   2.225   4.230   0.001  1.1518 -0.7729 -1.8163
   30MOL   H25232790   2.353   4.235   0.204  1.5291  1.0163 -1.7078
   30MOL   H25332791   2.362   4.050   0.206  0.2691 -0.2445  0.4685
   30MOL   H25432792   2.476   4.225   7.675  2.3701  0.8576  0.8612
   30MOL   H25532793   2.473   4.051   0.003 -2.3942  0.3717  0.0562
   30MOL   H25632794   2.606   4.059   0.210 -1.2723  1.5853  1.8023
   30MOL   H25732795   2.610   4.235   0.208 -0.6994 -0.5921  0.2508
   30MOL   H25832796   2.725   4.035   0.010  2.4833 -0.3675  1.8093
   30MOL   H25932797   2.709   4.201   7.652  1.6433  0.0494 -0.4510
   30MOL   H26032798   2.857   4.279   0.143  1.5429  0.6338  1.5028
   30MOL   H26132799   2.933   4.195   0.012 -0.1653 -2.0336 -0.6551
   30MOL   H26232800   2.973   4.001   0.147  0.0901 -0.1678  0.6092
   30MOL   H26332801   3.037   4.142   0.201 -0.1643  0.7873  3.1605
   30MOL   H26432802   2.850   4.164   0.366 -2.2366 -0.9557  1.5460
   30MOL   H26532803   2.795   4.002   0.335  1.8906 -2.1178  2.1211
   30MOL   H26632804   3.031   3.913   0.407  0.7833 -0.5526  0.7004
   30MOL   H26732805   3.080   4.079   0.430 -1.0540  1.2645 -3.8793
   30MOL   H26832806   3.056   3.845   0.624 -0.3920 -0.4610 -0.1543
   30MOL   H26932807   2.970   3.993   0.854  2.6559  1.8503 -1.7210
   30MOL   H27032808   3.045   3.834   0.847  0.2476 -1.3638 -1.9989
   30MOL   H27132809   2.806   3.743   0.767  1.5870  0.0885 -0.3449
   30MOL   H27232810   2.745   3.904   0.799  1.6831  1.6652 -1.3435
   30MOL   H27332811   2.729   3.729   0.989 -0.5324  1.8218  1.1718
   30MOL   H27432812   2.906   3.726   0.993 -0.3427 -0.5741  0.6481
   30MOL   H27532813   2.731   3.971   1.050 -1.0987 -1.6390  1.5211
   30MOL   H27632814   2.909   3.972   1.072  0.3594 -0.4342  0.1306
   30MOL   H27732815   2.712   3.810   1.244  1.1447  0.2889  1.5474
   30MOL   H27832816   2.819   3.952   1.267  1.5098  1.3294 -1.8381
   30MOL   H27932817   2.905   3.660   1.216 -1.6513 -0.4672  1.8435
   30MOL   H28032818   2.925   3.758   1.361 -1.7357  3.4245  0.6423
   30MOL   H28132819   3.081   3.747   1.117 -0.5058  0.6959  0.3624
   30MOL   C28232820   3.146   3.879   1.269  0.0366  0.2830 -0.0843
   30MOL   O28332821   3.117   3.917   1.384  0.0172 -0.3609  0.7282
   30MOL   C28432822   3.280   3.900   1.201  0.3802 -0.6166 -0.7156
   30MOL   C28532823   3.304   4.042   1.156  0.1327  0.1575 -0.5207
   30MOL   C28632824   3.204   4.083   1.046  0.1987 -0.5727  0.4907
   30MOL   C28732825   3.231   4.218   0.990  0.2177 -0.0345  0.3665
   30MOL   C28832826   3.127   4.261   0.891 -0.3676 -0.2262 -0.4688
   30MOL   C28932827   3.159   4.404   0.835 -0.0247  0.1167  0.5473
   30MOL   C29032828   3.069   4.449   0.720  0.6304 -0.2519 -0.7219
   30MOL   C29132829   3.094   4.395   0.580 -0.2636  0.7087  0.6085
   30MOL   C29232830   3.199   4.462   0.490 -0.4762  0.0503  0.7332
   30MOL   C29332831   3.200   4.433   0.331 -0.8652  0.2906 -0.2850
   30MOL   C29432832   3.100   4.521   0.262 -0.4772  0.9774 -0.0550
   30MOL   O29532833   3.000   4.569   0.318 -0.4350 -0.0590 -0.0083
   30MOL   N29632834   3.141   4.554   0.137  0.1825  0.8852  0.2672
   30MOL   C29732835   3.089   4.671   0.061 -0.1787  0.3389 -0.2800
   30MOL   C29832836   3.020   4.638   7.621 -0.3019 -0.1464  0.3021
   30MOL   C29932837   2.882   4.573   7.629 -0.2138  0.1885  0.0811
   30MOL   C30032838   2.777   4.658   0.017  0.3849 -0.2490  0.6394
   30MOL   C30132839   2.637   4.598   0.007  0.1704 -0.1983 -0.2468
   30MOL   C30232840   2.568   4.628   7.564  0.1588 -0.1584 -0.9522
   30MOL   N30332841   2.461   4.536   7.542  0.3931  0.1486  0.4032
   30MOL   H30432842   3.355   3.873   1.275 -2.1459  0.6899  2.4338
   30MOL   H30532843   3.300   3.834   1.117  0.1873 -2.0084  0.3263
   30MOL   H30632844   3.407   4.054   1.122 -0.1011 -1.6845 -1.9363
   30MOL   H30732845   3.285   4.111   1.238 -1.2621 -0.0098 -0.7013
   30MOL   H30832846   3.193   4.012   0.964  0.0427  1.6159 -1.4333
   30MOL   H30932847   3.104   4.093   1.089  0.1391 -0.5493  0.3458
   30MOL   H31032848   3.326   4.228   0.939 -0.2647 -0.2124 -0.5760
   30MOL   H31132849   3.239   4.297   1.065 -1.7602  0.9512 -0.4192
   30MOL   H31232850   3.117   4.185   0.814 -1.8597 -0.8088  0.2757
   30MOL   H31332851   3.037   4.280   0.950 -1.0338 -1.0932 -1.2100
   30MOL   H31432852   3.141   4.472   0.919 -0.7060  0.1888  0.3493
   30MOL   H31532853   3.263   4.424   0.811  0.3372 -0.6634  1.4213
   30MOL   H31632854   3.090   4.556   0.717  2.6494 -0.5630  0.8593
   30MOL   H31732855   2.966   4.421   0.740  1.2060 -1.1222  1.1356
   30MOL   H31832856   2.997   4.402   0.530 -0.8938 -0.8553  1.5505
   30MOL   H31932857   3.103   4.286   0.585 -1.0633  0.5752 -0.5368
   30MOL   H32032858   3.188   4.570   0.500 -1.6161 -0.0765  1.0082
   30MOL   H32132859   3.296   4.446   0.538 -0.4414  0.2096  0.7134
   30MOL   H32232860   3.300   4.452   0.292 -1.1707 -0.3208 -1.3645
   30MOL   H32332861   3.179   4.326   0.325 -2.4430  0.6168 -0.9112
   30MOL   H32432862   3.229   4.522   0.100  0.8925  0.2847  2.4292
   30MOL   H32532863   3.175   4.734   0.038  0.9549 -0.1805  2.3344
   30MOL   H32632864   3.022   4.728   0.124  1.3319  0.6269  1.0919
   30MOL   H32732865   3.103   4.596   7.564 -1.2265 -0.4032 -0.8602
   30MOL   H32832866   3.013   4.734   7.571  0.2259 -1.0278 -1.4876
   30MOL   H32932867   2.888   4.472   7.670 -1.6186 -1.1542 -2.8403
   30MOL   H33032868   2.855   4.555   7.525 -0.1253 -2.0116  0.4044
   30MOL   H33132869   2.802   4.656   0.123 -1.5332 -0.9898  1.1091
   30MOL   H33232870   2.775   4.763   7.680  1.6998 -0.9564 -2.2446
   30MOL   H33332871   2.578   4.633   0.091 -0.2749  1.0730 -1.0748
   30MOL   H33432872   2.643   4.490   0.015 -0.9761 -0.2440  0.0898
   30MOL   H33532873   2.531   4.730   7.574  1.3824  0.1926  0.1041
   30MOL   H33632874   2.642   4.631   7.484 -1.6025 -0.8359 -2.6425
   30MOL   H33732875   2.370   4.579   7.541 -0.4167 -1.5414  0.6998
   30MOL   C33832876   2.477   4.418   7.485  0.2893  0.4392 -0.1647
   30MOL   O33932877   2.585   4.365   7.476 -0.1103  0.1336 -0.5174
   30MOL   C34032878   2.350   4.340   7.449  0.1171  0.2829  0.1018
   30MOL   C34132879   2.288   4.397   7.321 -0.9949 -0.1585 -0.2962
   30MOL   C34232880   2.376   4.404   7.199 -0.4419  0.3415  0.8217
   30MOL   C34332881   2.308   4.442   7.069  0.3602  0.4502 -0.4060
   30MOL   C34432882   2.402   4.506   6.969 -0.1340 -0.5376  0.4556
   30MOL   C34532883   2.334   4.542   6.835  0.0932 -0.6979 -0.5150
   30MOL   C34632884   2.443   4.589   6.734  0.8577  0.1266 -0.3092
   30MOL   C34732885   2.377   4.628   6.599 -0.1776  0.4200  0.3583
   30MOL   C34832886   2.477   4.668   6.490  0.5407  0.3096  0.3054
   30MOL   C34932887   2.535   4.806   6.543 -0.1305 -0.0330 -0.4310
   30MOL   C35032888   2.601   4.884   6.428  0.3064  0.8871 -0.2642
   30MOL   O35132889   2.674   4.824   6.351  0.1435 -0.0378 -0.0781
   30MOL   N35232890   2.589   5.015   6.441 -0.7056 -0.2494 -0.1346
   30MOL   C35332891   2.663   5.106   6.359  0.0496  0.3695 -0.6321
   30MOL   C35432892   2.641   5.249   6.405  0.2389 -0.0226  0.3301
   30MOL   C35532893   2.731   5.346   6.325  0.2919 -0.1919 -0.5298
   30MOL   C35632894   2.775   5.474   6.407 -0.1480 -0.1847 -0.0580
   30MOL   C35732895   2.885   5.559   6.331  0.5787  0.4746 -0.3219
   30MOL   C35832896   2.912   5.693   6.401 -0.2489 -0.1814 -0.3228
   30MOL   N35932897   2.997   5.781   6.326 -1.0003 -0.2938 -0.0017
   30MOL   H36032898   2.279   4.336   7.532  1.4409 -0.7453  1.2231
   30MOL   H36132899   2.368   4.234   7.431 -2.6996 -0.2428  0.1393
   30MOL   H36232900   2.195   4.344   7.299 -1.1696  0.6536 -1.5782
   30MOL   H36332901   2.247   4.495   7.345  0.3023  0.8136 -2.0052
   30MOL   H36432902   2.430   4.312   7.178  0.2642  1.0151 -0.3975
   30MOL   H36532903   2.453   4.479   7.221 -0.8817  0.7145  1.1195
   30MOL   H36632904   2.251   4.358   7.030  0.1904  0.8059 -0.9261
   30MOL   H36732905   2.229   4.515   7.083  0.3680  0.2397  0.7564
   30MOL   H36832906   2.438   4.600   7.010  1.0020 -0.3871 -0.8430
   30MOL   H36932907   2.486   4.441   6.947  0.6160  1.2922 -2.4301
   30MOL   H37032908   2.285   4.458   6.785  1.9013 -1.0255 -1.7854
   30MOL   H37132909   2.275   4.632   6.852 -0.0953 -1.5676  3.8342
   30MOL   H37232910   2.488   4.679   6.777 -1.4097 -0.0490  2.5768
   30MOL   H37332911   2.516   4.508   6.746 -2.0241 -2.2268  2.3586
   30MOL   H37432912   2.325   4.540   6.560 -1.3003  1.0070  0.5124
   30MOL   H37532913   2.296   4.700   6.610  0.5819  1.3362 -0.0095
   30MOL   H37632914   2.430   4.675   6.392 -0.0871 -1.2329  0.4761
   30MOL   H37732915   2.555   4.592   6.493  0.6769  0.3535 -1.5234
   30MOL   H37832916   2.454   4.866   6.585 -1.5920 -2.7552  0.7827
   30MOL   H37932917   2.616   4.779   6.611  0.8701 -1.5607 -2.1815
   30MOL   H38032918   2.528   5.057   6.509  1.0213  1.9037  0.1519
   30MOL   H38132919   2.617   5.115   6.260 -4.2871 -0.0224  1.2387
   30MOL   H38232920   2.766   5.077   6.338  0.2391 -0.5951  1.4923
   30MOL   H38332921   2.663   5.251   6.512  0.5606  0.7803  0.2541
   30MOL   H38432922   2.535   5.273   6.399  0.1321 -0.8636 -1.4869
   30MOL   H38532923   2.824   5.298   6.294 -0.6000 -1.5224 -1.1524
   30MOL   H38632924   2.674   5.369   6.235 -1.3164  0.5493  0.6495
   30MOL   H38732925   2.690   5.539   6.429  0.4889 -0.0442  2.1541
   30MOL   H38832926   2.821   5.439   6.500 -1.0953 -0.4636  0.3124
   30MOL   H38932927   2.851   5.585   6.230 -2.3851  0.4150  0.6187
   30MOL   H39032928   2.974   5.497   6.318  0.8563  0.9193 -0.5470
   30MOL   H39132929   2.822   5.746   6.431 -0.1464  0.9234 -1.9620
   30MOL   H39232930   2.972   5.667   6.489  1.2111  0.0277 -1.2337
   30MOL   H39332931   3.013   5.756   6.230 -1.9936 -1.0203  0.0161
   30MOL   C39432932   3.032   5.902   6.362  0.2224  0.5783  0.3428
   30MOL   O39532933   3.083   5.972   6.278 -1.0128  0.1979 -0.6774
   30MOL   C39632934   3.017   5.961   6.500  0.0646  0.9439  0.6512
   30MOL   C39732935   3.141   6.038   6.538  0.0021 -0.6399  0.3867
   30MOL   C39832936   3.130   6.068   6.688 -0.0040 -0.4582 -0.6931
   30MOL   C39932937   3.244   6.153   6.740 -0.2014  0.1522  0.0557
   30MOL   C40032938   3.236   6.166   6.894  0.4090 -0.0784  0.4780
   30MOL   C40132939   3.334   6.264   6.958  0.1609  0.1495  0.4781
   30MOL   C40232940   3.293   6.336   7.085 -0.1963 -0.3645  0.6908
   30MOL   C40332941   3.405   6.424   7.140  0.6232  0.2504  0.2718
   30MOL   C40432942   3.486   6.373   7.263 -0.7527 -0.2998 -0.2077
   30MOL   C40532943   3.601   6.465   7.298 -0.0952 -0.3343  0.2592
   30MOL   C40632944   3.702   6.480   7.177 -0.4215 -0.1612  0.8302
   30MOL   O40732945   3.735   6.379   7.115  0.2113 -0.3460  0.3384
   30MOL   N40832946   3.742   6.602   7.142 -0.3809 -0.1990 -0.4764
   30MOL   C40932947   3.785   6.639   7.004 -0.0069  0.9785 -0.1530
   30MOL   C41032948   3.663   6.660   6.914 -0.6811  0.7084  0.2929
   30MOL   C41132949   3.565   6.763   6.966 -0.5348  0.0065 -0.4151
   30MOL   C41232950   3.447   6.787   6.876  0.0761 -0.1598  0.5852
   30MOL   C41332951   3.378   6.652   6.842  0.1545 -0.1409  0.0998
   30MOL   C41432952   3.277   6.691   6.743  0.1086  0.3487  0.1318
   30MOL   N41532953   3.212   6.586   6.667  0.4287  0.4763 -0.1786
   30MOL   H41632954   3.000   5.874   6.563 -1.4856  0.3513 -0.5522
   30MOL   H41732955   2.925   6.020   6.509 -1.1651 -0.8894  0.2910
   30MOL   H41832956   3.151   6.130   6.480 -0.5598 -1.5218 -1.1137
   30MOL   H41932957   3.233   5.982   6.524  0.4902 -0.1881  1.6451
   30MOL   H42032958   3.126   5.972   6.740 -1.6146  0.7555  1.4927
   30MOL   H42132959   3.043   6.118   6.730  0.2987 -1.8300  1.6892
   30MOL   H42232960   3.261   6.247   6.687 -0.5455  0.3676  0.3239
   30MOL   H42332961   3.334   6.093   6.728  1.7502  2.7459  1.1437
   30MOL   H42432962   3.134   6.194   6.919  0.7143  2.3376 -0.8495
   30MOL   H42532963   3.253   6.067   6.936 -2.7059  0.2628  2.6424
   30MOL   H42632964   3.437   6.227   6.956  0.8915  2.1219  0.6960
   30MOL   H42732965   3.346   6.345   6.886  2.5622  0.7680  1.5256
   30MOL   H42832966   3.201   6.392   7.069  1.2046  0.5633 -5.3197
   30MOL   H42932967   3.266   6.263   7.161 -0.6687 -1.1655 -0.2262
   30MOL   H43032968   3.472   6.429   7.055 -0.8610  2.4990 -0.8424
   30MOL   H43132969   3.378   6.528   7.158  1.8852  0.7235 -0.5506
   30MOL   H43232970   3.502   6.265   7.250 -0.7182 -0.1631 -1.3004
   30MOL   H43332971   3.418   6.359   7.347 -0.2852  2.0821  0.5902
   30MOL   H43432972   3.573   6.569   7.317  0.2182  0.2133 -2.1900
   30MOL   H43532973   3.650   6.429   7.389  2.0561 -0.9989 -1.1199
   30MOL   H43632974   3.739   6.678   7.209 -0.9501 -1.0681  0.5018
   30MOL   H43732975   3.847   6.568   6.949 -0.4814  1.4441 -1.2954
   30MOL   H43832976   3.850   6.726   7.010  3.0604 -1.2444 -0.3145
   30MOL   H43932977   3.625   6.560   6.893  1.7961 -0.8287  2.7615
   30MOL   H44032978   3.701   6.704   6.821  1.3245  2.6132  1.9761
   30MOL   H44132979   3.525   6.725   7.060 -4.2445  0.4108 -1.7483
   30MOL   H44232980   3.616   6.849   7.010 -1.7129  1.4633 -1.8287
   30MOL   H44332981   3.373   6.855   6.920 -0.5629 -0.3253 -0.2127
   30MOL   H44432982   3.492   6.842   6.793 -0.2339  0.9021  1.1101
   30MOL   H44532983   3.452   6.593   6.788 -0.3289 -0.2405 -0.4561
   30MOL   H44632984   3.334   6.606   6.931 -0.4492  2.2380  1.0512
   30MOL   H44732985   3.202   6.757   6.788 -0.1607 -0.0652  0.2864
   30MOL   H44832986   3.327   6.752   6.668  1.1403  1.2050  1.4940
   30MOL   H44932987   3.244   6.555   6.577 -2.1580  0.2054 -1.0510
   30MOL   C45032988   3.104   6.519   6.710  0.1345  0.0346 -0.1967
   30MOL   O45132989   3.050   6.554   6.816 -0.0833  0.4526 -0.3989
   30MOL   C45232990   3.045   6.408   6.615 -0.2437 -0.3968  0.4638
   30MOL   C45332991   2.924   6.465   6.546  0.0931 -0.1902  0.6051
   30MOL   C45432992   2.951   6.546   6.418  0.4001  1.0445  0.5870
   30MOL   C45532993   2.828   6.622   6.377 -0.6336 -0.3374 -0.5811
   30MOL   C45632994   2.846   6.683   6.236  0.5813  0.2728  0.2737
   30MOL   C45732995   2.724   6.756   6.174  0.2588 -0.0497  0.3696
   30MOL   C45832996   2.738   6.805   6.025  0.3298 -0.3606 -0.9662
   30MOL   C45932997   2.608   6.863   5.976  0.3064  0.1219 -0.0870
   30MOL   C46032998   2.609   6.890   5.832  0.1492 -0.1321  0.3221
   30MOL   C46132999   2.464   6.908   5.771  0.3999  0.0125 -0.0703
   30MOL   C46233000   2.465   6.938   5.620 -0.2361  0.3620 -1.0507
   30MOL   O46333001   2.550   6.889   5.549  0.5392 -0.4088  0.2105
   30MOL   N46433002   2.381   7.032   5.576  0.0017  0.5679  0.3372
   30MOL   C46533003   2.358   7.063   5.435 -0.0904  0.3652 -0.5598
   30MOL   C46633004   2.260   7.181   5.418 -0.0824 -0.5892 -0.3158
   30MOL   C46733005   2.316   7.310   5.463 -0.3685 -0.5717  0.5089
   30MOL   C46833006   2.442   7.357   5.386  0.2660  0.4823  0.2103
   30MOL   C46933007   2.464   7.516   5.387  0.5724  0.1250 -0.0222
   30MOL   C47033008   2.476   7.577   5.529  0.0001 -0.6387 -0.1410
   30MOL   N47133009   2.569   7.513   5.619  0.1556  0.1118 -0.0376
   30MOL   H47233010   3.117   6.384   6.538  0.7647 -0.8140  1.5144
   30MOL   H47333011   3.015   6.318   6.669 -0.7659  0.6683  2.0120
   30MOL   H47433012   2.887   6.539   6.617  0.2407 -0.0715  0.5577
   30MOL   H47533013   2.838   6.403   6.523  0.6126 -0.6640 -0.0965
   30MOL   H47633014   2.984   6.492   6.329  1.3868  0.2353  1.4296
   30MOL   H47733015   3.030   6.618   6.439  0.8498  0.5096  0.7328
   30MOL   H47833016   2.814   6.706   6.446 -1.2048 -0.1539 -0.9125
   30MOL   H47933017   2.736   6.564   6.376 -0.2991 -0.8985  0.5549
   30MOL   H48033018   2.855   6.602   6.164 -3.0998  0.9639 -1.0870
   30MOL   H48133019   2.935   6.744   6.224  2.0964 -1.3431  2.7691
   30MOL   H48233020   2.712   6.840   6.242  0.2113 -0.6908  1.1532
   30MOL   H48333021   2.637   6.692   6.187  0.9503 -1.0137  0.2975
   30MOL   H48433022   2.822   6.874   6.018  1.9622 -2.3973 -2.0654
   30MOL   H48533023   2.768   6.726   5.955  1.7946 -1.9982  1.4358
   30MOL   H48633024   2.534   6.783   5.984 -0.6467  0.8845 -1.1263
   30MOL   H48733025   2.578   6.949   6.036 -0.1793  0.4948 -0.8601
   30MOL   H48833026   2.649   6.804   5.779  0.5476 -0.5058  1.2187
   30MOL   H48933027   2.667   6.982   5.820 -1.5378  1.3057  2.6793
   30MOL   H49033028   2.419   6.809   5.783 -1.1028  1.0494  3.1054
   30MOL   H49133029   2.405   6.980   5.827  0.2907  1.0281 -1.4584
   30MOL   H49233030   2.324   7.084   5.642  0.6131  2.2152 -0.4168
   30MOL   H49333031   2.308   6.975   5.394  2.3310  0.0092 -2.8566
   30MOL   H49433032   2.457   7.081   5.395  0.4988 -0.8841  0.2975
   30MOL   H49533033   2.243   7.187   5.310 -1.5784 -0.3975 -0.0825
   30MOL   H49633034   2.163   7.160   5.464 -0.3067  3.3254  1.1569
   30MOL   H49733035   2.345   7.315   5.569  1.7237 -1.8675  0.0325
   30MOL   H49833036   2.242   7.388   5.449 -1.2303 -1.3031  0.9249
   30MOL   H49933037   2.442   7.317   5.284  0.7235  2.9208 -0.7866
   30MOL   H50033038   2.530   7.311   5.431  0.9630  1.2964 -0.3010
   30MOL   H50133039   2.568   7.534   5.360 -0.1635  1.9504 -1.7411
   30MOL   H50233040   2.402   7.575   5.321 -0.6779 -1.1657 -0.0130
   30MOL   H50333041   2.500   7.683   5.529  0.3545 -0.7167  0.5270
   30MOL   H50433042   2.389   7.554   5.589 -0.1264 -2.1121 -0.8632
   30MOL   H50533043   2.556   7.413   5.620 -2.0197  0.3260 -2.0347
   30MOL   C50633044   2.648   7.576   5.712 -0.1046  0.1431 -0.3942
   30MOL   O50733045   2.659   0.010   5.707  0.4713 -0.4273 -0.3280
   30MOL   C50833046   2.722   7.494   5.822 -0.3413 -0.0612  0.6622
   30MOL   C50933047   2.734   7.343   5.798  0.6005 -0.5044  0.3935
   30MOL   C51033048   2.848   7.297   5.699 -0.2235  0.2116 -0.1622
   30MOL   C51133049   2.902   7.156   5.697  0.4309 -0.8304  0.6521
   30MOL   C51233050   2.980   7.117   5.825  0.3895  0.0473 -0.0843
   30MOL   C51333051   3.044   6.976   5.820  0.4428 -0.3946  0.1368
   30MOL   C51433052   3.113   6.941   5.953 -0.3392 -0.1570  0.2526
   30MOL   C51533053   3.153   6.796   5.970  0.5592 -0.4072 -0.8279
   30MOL   C51633054   3.239   6.785   6.102 -0.5717 -0.3189 -0.2540
   30MOL   C51733055   3.283   6.645   6.129 -0.1091 -0.1928  0.6304
   30MOL   C51833056   3.342   6.624   6.273 -1.3155  0.9188  0.7806
   30MOL   O51933057   3.278   6.648   6.374 -0.0446  0.0844 -0.0390
   30MOL   N52033058   3.471   6.582   6.267  0.4435  0.1923  0.4328
   30MOL   C52133059   3.561   6.558   6.378 -0.2419  0.4179 -0.5395
   30MOL   C52233060   3.535   6.428   6.462 -0.3168 -0.4472 -0.2926
   30MOL   C52333061   3.643   6.411   6.570 -0.6230 -0.3976 -0.0487
   30MOL   C52433062   3.635   6.271   6.641  0.1191 -0.2796 -0.7833
   30MOL   C52533063   3.698   6.269   6.783  0.0691 -0.4671  0.9123
   30MOL   C52633064   3.846   6.284   6.795  0.5387  0.2723  0.4541
   30MOL   N52733065   3.902   6.283   6.932  0.0609  0.6563 -0.1908
   30MOL   H52833066   2.677   7.515   5.919 -1.1551  0.3999  0.1845
   30MOL   H52933067   2.822   7.533   5.840 -0.4708  0.1281  0.9806
   30MOL   H53033068   2.645   7.299   5.751  1.5744 -1.6157 -0.4702
   30MOL   H53133069   2.744   7.298   5.897 -3.3695  1.4372  1.7649
   30MOL   H53233070   2.934   7.363   5.709 -0.7983  1.0364 -0.5605
   30MOL   H53333071   2.810   7.319   5.599  2.9427  3.2661 -0.7952
   30MOL   H53433072   2.821   7.088   5.669 -1.4417  1.4098  0.4516
   30MOL   H53533073   2.975   7.155   5.617 -0.9127  0.5900 -0.6446
   30MOL   H53633074   3.061   7.187   5.841  0.2580  0.3147 -0.5833
   30MOL   H53733075   2.909   7.123   5.908  2.0965  1.6567  1.2779
   30MOL   H53833076   2.987   6.896   5.773  2.0025 -1.4639  0.0103
   30MOL   H53933077   3.134   6.984   5.758 -0.8521  3.1733 -1.4174
   30MOL   H54033078   3.204   6.998   5.972 -0.9139  1.0807 -0.6528
   30MOL   H54133079   3.062   6.963   6.047 -0.5545 -0.2138  0.1509
   30MOL   H54233080   3.070   6.725   5.967  0.1276  0.0440  0.0967
   30MOL   H54333081   3.207   6.770   5.879 -1.9799  0.3294 -2.6217
   30MOL   H54433082   3.180   6.817   6.188 -1.2296 -0.0109 -0.8090
   30MOL   H54533083   3.328   6.847   6.101  0.7420 -2.1082  1.8030
   30MOL   H54633084   3.201   6.580   6.098 -1.1291  1.6297 -0.5465
   30MOL   H54733085   3.354   6.619   6.050  0.7866  2.0886  0.6683
   30MOL   H54833086   3.509   6.578   6.173 -2.0799  4.8243 -0.9190
   30MOL   H54933087   3.536   6.639   6.446 -4.0647 -0.8851 -0.2667
   30MOL   H55033088   3.665   6.560   6.345  0.7139 -0.2465  2.3547
   30MOL   H55133089   3.526   6.343   6.395  1.7183 -1.3185  0.4862
   30MOL   H55233090   3.438   6.436   6.509 -0.7669 -0.5141 -1.1984
   30MOL   H55333091   3.635   6.490   6.645 -1.9874  0.2932 -0.9226
   30MOL   H55433092   3.737   6.416   6.516  0.3892 -4.5153  1.1524
   30MOL   H55533093   3.678   6.188   6.584 -0.2904 -2.0330  1.4104
   30MOL   H55633094   3.528   6.251   6.654  0.4622 -2.3372 -0.9491
   30MOL   H55733095   3.638   6.340   6.841 -0.7245 -1.4679  1.3255
   30MOL   H55833096   3.684   6.172   6.831  1.1592 -1.2287 -0.2760
   30MOL   H55933097   3.883   6.195   6.745  0.3569  0.1011  0.6220
   30MOL   H56033098   3.890   6.370   6.745  0.0969  1.1650  1.5826
   30MOL   H56133099   3.837   6.314   7.003  1.4426 -0.8213  1.7834
   30MOL   C56233100   4.029   6.256   6.960  0.8748  0.2987 -0.4438
   30MOL   O56333101   4.112   6.245   6.871 -0.6484 -0.0846  0.0840
   30MOL   C56433102   4.070   6.221   7.100 -0.1610  0.9077 -0.2038
   30MOL   C56533103   4.157   6.325   7.169 -0.2753 -0.1377 -0.3938
   30MOL   C56633104   4.076   6.449   7.207  0.4754 -0.0913  0.0553
   30MOL   C56733105   4.163   6.562   7.265 -0.2413  0.8658 -0.1719
   30MOL   C56833106   4.089   6.689   7.311  0.4079  0.1427 -0.9411
   30MOL   C56933107   4.157   6.762   7.431 -0.4442  0.2853  0.2761
   30MOL   C57033108   4.099   6.886   7.490  0.0090  0.1935  0.5562
   30MOL   C57133109   4.184   6.940   7.614  0.2716  0.2627  0.3140
   30MOL   C57233110   4.330   6.978   7.583 -0.1544  0.1613 -0.1926
   30MOL   C57333111   4.419   6.975   0.014  0.7109  0.1618 -0.0314
   30MOL   C57433112   4.381   7.071   0.128  0.0332  0.2420 -0.2397
   30MOL   O57533113   4.398   7.192   0.113  0.0794 -0.4030  0.7370
   30MOL   N57633114   4.329   7.023   0.235  0.1928  0.4097 -0.3475
   30MOL   C57733115   4.284   7.095   0.357  0.1006  0.1477 -0.6358
   30MOL   C57833116   4.136   7.123   0.353 -0.1767 -0.5054 -0.3518
   30MOL   C57933117   4.081   7.227   0.455 -0.3139  0.1256  1.0057
   30MOL   C58033118   4.090   7.189   0.605  0.2840 -0.0985 -1.7958
   30MOL   C58133119   3.978   7.088   0.652 -0.7644  0.1561  0.6513
   30MOL   C58233120   3.966   7.072   0.800  0.1104  0.1028 -0.9064
   30MOL   N58333121   3.881   6.959   0.836  0.0372 -0.4937  0.0635
   30MOL   H58433122   3.986   6.214   7.168 -0.3069  0.6683 -0.4083
   30MOL   H58533123   4.115   6.122   7.096  0.2609  1.0516  0.8603
   30MOL   H58633124   4.197   6.285   7.262 -0.2402  1.3805  0.2716
   30MOL   H58733125   4.251   6.351   7.121  1.8985 -0.3353  3.4753
   30MOL   H58833126   3.997   6.418   7.276  1.4294  0.6486  1.5296
   30MOL   H58933127   4.029   6.493   7.120  1.0502 -0.0372 -0.2281
   30MOL   H59033128   4.219   6.525   7.350 -1.7803 -0.1702  0.4181
   30MOL   H59133129   4.251   6.576   7.203  0.3105 -0.4212  0.3055
   30MOL   H59233130   4.062   6.756   7.230 -3.0217 -1.4137 -1.2029
   30MOL   H59333131   3.992   6.649   7.343  1.0956 -0.7167  0.0937
   30MOL   H59433132   4.177   6.688   7.509 -1.7104  0.9929  1.2920
   30MOL   H59533133   4.257   6.778   7.391 -0.2128  0.6899  1.0010
   30MOL   H59633134   4.078   6.960   7.413 -0.3764  1.7247  2.0882
   30MOL   H59733135   3.998   6.877   7.529  0.5106  0.0870  1.8646
   30MOL   H59833136   4.182   6.853   7.680 -0.2609 -0.2497 -0.3699
   30MOL   H59933137   4.130   7.018   7.668  0.9424 -0.3350  1.8919
   30MOL   H60033138   4.333   7.075   7.533  2.3573  0.8273  1.1749
   30MOL   H60133139   4.376   6.911   7.510 -2.1862 -1.3709 -0.0994
   30MOL   H60233140   4.418   6.877   0.062 -1.1149 -0.1366 -0.6344
   30MOL   H60333141   4.526   6.984   7.684  0.9074  0.4198  1.0224
   30MOL   H60433142   4.330   6.922   0.242  0.6119  0.3000 -1.8057
   30MOL   H60533143   4.345   7.186   0.365 -1.1428  1.0501 -1.2499
   30MOL   H60633144   4.325   7.053   0.449  0.4825 -0.1110 -0.9244
   30MOL   H60733145   4.085   7.029   0.370 -0.0257 -0.1604  2.2062
   30MOL   H60833146   4.115   7.153   0.250  2.5715 -0.4221 -0.9429
   30MOL   H60933147   3.979   7.252   0.427  0.2890 -0.1233 -1.5021
   30MOL   H61033148   4.145   7.313   0.438  1.2027 -1.4547 -1.7448
   30MOL   H61133149   4.189   7.154   0.632  0.0226 -0.6009 -1.4747
   30MOL   H61233150   4.064   7.280   0.660  0.5457  0.8294 -3.1908
   30MOL   H61333151   4.005   6.989   0.615 -0.9312 -0.0494  1.0781
   30MOL   H61433152   3.889   7.116   0.595  0.4376  0.5647 -1.0832
   30MOL   H61533153   4.068   7.059   0.836 -0.9284 -2.7433  1.2017
   30MOL   H61633154   3.920   7.153   0.856  1.6620 -0.1245  0.7512
   30MOL   H61733155   3.783   6.971   0.817 -0.0760 -0.0884  0.9145
   30MOL   C61833156   3.918   6.841   0.880  0.3538 -0.3875 -0.0337
   30MOL   O61933157   4.042   6.821   0.889 -0.1244  0.9546 -0.0740
   30MOL   C62033158   3.819   6.734   0.920 -0.4324 -0.0782  0.2257
   30MOL   C62133159   3.855   6.689   1.062 -0.1485 -0.2353  0.3043
   30MOL   C62233160   3.728   6.652   1.149  0.0985 -0.1989  0.0714
   30MOL   C62333161   3.756   6.603   1.291 -0.7285 -0.7402 -0.2471
   30MOL   C62433162   3.626   6.564   1.363 -0.5131 -0.1369  0.1565
   30MOL   C62533163   3.545   6.446   1.303  0.3427 -0.2821 -0.0169
   30MOL   C62633164   3.451   6.400   1.409  0.0218  0.4399 -0.2129
   30MOL   C62733165   3.370   6.282   1.351 -0.0603 -0.0201  0.1983
   30MOL   C62833166   3.252   6.233   1.435 -0.2052  0.2267  0.3587
   30MOL   C62933167   3.272   6.184   1.575  0.3045 -0.5114  0.1007
   30MOL   C63033168   3.355   6.056   1.584  0.6136  0.0198 -0.1432
   30MOL   O63133169   3.320   5.966   1.511  0.3025  0.0546 -0.2026
   30MOL   N63233170   3.449   6.042   1.673  0.1176  0.1676  0.0655
   30MOL   C63333171   3.552   5.933   1.677  0.2842 -0.4210  0.9920
   30MOL   C63433172   3.630   5.956   1.802  0.4147 -0.8759  0.0339
   30MOL   C63533173   3.743   5.856   1.827 -0.5620 -0.0126 -0.4280
   30MOL   C63633174   3.825   5.892   1.952  0.2431  0.5545 -0.2057
   30MOL   C63733175   3.926   5.784   2.005 -0.4969  0.5096 -0.2518
   30MOL   C63833176   3.970   5.807   2.154  0.0149 -0.0928  0.3747
   30MOL   N63933177   4.061   5.706   2.195  0.2018  0.2798  0.1063
   30MOL   H64033178   3.831   6.654   0.846 -1.8003 -1.5031  1.4986
   30MOL   H64133179   3.720   6.775   0.900  0.4952  1.0655 -2.2148
   30MOL   H64233180   3.900   6.772   1.116 -0.2926 -0.6121  1.0174
   30MOL   H64333181   3.921   6.602   1.066 -0.5211 -0.4819  1.2795
   30MOL   H64433182   3.673   6.575   1.095 -1.1060  0.2429  0.6483
   30MOL   H64533183   3.655   6.732   1.155 -0.6397 -0.8450 -0.3128
   30MOL   H64633184   3.805   6.506   1.299 -2.4210 -1.5276  1.1043
   30MOL   H64733185   3.802   6.679   1.354 -1.4663 -0.7155  0.2804
   30MOL   H64833186   3.653   6.533   1.464 -0.1253 -0.6510 -0.1021
   30MOL   H64933187   3.558   6.649   1.361  0.5712  0.7321 -0.2655
   30MOL   H65033188   3.619   6.368   1.282 -1.7678 -2.7425  1.4087
   30MOL   H65133189   3.500   6.476   1.208  2.1707 -0.3552 -0.9305
   30MOL   H65233190   3.509   6.363   1.493 -0.6249  0.6980  0.3494
   30MOL   H65333191   3.386   6.479   1.447  2.9571  1.4951  2.8726
   30MOL   H65433192   3.342   6.308   1.249  0.0391  2.5778  0.7986
   30MOL   H65533193   3.428   6.192   1.332  0.6171  0.4489  0.0158
   30MOL   H65633194   3.190   6.154   1.392 -1.8960  1.7801 -0.1150
   30MOL   H65733195   3.181   6.315   1.447  0.5347  1.0376 -0.7437
   30MOL   H65833196   3.323   6.264   1.628  1.5605 -0.8742 -0.5473
   30MOL   H65933197   3.176   6.174   1.627 -0.2246 -0.6394 -0.9003
   30MOL   H66033198   3.459   6.116   1.742 -0.7122 -1.2663  1.7588
   30MOL   H66133199   3.513   5.831   1.676  0.1031 -0.3578  1.6631
   30MOL   H66233200   3.617   5.939   1.590  1.4476  0.9801  1.9482
   30MOL   H66333201   3.557   5.950   1.883  0.6144  0.9831  0.3712
   30MOL   H66433202   3.655   6.061   1.820 -0.9090 -0.5056 -0.2949
   30MOL   H66533203   3.695   5.758   1.830 -3.6849  1.4813  1.6107
   30MOL   H66633204   3.810   5.850   1.742  0.9841  2.3419  0.5744
   30MOL   H66733205   3.748   5.905   2.028  0.5889 -1.6266  0.5453
   30MOL   H66833206   3.877   5.986   1.932 -0.5925  1.2897  0.9909
   30MOL   H66933207   3.878   5.687   1.997  0.3278  0.1187 -0.6284
   30MOL   H67033208   4.017   5.780   1.944  0.6648 -1.7415  1.5583
   30MOL   H67133209   4.034   5.895   2.161  1.0682 -0.6266 -2.1569
   30MOL   H67233210   3.877   5.809   2.211  0.8837  0.4126  1.8096
   30MOL   H67333211   4.144   5.683   2.141  0.7351  0.9772  0.6059
   30MOL   C67433212   4.052   5.645   2.313  1.0389 -0.2685  0.0032
   30MOL   O67533213   3.973   5.674   2.396 -0.2344 -0.1219  0.3512
   30MOL   C67633214   4.158   5.533   2.338 -0.3432 -0.3254  0.3021
   30MOL   C67733215   4.115   5.386   2.303  0.7751  0.0743  0.1708
   30MOL   C67833216   4.011   5.324   2.397  0.8905  0.7224 -0.3505
   30MOL   C67933217   4.039   5.330   2.543  0.2021 -0.3743  0.0339
   30MOL   C68033218   3.926   5.264   2.623 -0.7169 -0.4897 -0.2096
   30MOL   C68133219   3.938   5.262   2.774 -0.4160  0.5783  0.2769
   30MOL   C68233220   3.902   5.402   2.840  0.2315  0.0376  0.0325
   30MOL   C68333221   3.881   5.387   2.995 -0.1104  0.1812 -0.0599
   30MOL   C68433222   4.002   5.315   3.055 -0.0450 -0.6562  0.2827
   30MOL   C68533223   4.025   5.349   3.198 -0.4469 -0.7791  1.2714
   30MOL   C68633224   4.123   5.263   3.269 -0.6037 -0.2697 -0.0153
   30MOL   O68733225   4.215   5.207   3.209  0.4299  0.6789  0.3531
   30MOL   N68833226   4.102   5.259   3.403  0.5420 -0.4010  0.6009
   30MOL   C68933227   4.178   5.171   3.496 -0.1583  0.3897  0.6380
   30MOL   C69033228   4.237   5.250   3.610  0.0869  0.2700  0.3025
   30MOL   C69133229   4.303   5.175   3.722  0.0103 -0.2595  0.5092
   30MOL   C69233230   4.329   5.250   3.854  0.1399  0.2736 -0.4568
   30MOL   C69333231   4.425   5.184   3.958  0.2111 -0.0725  0.5641
   30MOL   C69433232   4.503   5.283   4.050  0.2591 -0.2158  0.4712
   30MOL   N69533233   4.632   5.320   3.991  0.2703  0.3625  0.3055
   30MOL   H69633234   4.198   5.550   2.438  1.7273 -1.1660 -0.3727
   30MOL   H69733235   4.239   5.548   2.267 -0.0080 -1.1577  0.5062
   30MOL   H69833236   4.205   5.326   2.314  0.8076  0.0721 -0.1033
   30MOL   H69933237   4.080   5.381   2.200  0.8756 -4.1299  0.2605
   30MOL   H70033238   3.914   5.375   2.390  1.1091  1.0844 -0.8265
   30MOL   H70133239   4.000   5.217   2.383 -0.9399  1.1369 -2.3836
   30MOL   H70233240   4.048   5.433   2.580  1.3618 -0.4816  0.0686
   30MOL   H70333241   4.130   5.273   2.559  1.2609  0.1423 -3.7431
   30MOL   H70433242   3.921   5.160   2.591  1.4336 -0.7192  0.1059
   30MOL   H70533243   3.835   5.310   2.585  0.0202  1.4136  0.2690
   30MOL   H70633244   3.871   5.188   2.818 -1.1895  1.2024  0.1684
   30MOL   H70733245   4.040   5.238   2.806 -0.5910 -1.4556 -0.6668
   30MOL   H70833246   3.986   5.461   2.804  0.8694 -1.0309 -0.2725
   30MOL   H70933247   3.825   5.453   2.783  1.3328  0.2315 -1.2924
   30MOL   H71033248   3.874   5.487   3.037 -2.5795 -0.0309  0.1423
   30MOL   H71133249   3.785   5.342   3.020 -0.1496  0.7486  0.8391
   30MOL   H71233250   4.092   5.333   2.997 -0.4233 -0.6536 -0.3041
   30MOL   H71333251   3.981   5.208   3.049  0.7467 -0.7923 -0.0686
   30MOL   H71433252   4.068   5.448   3.214 -2.7110  0.7257 -1.5724
   30MOL   H71533253   3.929   5.356   3.249 -1.7386 -1.9238 -0.9608
   30MOL   H71633254   4.013   5.295   3.433  0.3714 -0.4816  0.2004
   30MOL   H71733255   4.120   5.085   3.529  0.3975 -0.0744  0.4112
   30MOL   H71833256   4.253   5.126   3.432 -0.9057 -0.2339  0.2005
   30MOL   H71933257   4.163   5.322   3.642  0.4873  1.0109 -0.4192
   30MOL   H72033258   4.310   5.327   3.584  3.8929 -3.3342 -0.3767
   30MOL   H72133259   4.240   5.088   3.739 -0.1756 -0.4404 -1.0675
   30MOL   H72233260   4.395   5.136   3.679 -0.3966  2.7585 -3.3414
   30MOL   H72333261   4.238   5.274   3.909 -0.8557 -2.4843 -0.8563
   30MOL   H72433262   4.367   5.349   3.826  0.8036  0.1625  0.0449
   30MOL   H72533263   4.486   5.115   3.900 -1.0158  1.3577 -2.5999
   30MOL   H72633264   4.360   5.133   4.028  0.2906  0.6911  1.2033
   30MOL   H72733265   4.438   5.364   4.084 -2.6767 -1.4450 -1.8722
   30MOL   H72833266   4.525   5.240   4.147  1.0501 -0.2622  0.2699
   30MOL   H72933267   4.714   5.270   4.023 -0.1473 -0.0426  0.7406
   30MOL   C73033268   4.650   5.444   3.941 -0.3514  0.4943  0.0631
   30MOL   O73133269   4.559   5.512   3.912  0.1550  0.9306 -0.1646
   30MOL   C73233270   4.798   5.475   3.920 -0.5082 -0.1838 -0.1658
   30MOL   C73333271   4.844   5.599   3.997 -0.0626  0.3323 -0.3454
   30MOL   C73433272   4.906   5.574   4.136 -0.0848  0.4682  0.4746
   30MOL   C73533273   4.801   5.542   4.235 -1.2443  0.3538  0.2470
   30MOL   C73633274   4.839   5.562   4.385 -0.0275  0.3806  0.3751
   30MOL   C73733275   4.723   5.549   4.483  0.6337 -0.5655  0.4194
   30MOL   C73833276   4.687   5.401   4.502 -0.6421  0.4198  0.0525
   30MOL   C73933277   4.556   5.398   4.585 -0.0040  0.1484  0.5001
   30MOL   C74033278   4.528   5.254   4.606 -0.0617  0.0376  0.0362
   30MOL   C74133279   4.393   5.240   4.676 -0.0832 -0.9745  0.4913
   30MOL   C74233280   4.352   5.099   4.716  0.5805  0.4179  0.2193
   30MOL   O74333281   4.437   5.017   4.742  0.0040  0.3513  0.0668
   30MOL   N74433282   4.221   5.065   4.726 -0.3660  0.1556  0.3525
   30MOL   C74533283   4.116   5.155   4.698  0.1376  0.3024 -0.4992
   30MOL   C74633284   3.979   5.078   4.682 -0.5158  0.0009  0.3660
   30MOL   C74733285   3.970   4.974   4.572 -0.0639  0.1872  0.9883
   30MOL   C74833286   3.828   4.940   4.527 -0.4349 -0.1191  0.0621
   30MOL   C74933287   3.821   4.820   4.435  0.1093  0.1598  0.1059
   30MOL   C75033288   3.678   4.786   4.392 -0.1070 -0.1567  0.4701
   30MOL   N75133289   3.600   4.898   4.342  0.5496  0.2976  0.2409
   30MOL   H75233290   4.818   5.494   3.815 -2.0783  0.7139 -0.3309
   30MOL   H75333291   4.861   5.390   3.947  0.6325  1.1183  1.3667
   30MOL   H75433292   4.760   5.667   4.014 -1.0879 -0.9979 -0.0885
   30MOL   H75533293   4.926   5.650   3.946 -1.0353  0.3577 -1.9265
   30MOL   H75633294   4.948   5.667   4.174 -2.7660  1.9886 -0.1811
   30MOL   H75733295   4.986   5.501   4.134 -1.5944 -1.2372  0.6652
   30MOL   H75833296   4.763   5.442   4.216  0.0300 -0.1646  0.3826
   30MOL   H75933297   4.721   5.613   4.218 -2.4980 -0.8722  0.9371
   30MOL   H76033298   4.883   5.658   4.411 -2.7629  1.4293  1.3252
   30MOL   H76133299   4.904   5.479   4.412 -2.5368 -2.0849 -0.9450
   30MOL   H76233300   4.741   5.593   4.581 -0.6067 -1.8269  1.2356
   30MOL   H76333301   4.637   5.597   4.436  2.1531  0.0609 -1.7941
   30MOL   H76433302   4.668   5.371   4.399  0.2060  1.4746 -0.4216
   30MOL   H76533303   4.762   5.338   4.549 -2.1795 -1.6185 -0.1717
   30MOL   H76633304   4.563   5.447   4.681  0.4419 -0.1140  0.6016
   30MOL   H76733305   4.481   5.454   4.529 -0.2247 -1.0414 -0.4161
   30MOL   H76833306   4.604   5.200   4.664 -1.1830 -1.0789  0.4963
   30MOL   H76933307   4.519   5.198   4.513  0.2942 -0.4723  0.3056
   30MOL   H77033308   4.405   5.299   4.767  1.3523  0.8847 -0.8792
   30MOL   H77133309   4.325   5.297   4.614  0.7232  0.8043  1.2142
   30MOL   H77233310   4.193   4.977   4.766  0.3623 -0.5242 -0.5776
   30MOL   H77333311   4.138   5.215   4.610 -0.2312 -1.3140 -1.7266
   30MOL   H77433312   4.105   5.219   4.785  1.4048 -0.3912  0.1779
   30MOL   H77533313   3.899   5.148   4.661  0.5610  0.8780 -0.9150
   30MOL   H77633314   3.952   5.033   4.778 -1.4255 -0.1095  0.0620
   30MOL   H77733315   4.025   4.885   4.600  0.4840 -0.5309 -2.1906
   30MOL   H77833316   4.026   5.006   4.484 -2.9156  2.4168 -0.1288
   30MOL   H77933317   3.769   4.919   4.616 -0.6737  1.7379  0.3546
   30MOL   H78033318   3.786   5.028   4.478  1.0774  0.2873 -0.5545
   30MOL   H78133319   3.856   4.729   4.483  0.0628  0.7459  1.2534
   30MOL   H78233320   3.879   4.834   4.344  1.2506 -2.7395  0.3297
   30MOL   H78333321   3.687   4.703   4.321  2.0455 -0.5385  1.1609
   30MOL   H78433322   3.639   4.742   4.484  0.0563 -1.6305 -0.1548
   30MOL   H78533323   3.537   4.941   4.408  0.1786 -0.8005  0.6191
   30MOL   C78633324   3.613   4.966   4.229 -0.2358 -0.3728 -0.6170
   30MOL   O78733325   3.704   4.930   4.150 -0.9283 -0.2907 -1.0835
   30MOL   C78833326   3.520   5.088   4.200  0.1296  0.4708  0.4823
   30MOL   C78933327   3.515   5.121   4.051  0.0623  0.8526  0.4003
   30MOL   C79033328   3.468   5.011   3.955 -0.1562 -0.0307  0.2883
   30MOL   C79133329   3.321   4.969   3.975  0.2848 -0.2566  0.0488
   30MOL   C79233330   3.222   5.090   3.968 -0.7032 -0.3177 -0.1543
   30MOL   C79333331   3.075   5.060   3.990 -0.3300 -0.3350  0.1188
   30MOL   C79433332   2.993   5.183   4.012  0.0334 -0.2576  0.0130
   30MOL   C79533333   2.996   5.280   3.885  0.0244  0.1370 -0.2844
   30MOL   C79633334   2.877   5.359   3.860 -1.0374  0.3951 -0.4623
   30MOL   C79733335   2.891   5.456   3.738  0.1908  0.3854  0.2344
   30MOL   C79833336   2.993   5.571   3.766 -0.7572  0.3590  0.8463
   30MOL   O79933337   3.026   5.602   3.880 -0.7021 -0.3891 -0.0750
   30MOL   N80033338   3.049   5.623   3.656 -0.0147 -0.3057  0.0959
   30MOL   C80133339   3.155   5.722   3.654  0.4393  0.0366 -0.0666
   30MOL   C80233340   3.255   5.694   3.540  0.1803  0.6082 -0.1260
   30MOL   C80333341   3.290   5.539   3.538 -0.0548  0.0683  0.2988
   30MOL   C80433342   3.403   5.500   3.443 -0.4961 -0.6837 -0.4950
   30MOL   C80533343   3.398   5.350   3.405 -0.5631 -0.0705 -0.3991
   30MOL   C80633344   3.528   5.317   3.316 -0.7630 -0.2186 -0.3614
   30MOL   N80733345   3.650   5.341   3.389  0.5024  0.0144 -0.5186
   30MOL   H80833346   3.572   5.171   4.247  0.4788  0.8254 -0.5290
   30MOL   H80933347   3.422   5.078   4.247  1.5909 -1.6508  3.2668
   30MOL   H81033348   3.468   5.218   4.037  1.2470  1.3889  0.0550
   30MOL   H81133349   3.620   5.138   4.027 -0.4616  1.3843 -1.6089
   30MOL   H81233350   3.532   4.923   3.967 -0.4568 -0.0978  1.5065
   30MOL   H81333351   3.472   5.054   3.855  2.9689 -0.1577  0.2968
   30MOL   H81433352   3.293   4.904   3.892 -0.7346  1.3795 -0.9113
   30MOL   H81533353   3.314   4.906   4.063 -1.5108 -2.1494 -1.3982
   30MOL   H81633354   3.242   5.157   4.052 -0.0178 -2.0789  1.1267
   30MOL   H81733355   3.235   5.147   3.876 -1.2781 -1.4322 -0.9319
   30MOL   H81833356   3.036   4.998   3.910  0.7501  0.1405 -0.7940
   30MOL   H81933357   3.065   4.996   4.078  0.7887  1.9936  2.0180
   30MOL   H82033358   2.891   5.150   4.034 -0.4437 -1.3234 -3.5356
   30MOL   H82133359   3.028   5.230   4.104  1.2754 -1.0445 -0.0541
   30MOL   H82233360   3.092   5.333   3.882 -0.3427  0.7990 -0.2532
   30MOL   H82333361   3.002   5.211   3.801  0.8860 -0.4957  0.2830
   30MOL   H82433362   2.838   5.407   3.950 -0.1157  0.1400  0.0840
   30MOL   H82533363   2.803   5.282   3.842 -0.8118  0.4934 -1.8504
   30MOL   H82633364   2.922   5.395   3.653 -2.5122 -0.0398 -0.4979
   30MOL   H82733365   2.801   5.508   3.705  0.2851  0.2866 -0.1751
   30MOL   H82833366   3.008   5.587   3.570  0.7711  0.0623 -0.4393
   30MOL   H82933367   3.212   5.714   3.747  0.0322  0.2717  0.2056
   30MOL   H83033368   3.114   5.823   3.651 -2.5696 -1.1083  0.8834
   30MOL   H83133369   3.347   5.748   3.562  1.4729 -0.9021 -1.6656
   30MOL   H83233370   3.221   5.727   3.442  0.1515  0.9110 -0.0146
   30MOL   H83333371   3.307   5.506   3.640  0.2445  3.7203  1.5298
   30MOL   H83433372   3.202   5.487   3.502 -0.0886 -0.3501  0.9977
   30MOL   H83533373   3.499   5.536   3.479 -0.6072 -0.8274 -0.0566
   30MOL   H83633374   3.389   5.544   3.344 -0.0063  0.8183  0.0899
   30MOL   H83733375   3.307   5.320   3.354 -1.5673 -0.5715  1.6539
   30MOL   H83833376   3.408   5.291   3.496  1.2840  1.5437  0.5074
   30MOL   H83933377   3.532   5.383   3.229 -0.4570 -0.1468 -0.2931
   30MOL   H84033378   3.536   5.215   3.280 -1.2885 -0.9968  1.6669
   30MOL   H84133379   3.695   5.430   3.375 -0.1335  0.8209  2.3263
   30MOL   C84233380   3.730   5.254   3.457 -0.2711 -0.1539 -0.8138
   30MOL   O84333381   3.844   5.287   3.485  0.5996  0.2887 -0.1336
   30MOL   C84433382   3.671   5.119   3.492 -0.6368 -0.0255 -0.1163
   30MOL   C84533383   3.777   5.028   3.566  0.5944  0.4809  0.0398
   30MOL   C84633384   3.774   5.038   3.710  0.7918 -0.4961 -0.3254
   30MOL   C84733385   3.890   4.978   3.784  0.3197 -0.5452 -0.0400
   30MOL   C84833386   3.899   4.823   3.785 -0.7511  0.2396  0.4155
   30MOL   C84933387   3.809   4.771   3.897 -0.4534 -0.2570  0.6690
   30MOL   C85033388   3.786   4.618   3.903  0.7297 -0.5642  0.1846
   30MOL   C85133389   3.745   4.570   4.043  0.5962 -0.0089 -0.5764
   30MOL   C85233390   3.685   4.432   4.056  0.3840 -0.3413  0.3776
   30MOL   C85333391   3.666   4.387   4.207  0.7936 -0.2464  0.0507
   30MOL   C85433392   3.791   4.331   4.271  0.4946  0.1606 -0.0304
   30MOL   O85533393   3.841   4.233   4.217 -0.4929 -0.5701  0.2605
   30MOL   N85633394   3.839   4.383   4.380 -0.7088  0.4902 -0.3743
   30MOL   C85733395   3.968   4.337   4.432 -0.0697 -0.1529 -0.3098
   30MOL   C85833396   3.974   4.277   4.572  0.4322  0.2036  0.0140
   30MOL   C85933397   3.946   4.129   4.574  0.1681  0.5313  0.1148
   30MOL   C86033398   4.057   4.044   4.498 -0.2090  0.2981 -0.4608
   30MOL   C86133399   4.073   3.897   4.525  0.0934  0.2691  0.1573
   30MOL   C86233400   3.963   3.804   4.477 -0.2728  0.4166 -0.2981
   30MOL   N86333401   3.960   3.684   4.553 -0.0133 -0.2058 -0.5195
   30MOL   H86433402   3.644   5.069   3.399 -0.1680 -0.5567  0.0289
   30MOL   H86533403   3.575   5.132   3.543 -1.1447  0.3571 -1.1525
   30MOL   H86633404   3.877   5.038   3.523  1.0779 -0.5960  0.8902
   30MOL   H86733405   3.756   4.923   3.548 -2.7412  1.0351  0.4356
   30MOL   H86833406   3.785   5.144   3.733 -4.1988 -0.3452  1.8807
   30MOL   H86933407   3.678   5.012   3.755  0.9062  1.2055  0.9646
   30MOL   H87033408   3.901   5.019   3.884 -0.0645 -0.9203  0.1573
   30MOL   H87133409   3.985   5.015   3.745  1.1368 -0.6083  1.8342
   30MOL   H87233410   3.874   4.774   3.691  0.6899  2.2913 -1.1032
   30MOL   H87333411   3.999   4.790   3.813 -0.5063 -0.0831 -0.8348
   30MOL   H87433412   3.857   4.799   3.991  0.5043 -1.4835  0.5651
   30MOL   H87533413   3.709   4.812   3.903  0.6256  2.4525  0.5492
   30MOL   H87633414   3.717   4.581   3.828 -0.1289  1.8261 -0.2190
   30MOL   H87733415   3.882   4.566   3.892  0.3627 -1.3280  0.5052
   30MOL   H87833416   3.674   4.640   4.087 -0.4319  1.4588 -4.4241
   30MOL   H87933417   3.840   4.591   4.094 -0.3107  1.6221  0.5021
   30MOL   H88033418   3.750   4.362   4.004 -0.3419  0.1763 -1.2744
   30MOL   H88133419   3.589   4.419   4.005  0.8513  0.0392 -0.6106
   30MOL   H88233420   3.612   4.458   4.270 -0.5722 -1.1125 -0.1435
   30MOL   H88333421   3.598   4.303   4.216  0.9638 -0.3583  0.2968
   30MOL   H88433422   3.792   4.457   4.430  0.2399 -1.6291  3.9042
   30MOL   H88533423   4.026   4.429   4.439  0.7998 -0.8814  2.6265
   30MOL   H88633424   4.027   4.276   4.364 -1.2543 -0.0404 -1.4539
   30MOL   H88733425   3.893   4.315   4.634  1.5411  1.2012  0.8775
   30MOL   H88833426   4.070   4.304   4.616  0.4862 -1.2473  0.8265
   30MOL   H88933427   3.851   4.097   4.531  0.2019  1.1701 -0.4557
   30MOL   H89033428   3.962   4.100   4.678  0.5900  1.8376  0.4333
   30MOL   H89133429   4.151   4.098   4.508  0.0424  0.1680 -2.1386
   30MOL   H89233430   4.043   4.054   4.391  2.5988  1.1973 -0.7782
   30MOL   H89333431   4.169   3.863   4.486 -1.3646 -1.5142 -1.9797
   30MOL   H89433432   4.103   3.887   4.629  3.4322  0.9262 -0.6938
   30MOL   H89533433   3.864   3.847   4.495 -0.8726 -1.1102  0.1700
   30MOL   H89633434   3.966   3.778   4.371  0.9513 -1.2883  0.1327
   30MOL   H89733435   3.880   3.684   4.614  0.0173  0.4362 -0.4745
   30MOL   C89833436   4.022   3.571   4.524 -0.0671  0.1271  0.0607
   30MOL   O89933437   4.107   3.563   4.434 -0.4509  0.0319  0.4667
   30MOL   C90033438   3.990   3.448   4.610  0.2795  0.1517  0.3798
   30MOL   C90133439   3.893   3.344   4.539  0.0417  0.1304 -0.3378
   30MOL   C90233440   3.741   3.381   4.557 -0.1417 -0.3247  0.2457
   30MOL   C90333441   3.645   3.292   4.477  0.2824  0.7105  0.2412
   30MOL   C90433442   3.491   3.330   4.481 -0.0336 -0.2660  0.6373
   30MOL   C90533443   3.427   3.309   4.618  0.1763  0.3580  0.6289
   30MOL   C90633444   3.275   3.355   4.624  0.1958 -0.0146  0.2674
   30MOL   C90733445   3.210   3.353   4.757  0.3078  0.1588 -0.0625
   30MOL   C90833446   3.069   3.394   4.751 -0.0204 -0.2300 -0.1912
   30MOL   C90933447   3.041   3.542   4.779  0.3336 -0.4003 -0.6540
   30MOL   C91033448   3.025   3.638   4.660  0.2999 -0.3470  1.0853
   30MOL   O91133449   3.005   3.591   4.547  0.0217  0.7503 -0.5702
   30MOL   N91233450   3.073   3.764   4.673  0.5683 -0.2508 -0.2598
   30MOL   C91333451   3.084   3.849   4.554  0.0838  0.0019  0.0675
   30MOL   C91433452   3.211   3.826   4.472 -0.3027  0.3912 -0.2620
   30MOL   C91533453   3.240   3.936   4.369 -0.0085 -0.3929 -0.7722
   30MOL   C91633454   3.327   4.041   4.432 -0.5488 -0.0185 -0.2472
   30MOL   C91733455   3.329   4.172   4.346  0.3606  0.2172 -0.1477
   30MOL   C91833456   3.394   4.288   4.421 -0.4179 -0.2633  0.3799
   30MOL   N91933457   3.365   4.416   4.361 -0.2436  0.3007  0.5173
   30MOL   H92033458   4.087   3.399   4.618  0.8331  0.4939 -3.5199
   30MOL   H92133459   3.951   3.471   4.710  1.5828  1.3947  0.6101
   30MOL   H92233460   3.918   3.249   4.586  0.7011  0.9176  0.9399
   30MOL   H92333461   3.923   3.331   4.435 -0.0670  2.0306 -0.6394
   30MOL   H92433462   3.724   3.482   4.521 -1.2938  0.7565  3.6769
   30MOL   H92533463   3.712   3.373   4.662 -2.5274  1.7549 -0.2052
   30MOL   H92633464   3.667   3.283   4.371  1.8510  0.4478  0.5717
   30MOL   H92733465   3.660   3.187   4.503  2.0981  1.0111  0.4786
   30MOL   H92833466   3.435   3.276   4.405 -0.3268 -0.8457  1.2629
   30MOL   H92933467   3.486   3.436   4.456 -1.1049  0.1362  2.5157
   30MOL   H93033468   3.433   3.203   4.643 -1.0940 -0.4004 -2.1674
   30MOL   H93133469   3.483   3.369   4.690  1.3464 -0.9576  0.8583
   30MOL   H93233470   3.212   3.294   4.559  1.0075  0.3664 -0.8847
   30MOL   H93333471   3.268   3.454   4.579 -3.1116  0.2657  1.2367
   30MOL   H93433472   3.260   3.420   4.827  1.1208 -0.6992  0.1867
   30MOL   H93533473   3.220   3.253   4.799 -1.4376  0.4678  1.1268
   30MOL   H93633474   3.007   3.351   4.673  0.4377 -0.5062 -0.4039
   30MOL   H93733475   3.032   3.337   4.837 -0.1856 -2.0192 -1.4147
   30MOL   H93833476   2.942   3.531   4.824  1.6035 -0.2730  2.3208
   30MOL   H93933477   3.106   3.584   4.855 -2.0495  1.1399  0.6136
   30MOL   H94033478   3.107   3.799   4.761 -2.1181 -0.9425  1.1105
   30MOL   H94133479   3.102   3.952   4.586  0.1627 -0.5728  1.9083
   30MOL   H94233480   2.999   3.852   4.485 -0.8355  0.3117  1.1992
   30MOL   H94333481   3.298   3.807   4.534 -1.3010 -1.2826  0.6693
   30MOL   H94433482   3.187   3.737   4.414 -0.4843  0.1422  0.1929
   30MOL   H94533483   3.294   3.890   4.287  1.8134 -1.1754  0.8303
   30MOL   H94633484   3.145   3.978   4.335  0.3557 -1.0229 -2.5810
   30MOL   H94733485   3.422   3.993   4.454 -1.4468 -1.4491  0.5440
   30MOL   H94833486   3.285   4.078   4.525  1.1764  0.2647  0.4388
   30MOL   H94933487   3.373   4.153   4.248 -2.1514 -0.7143 -1.1581
   30MOL   H95033488   3.226   4.206   4.335  0.3430 -0.6745 -3.5020
   30MOL   H95133489   3.500   4.267   4.405 -0.6056 -1.1312  0.2469
   30MOL   H95233490   3.389   4.303   4.529  2.4961  2.0418  0.2640
   30MOL   H95333491   3.304   4.403   4.281  2.5433 -1.8529 -1.3429
   30MOL   C95433492   3.375   4.538   4.420  0.7090 -0.8275 -0.3083
   30MOL   O95533493   3.440   4.558   4.524  0.7467  0.2059 -1.2690
   30MOL   C95633494   3.305   4.650   4.354  0.2670 -0.2328  0.5671
   30MOL   C95733495   3.282   4.772   4.445 -0.4494  0.1912  0.2295
   30MOL   C95833496   3.219   4.887   4.365  0.4798  0.7682  0.2069
   30MOL   C95933497   3.194   5.019   4.436  0.4073  0.1107 -0.2486
   30MOL   C96033498   3.105   5.116   4.351  0.1362  0.3321 -0.3058
   30MOL   C96133499   3.041   5.224   4.438 -0.2964 -0.5703 -0.0721
   30MOL   C96233500   3.128   5.351   4.446 -0.2185 -0.0018  0.1908
   30MOL   C96333501   3.144   5.430   4.310  0.5144 -0.0668 -0.0595
   30MOL   C96433502   3.154   5.583   4.331  0.1394 -0.6373 -0.1394
   30MOL   C96533503   3.173   5.644   4.190 -0.5052  0.7007  0.5553
   30MOL   C96633504   3.318   5.633   4.137  0.6104  1.1182  0.1598
   30MOL   O96733505   3.415   5.626   4.209  0.3875 -0.2555 -0.0703
   30MOL   N96833506   3.324   5.624   4.004 -0.0774 -0.3003  0.4937
   30MOL   C96933507   3.446   5.614   3.927 -0.2180  0.4193 -0.6737
   30MOL   C97033508   3.536   5.491   3.963  0.5912 -0.0927  0.0491
   30MOL   C97133509   3.661   5.496   3.861  0.0199  0.1723 -0.3099
   30MOL   C97233510   3.749   5.369   3.874 -0.3477 -0.0386 -0.3555
   30MOL   C97333511   3.826   5.352   4.013 -0.1527 -0.4826  0.4217
   30MOL   C97433512   3.940   5.457   4.037  0.4663  0.0751  0.4284
   30MOL   N97533513   3.999   5.450   4.168  0.1473  0.0586 -0.0512
   30MOL   H97633514   3.379   4.700   4.292  1.4761  0.6167  2.6443
   30MOL   H97733515   3.218   4.614   4.299  0.3691 -0.1235  0.3341
   30MOL   H97833516   3.380   4.800   4.485  0.1997 -1.5239 -0.1199
   30MOL   H97933517   3.224   4.754   4.536 -0.6209  1.2035  0.3289
   30MOL   H98033518   3.259   4.902   4.264  1.1838  0.6099  0.4615
   30MOL   H98133519   3.119   4.850   4.348  0.6586  0.2334  0.3142
   30MOL   H98233520   3.158   4.999   4.537 -3.0857 -0.3553 -1.5051
   30MOL   H98333521   3.290   5.069   4.448  1.9475 -2.5609 -0.9836
   30MOL   H98433522   3.168   5.149   4.269 -0.7274  0.9224 -0.7262
   30MOL   H98533523   3.028   5.052   4.308 -0.6288  0.2106  1.2098
   30MOL   H98633524   2.937   5.254   4.420  0.7517  1.6270 -2.8525
   30MOL   H98733525   3.036   5.181   4.538  1.4247 -1.2498 -0.2567
   30MOL   H98833526   3.092   5.418   4.524 -1.7127 -0.8677  0.2719
   30MOL   H98933527   3.227   5.314   4.473  0.0846 -0.2851 -1.2843
   30MOL   H99033528   3.238   5.402   4.262  0.2980 -0.9924  0.0585
   30MOL   H99133529   3.054   5.404   4.254  0.1383 -0.0373  0.5353
   30MOL   H99233530   3.238   5.609   4.397 -1.4721  1.5602  1.0932
   30MOL   H99333531   3.063   5.621   4.376  0.4109 -0.4134  0.2326
   30MOL   H99433532   3.107   5.594   4.120 -0.7630  1.7161  0.0614
   30MOL   H99533533   3.135   5.747   4.194  0.4625  1.0596  0.6604
   30MOL   H99633534   3.237   5.636   3.955 -0.0841 -1.0620  0.3128
   30MOL   H99733535   3.501   5.706   3.944 -0.3946  0.6541 -1.3678
   30MOL   H99833536   3.427   5.624   3.820 -0.5045 -2.7978 -0.9756
   30MOL   H99933537   3.476   5.401   3.951 -1.3943  1.2940 -0.6439
   30MOL     H133538   3.577   5.505   4.063  0.9107  1.6354 -0.3043
   30MOL     H233539   3.733   5.572   3.889 -1.2452  1.4303 -0.4284
   30MOL     H333540   3.622   5.507   3.760  0.7380  2.6482 -0.3491
   30MOL     H433541   3.689   5.279   3.858  1.6987 -1.1490 -2.0007
   30MOL     H533542   3.820   5.378   3.792  1.8379  0.3437  1.5416
   30MOL     H633543   3.860   5.249   4.024  0.0730 -0.2499  2.0002
   30MOL     H733544   3.744   5.357   4.085  0.0790 -2.3711  0.8548
   30MOL     H833545   4.019   5.435   3.965  0.5276 -0.4103  0.6423
   30MOL     H933546   3.904   5.560   4.034  2.0440  0.6350  0.2089
   30MOL    H1033547   3.939   5.405   4.235  0.2850 -3.1005 -1.9299
   30MOL    C1133548   4.129   5.465   4.195  0.1110  0.7419 -0.8567
   30MOL    O1233549   4.212   5.510   4.113  0.3031 -0.4253 -0.6946
   30MOL    C1333550   4.173   5.422   4.328  0.2042  0.5035  0.3342
   30MOL    C1433551   4.253   5.293   4.325 -0.2236 -0.2220  0.1399
   30MOL    C1533552   4.193   5.176   4.251  0.1900  0.3966  0.4673
   30MOL    C1633553   4.253   5.042   4.294 -0.3033 -0.0517 -0.4405
   30MOL    C1733554   4.198   4.917   4.224  0.4382 -0.2478  0.8553
   30MOL    C1833555   4.264   4.788   4.274  0.4429 -0.4616  0.1577
   30MOL    C1933556   4.242   4.745   4.421  0.0211 -0.9549 -0.4283
   30MOL    C2033557   4.316   4.610   4.429 -0.0126  0.5036 -0.6784
   30MOL    C2133558   4.307   4.556   4.567  1.0239 -0.5042 -0.1991
   30MOL    C2233559   4.373   4.414   4.584 -0.0766  0.1118  0.3370
   30MOL    C2333560   4.368   4.361   4.725 -0.2842  0.2583  0.7258
   30MOL    O2433561   4.286   4.407   4.804  0.2692  0.7843 -0.1403
   30MOL    N2533562   4.451   4.260   4.749 -0.5315 -0.1087 -0.0751
   30MOL    C2633563   4.446   4.178   4.867 -0.0878 -0.3127  0.1155
   30MOL    C2733564   4.505   4.036   4.845 -0.2141 -0.2001 -0.7198
   30MOL    C2833565   4.429   3.947   4.741 -0.0582 -1.3311 -0.3011
   30MOL    C2933566   4.492   3.806   4.737 -0.4982 -0.1840  0.0429
   30MOL    C3033567   4.412   3.719   4.635 -0.2525 -0.5847  0.5223
   30MOL    C3133568   4.443   3.566   4.634  0.6246  0.5650 -0.9935
   30MOL    N3233569   4.376   3.496   4.528 -0.0913 -0.2553  0.0828
   30MOL    H3333570   4.084   5.402   4.386  1.0694 -0.5695  1.3310
   30MOL    H3433571   4.224   5.506   4.374  0.4626  1.0637 -0.9457
   30MOL    H3533572   4.288   5.259   4.423  0.0913  1.9274  0.7988
   30MOL    H3633573   4.347   5.316   4.276  0.0218  0.5482  0.9448
   30MOL    H3733574   4.194   5.198   4.144  2.1975 -0.8012  0.2216
   30MOL    H3833575   4.088   5.183   4.278  0.0669 -3.4735  1.2560
   30MOL    H3933576   4.357   5.052   4.261 -0.6264  0.6966 -1.2595
   30MOL    H4033577   4.247   5.038   4.403 -0.6724  1.2049 -0.4149
   30MOL    H4133578   4.093   4.900   4.251  0.1386  0.4920  0.1648
   30MOL    H4233579   4.201   4.929   4.116  0.4882  2.1320  1.1010
   30MOL    H4333580   4.230   4.716   4.199  0.9331 -1.1438  0.5870
   30MOL    H4433581   4.372   4.797   4.257  0.3795  0.6319  0.2923
   30MOL    H4533582   4.269   4.821   4.494 -2.8918 -1.5145  1.2855
   30MOL    H4633583   4.136   4.732   4.439  0.3226 -1.7304  0.8325
   30MOL    H4733584   4.255   4.543   4.369  0.4828 -1.7564  1.2812
   30MOL    H4833585   4.421   4.622   4.399  0.0948  0.7130 -0.2224
   30MOL    H4933586   4.201   4.552   4.594  1.4554  1.6404  2.0412
   30MOL    H5033587   4.352   4.638   4.623  1.4617 -0.6993 -0.2686
   30MOL    H5133588   4.322   4.344   4.517  1.7140 -0.4817 -0.4423
   30MOL    H5233589   4.471   4.405   4.538  0.1924 -1.1457  1.1435
   30MOL    H5333590   4.517   4.236   4.676  3.7211  1.9057  2.9051
   30MOL    H5433591   4.343   4.172   4.902 -0.4413  0.4653 -0.7445
   30MOL    H5533592   4.493   4.235   4.947 -0.4578 -0.0182  0.1255
   30MOL    H5633593   4.535   3.994   4.941 -1.2758 -0.9581 -0.7046
   30MOL    H5733594   4.605   4.057   4.808 -0.9022  2.0265 -1.4042
   30MOL    H5833595   4.412   3.990   4.642 -0.9187 -0.3885  0.2439
   30MOL    H5933596   4.325   3.943   4.771 -0.0115 -0.0545  0.0791
   30MOL    H6033597   4.484   3.745   4.827 -0.4205 -2.0041 -1.1702
   30MOL    H6133598   4.596   3.799   4.707 -0.7705  1.2878 -1.3238
   30MOL    H6233599   4.416   3.761   4.535  0.9533  0.0546  0.8236
   30MOL    H6333600   4.311   3.728   4.675 -0.3217 -0.0584  0.2248
   30MOL    H6433601   4.406   3.535   4.732  0.0423  1.6144 -0.8683
   30MOL    H6533602   4.551   3.557   4.628  0.5442 -2.1036  0.7014
   30MOL    H6633603   4.283   3.521   4.498 -0.1054  0.7425  0.9250
   30MOL    C6733604   4.416   3.382   4.481  0.6403  0.0390  0.8890
   30MOL    O6833605   4.523   3.327   4.513 -0.4029 -0.1760  0.1784
   30MOL    C6933606   4.312   3.317   4.383 -0.2922  0.3819 -0.5076
   30MOL    C7033607   4.375   3.211   4.287 -0.4234  0.2773 -0.3154
   30MOL    C7133608   4.459   3.266   4.166  0.5637 -0.8739  0.1392
   30MOL    C7233609   4.541   3.158   4.102 -0.3030 -0.0631  0.6388
   30MOL    C7333610   4.602   3.178   3.966 -0.8299 -0.0846 -0.3128
   30MOL    C7433611   4.638   3.043   3.898  0.8181 -0.8547  0.4187
   30MOL    C7533612   4.697   3.063   3.755  0.1738 -0.5488 -0.2082
   30MOL    C7633613   4.836   3.110   3.747 -0.2187 -0.0370  0.1298
   30MOL    C7733614   4.862   3.153   3.600  0.3635 -0.2967 -0.0502
   30MOL    C7833615   4.998   3.190   3.566  0.2966  0.1371  0.4028
   30MOL    C7933616   5.046   3.318   3.620 -0.5729 -0.4648  0.3227
   30MOL    O8033617   4.972   3.384   3.689  0.6613  0.4943 -0.2715
   30MOL    N8133618   5.175   3.356   3.601  0.7186  0.2169 -0.0845
   30MOL    C8233619   5.267   3.312   3.494 -0.2618  0.1070  0.3358
   30MOL    C8333620   5.395   3.248   3.544 -0.3098  0.0336 -0.1934
   30MOL    C8433621   5.492   3.199   3.434  0.3174 -0.7770  0.7583
   30MOL    C8533622   5.636   3.155   3.462  0.0878 -0.5531  0.0997
   30MOL    C8633623   5.665   3.033   3.560  0.3499 -0.3624 -0.0893
   30MOL    C8733624   5.801   2.966   3.534 -0.1068  0.0421 -0.3494
   30MOL    N8833625   5.909   3.015   3.614 -0.0399  0.0075  0.7679
   30MOL    H8933626   4.292   3.398   4.312 -2.2274 -1.2760 -1.9323
   30MOL    H9033627   4.219   3.291   4.433  0.4013  1.7049  1.5225
   30MOL    H9133628   4.432   3.141   4.348 -0.0042  0.4034 -0.5548
   30MOL    H9233629   4.292   3.152   4.250 -1.4769  0.9330  0.9638
   30MOL    H9333630   4.398   3.303   4.084 -0.3727 -0.6282  0.9374
   30MOL    H9433631   4.525   3.348   4.194 -1.5106  0.3846  1.4084
   30MOL    H9533632   4.625   3.128   4.166  1.8851  1.9464 -1.1719
   30MOL    H9633633   4.488   3.064   4.090  0.2431 -0.0581 -2.0951
   30MOL    H9733634   4.545   3.239   3.896  2.2886 -0.8857 -3.6946
   30MOL    H9833635   4.691   3.240   3.969  0.8951 -2.4944  0.1648
   30MOL    H9933636   4.712   2.990   3.958  1.6114 -0.2735 -0.0391
   30MOL   H10033637   4.545   2.986   3.895  0.8684 -0.9197 -0.1044
   30MOL   H10133638   4.627   3.125   3.698 -0.1247 -0.4440  0.2683
   30MOL   H10233639   4.684   2.971   3.697 -3.0457  1.6601 -3.2155
   30MOL   H10333640   4.862   3.191   3.816  1.5974  2.4249 -3.3023
   30MOL   H10433641   4.905   3.032   3.779  0.0170  1.5067  3.7183
   30MOL   H10533642   4.794   3.234   3.572  0.2154 -0.5370 -0.3785
   30MOL   H10633643   4.834   3.070   3.536  2.4088 -1.5499  0.6190
   30MOL   H10733644   5.059   3.101   3.574  2.4623  1.4674 -0.7668
   30MOL   H10833645   4.986   3.204   3.458 -0.9172  1.1421  0.6478
   30MOL   H10933646   5.218   3.425   3.660  2.5570 -2.5664  1.9914
   30MOL   H11033647   5.297   3.405   3.446  0.0287  0.3527  0.9947
   30MOL   H11133648   5.220   3.260   3.410  1.3262 -0.3324 -0.3054
   30MOL   H11233649   5.384   3.160   3.606  0.5944 -1.4034 -2.0412
   30MOL   H11333650   5.448   3.321   3.606 -4.0280  1.1946  1.7734
   30MOL   H11433651   5.489   3.287   3.370 -3.7886 -0.5314  1.1422
   30MOL   H11533652   5.436   3.119   3.384 -0.4964 -0.0313  0.4695
   30MOL   H11633653   5.671   3.133   3.361  0.5250  0.7555 -0.0427
   30MOL   H11733654   5.695   3.239   3.497  0.6647 -1.3487  1.0619
   30MOL   H11833655   5.642   3.053   3.664  0.5259  1.1394 -0.3333
   30MOL   H11933656   5.584   2.962   3.542 -0.1266  0.5038 -1.4724
   30MOL   H12033657   5.790   2.860   3.558  2.2436 -0.7125 -2.3990
   30MOL   H12133658   5.839   2.974   3.432 -0.9000 -0.8252 -0.7267
   30MOL   H12233659   5.901   2.965   3.701  1.1187 -0.2371  0.7406
   30MOL   H12333660   5.881   3.108   3.641  1.0372  1.0653 -1.5861
   31MOL     C133661   0.920   5.230   1.325 -0.2006 -0.2279  0.4855
   31MOL     O233662   0.989   5.173   1.247 -0.6960 -0.7414  0.0651
   31MOL     C333663   0.959   5.366   1.384 -0.3328 -0.4404 -0.0033
   31MOL     C433664   1.080   5.369   1.482 -0.2111 -0.1959 -0.2920
   31MOL     C533665   1.067   5.310   1.621 -0.4370  0.4116 -0.3181
   31MOL     C633666   1.193   5.334   1.699  0.0529 -0.6866 -0.3130
   31MOL     C733667   1.191   5.270   1.840 -0.1756 -0.8785 -0.4279
   31MOL     C833668   1.316   5.304   1.927 -0.3535 -0.2728 -0.3702
   31MOL     C933669   1.439   5.227   1.869 -0.3028 -0.0726  0.2533
   31MOL    C1033670   1.550   5.214   1.977  0.4746  0.2145 -0.6051
   31MOL    C1133671   1.674   5.150   1.914 -0.3220  0.9185  0.2814
   31MOL    C1233672   1.796   5.113   2.010  0.2507 -0.5821  0.5927
   31MOL    C1333673   1.784   4.987   2.096 -0.2901  0.3091  0.3149
   31MOL    O1433674   1.677   4.963   2.151  0.7715 -0.0486  0.2399
   31MOL    N1533675   1.902   4.922   2.121  0.1624  0.1267  0.3372
   31MOL    C1633676   1.912   4.818   2.223  0.1979 -0.1664  0.0891
   31MOL    C1733677   1.929   4.675   2.175  0.2528 -0.5379 -0.0967
   31MOL    C1833678   1.930   4.566   2.287 -0.6853 -0.0995  0.2326
   31MOL    C1933679   1.795   4.546   2.371  0.9317  0.5655  0.4066
   31MOL    C2033680   1.668   4.529   2.286  0.0661 -0.2377  0.1445
   31MOL    C2133681   1.539   4.570   2.361  0.3496 -0.3718  0.1026
   31MOL    N2233682   1.531   4.711   2.382  1.1513  0.1010  0.3601
   31MOL    H2333683   0.862   5.395   1.426 -0.4424 -0.5784 -0.1603
   31MOL    H2433684   0.976   5.440   1.305  1.7457 -1.3973 -0.4821
   31MOL    H2533685   1.094   5.477   1.476 -2.2456  0.0853 -0.3307
   31MOL    H2633686   1.164   5.325   1.430 -0.2904 -0.2408 -0.3821
   31MOL    H2733687   1.064   5.203   1.605  0.3982  0.2615  0.4584
   31MOL    H2833688   0.978   5.341   1.676  0.0716  0.4171  0.5046
   31MOL    H2933689   1.270   5.286   1.638 -0.2752 -1.0198 -0.4577
   31MOL    H3033690   1.216   5.441   1.691 -2.0983 -0.1132  0.6914
   31MOL    H3133691   1.172   5.163   1.847 -2.2125 -0.3913  2.8976
   31MOL    H3233692   1.108   5.322   1.887  0.2030 -1.3597  0.7951
   31MOL    H3333693   1.332   5.411   1.941  1.5122 -0.4405 -0.9674
   31MOL    H3433694   1.297   5.276   2.030  0.2696 -1.1031 -0.4744
   31MOL    H3533695   1.406   5.132   1.829 -2.3767  0.4846  0.5825
   31MOL    H3633696   1.469   5.294   1.788 -1.0284  1.2947  1.0912
   31MOL    H3733697   1.574   5.315   2.008 -0.5601 -0.1042  1.3154
   31MOL    H3833698   1.506   5.154   2.057  0.6710 -0.2339 -0.8298
   31MOL    H3933699   1.705   5.222   1.838 -1.0361  0.9869  0.0535
   31MOL    H4033700   1.637   5.057   1.873 -3.5369  2.3796 -0.2737
   31MOL    H4133701   1.885   5.098   1.950  0.7694  0.7012  1.0291
   31MOL    H4233702   1.818   5.195   2.078 -0.4690  0.3705 -0.3101
   31MOL    H4333703   1.989   4.960   2.087 -0.8949  3.8424  1.4902
   31MOL    H4433704   1.823   4.814   2.285 -0.7041 -0.8213 -1.2181
   31MOL    H4533705   1.989   4.846   2.295  0.3319  0.1010 -0.1536
   31MOL    H4633706   2.013   4.665   2.108 -1.7928 -0.7263 -2.7183
   31MOL    H4733707   1.842   4.648   2.114  0.4922  1.2909 -1.2602
   31MOL    H4833708   1.950   4.469   2.240  0.4954 -0.4861  1.5037
   31MOL    H4933709   2.008   4.592   2.358 -2.3638  0.0587  2.0707
   31MOL    H5033710   1.783   4.637   2.430  0.7303  0.5821  0.3405
   31MOL    H5133711   1.803   4.453   2.428 -0.2049 -0.9901 -1.9184
   31MOL    H5233712   1.668   4.597   2.201  0.1246  1.1788  1.2651
   31MOL    H5333713   1.659   4.429   2.242  0.5489 -0.9382  1.6355
   31MOL    H5433714   1.455   4.536   2.300 -0.1772  1.3332 -0.1454
   31MOL    H5533715   1.534   4.515   2.455  1.4538 -0.7945 -0.0722
   31MOL    H5633716   1.515   4.763   2.297  0.0535 -3.2866 -1.6333
   31MOL    H5733717   0.821   5.198   1.354 -0.2345  0.0431  0.6737
   31MOL    C5833718   1.547   4.771   2.498 -0.0278  0.0573  0.1097
   31MOL    O5933719   1.564   4.702   2.603 -0.0882  0.3477  0.0807
   31MOL    C6033720   1.539   4.919   2.488 -0.0777 -0.6395  0.2518
   31MOL    C6133721   1.414   4.980   2.555  0.1213 -0.2825  0.4548
   31MOL    C6233722   1.436   5.006   2.707 -0.1487 -0.0300  0.4079
   31MOL    C6333723   1.304   5.022   2.781  0.1010 -0.0717 -0.1349
   31MOL    C6433724   1.300   5.126   2.900  0.5188  0.3533 -0.8676
   31MOL    C6533725   1.326   5.272   2.870 -0.6973 -0.9959 -0.6159
   31MOL    C6633726   1.259   5.333   2.753 -0.2196  0.3727  0.2476
   31MOL    C6733727   1.238   5.480   2.773 -0.0968 -0.8381 -0.0580
   31MOL    C6833728   1.363   5.566   2.763 -0.3011  0.1628  0.1228
   31MOL    C6933729   1.340   5.714   2.741 -0.0498  0.2829 -0.1150
   31MOL    C7033730   1.274   5.747   2.607 -0.9535  0.3823  0.4477
   31MOL    O7133731   1.342   5.715   2.506 -0.2725  0.1297  0.4685
   31MOL    N7233732   1.158   5.810   2.608 -0.0838 -0.3126 -0.1860
   31MOL    C7333733   1.073   5.831   2.495  0.4807  0.0269 -0.1421
   31MOL    C7433734   0.935   5.804   2.540  0.2302 -0.5160 -0.5196
   31MOL    C7533735   0.897   5.658   2.563 -0.4755 -0.4455 -0.0223
   31MOL    C7633736   0.747   5.636   2.591 -0.4408 -0.5759 -0.7950
   31MOL    C7733737   0.696   5.493   2.597 -0.1229  0.3208  0.0434
   31MOL    C7833738   0.544   5.486   2.631 -0.6786  0.1583 -0.2216
   31MOL    N7933739   0.515   5.526   2.768 -0.0053  0.5903  0.2213
   31MOL    H8033740   1.530   4.932   2.380  1.7174  0.6342  0.2506
   31MOL    H8133741   1.628   4.971   2.524  0.8310 -1.1731 -1.1848
   31MOL    H8233742   1.379   5.077   2.520 -2.0299  0.1651  3.6470
   31MOL    H8333743   1.335   4.908   2.537  2.6457 -2.9575 -0.3917
   31MOL    H8433744   1.506   5.089   2.714  0.8982 -0.6373 -2.2046
   31MOL    H8533745   1.485   4.919   2.751  2.0348  1.4360  0.9371
   31MOL    H8633746   1.276   4.926   2.825 -1.5567 -0.0238 -1.0765
   31MOL    H8733747   1.225   5.044   2.709  1.5000 -1.3506 -2.1086
   31MOL    H8833748   1.200   5.122   2.942  0.7115 -3.8508 -0.6653
   31MOL    H8933749   1.370   5.094   2.977 -1.2745  0.3747  0.8001
   31MOL    H9033750   1.433   5.281   2.850 -1.0815 -0.9900 -2.7655
   31MOL    H9133751   1.306   5.328   2.962  2.0491  0.7299 -1.0033
   31MOL    H9233752   1.158   5.293   2.757 -0.3539  0.6842  0.0046
   31MOL    H9333753   1.305   5.310   2.657 -1.3804 -0.1154 -0.1999
   31MOL    H9433754   1.162   5.503   2.698 -1.0813 -2.0749  0.5443
   31MOL    H9533755   1.188   5.491   2.869 -0.6388 -1.5637 -0.2545
   31MOL    H9633756   1.425   5.525   2.683 -2.9380  1.3061 -2.5936
   31MOL    H9733757   1.430   5.557   2.848 -0.9399  1.0612  0.7206
   31MOL    H9833758   1.284   5.765   2.819  1.6722  1.1236  0.5805
   31MOL    H9933759   1.438   5.760   2.744 -0.5730  1.4456 -0.4533
   31MOL   H10033760   1.134   5.853   2.696 -2.3166 -0.4019 -0.7395
   31MOL   H10133761   1.109   5.766   2.415  0.4582  1.7031 -1.5546
   31MOL   H10233762   1.076   5.933   2.455  0.1057 -0.3669 -1.1930
   31MOL   H10333763   0.922   5.862   2.631 -1.2914  0.6677 -1.4672
   31MOL   H10433764   0.865   5.850   2.470  0.8233 -0.0185 -0.7887
   31MOL   H10533765   0.945   5.618   2.652  0.0063 -2.6170 -1.2317
   31MOL   H10633766   0.931   5.588   2.487  0.1886 -0.7306  0.5375
   31MOL   H10733767   0.720   5.686   2.684 -1.8284 -2.0638 -0.3927
   31MOL   H10833768   0.686   5.692   2.520 -2.1891  3.0507  3.3802
   31MOL   H10933769   0.750   5.447   2.680 -0.9479  1.2312  1.1059
   31MOL   H11033770   0.719   5.451   2.500  0.3861  1.0257 -0.1493
   31MOL   H11133771   0.517   5.381   2.634 -2.4428  0.6264  1.0051
   31MOL   H11233772   0.477   5.543   2.567 -0.3902 -0.1290 -0.7854
   31MOL   H11333773   0.539   5.464   2.844  1.3778  1.2943  0.3831
   31MOL   C11433774   0.451   5.635   2.800 -0.6078  0.0654  0.1550
   31MOL   O11533775   0.433   5.730   2.730 -0.1946 -0.2712 -0.2841
   31MOL   C11633776   0.392   5.630   2.944  0.2938  0.2453 -0.8384
   31MOL   C11733777   0.423   5.746   3.045 -0.2926  0.2060  0.2443
   31MOL   C11833778   0.336   5.734   3.165 -0.4871 -0.2056 -0.2136
   31MOL   C11933779   0.382   5.831   3.271  0.3243 -0.2521 -0.6258
   31MOL   C12033780   0.508   5.790   3.347  0.1810 -0.2280 -0.9590
   31MOL   C12133781   0.553   5.869   3.465 -0.4661  0.2378  0.7640
   31MOL   C12233782   0.694   5.942   3.471 -0.0622  0.8968  0.0860
   31MOL   C12333783   0.711   6.076   3.401 -0.3579  0.0526  0.0809
   31MOL   C12433784   0.723   6.054   3.252 -0.3232  0.3814 -0.6609
   31MOL   C12533785   0.721   6.188   3.169  0.2601  0.7238  0.9532
   31MOL   C12633786   0.691   6.170   3.017  0.3651  0.1874  0.3424
   31MOL   O12733787   0.697   6.061   2.958  0.0918 -0.0487  0.1663
   31MOL   N12833788   0.659   6.283   2.956 -0.7397 -0.5895 -0.3094
   31MOL   C12933789   0.633   6.296   2.808  0.9951  0.1661 -0.3904
   31MOL   C13033790   0.675   6.436   2.768  0.2941  0.1020 -0.9543
   31MOL   C13133791   0.660   6.455   2.613  0.2136 -0.3475  0.2027
   31MOL   C13233792   0.510   6.481   2.572 -0.3891  0.5359 -0.6451
   31MOL   C13333793   0.460   6.616   2.625 -0.2714  0.9269  0.3767
   31MOL   C13433794   0.315   6.646   2.582 -0.1073  0.4790 -0.1328
   31MOL   N13533795   0.267   6.765   2.644  0.0284  0.7180 -0.5643
   31MOL   H13633796   0.286   5.616   2.926  0.2612  1.0187 -1.2312
   31MOL   H13733797   0.425   5.535   2.988  0.2121  0.8773  0.5939
   31MOL   H13833798   0.410   5.843   2.999  2.4954  0.0129 -1.0795
   31MOL   H13933799   0.528   5.731   3.071 -0.5389  0.2107  1.2732
   31MOL   H14033800   0.229   5.748   3.149  0.0630  3.4070 -1.1006
   31MOL   H14133801   0.349   5.634   3.207  3.0857 -0.4383 -1.6933
   31MOL   H14233802   0.403   5.932   3.234  1.1969 -0.7326 -1.4372
   31MOL   H14333803   0.297   5.845   3.339  1.2729 -0.2027  0.5713
   31MOL   H14433804   0.497   5.684   3.372 -1.6061  0.3293  0.7584
   31MOL   H14533805   0.586   5.795   3.270  0.5667  0.5736 -0.5126
   31MOL   H14633806   0.544   5.800   3.549  0.4941  0.1964  0.8403
   31MOL   H14733807   0.475   5.945   3.474 -1.2924 -0.2612 -1.7652
   31MOL   H14833808   0.705   5.967   3.577  0.7060  1.1239 -0.0422
   31MOL   H14933809   0.779   5.878   3.447 -0.2059  0.4884  0.6461
   31MOL   H15033810   0.806   6.123   3.427 -0.2689  0.8925 -1.7087
   31MOL   H15133811   0.630   6.148   3.417 -0.3605  0.0487  0.0852
   31MOL   H15233812   0.629   6.013   3.216  0.3316 -0.9122 -0.9044
   31MOL   H15333813   0.802   5.988   3.217  0.9383  0.4999  1.8388
   31MOL   H15433814   0.814   6.242   3.183  0.8196  0.3899 -1.2626
   31MOL   H15533815   0.638   6.248   3.207 -0.1720  0.0218  1.1242
   31MOL   H15633816   0.660   6.372   3.004 -0.0162 -0.3299 -0.7936
   31MOL   H15733817   0.532   6.267   2.781  1.2554 -0.4634 -0.7036
   31MOL   H15833818   0.697   6.224   2.757  0.5664 -1.6246  1.5410
   31MOL   H15933819   0.780   6.453   2.792  0.2862  3.4153 -2.9089
   31MOL   H16033820   0.632   6.515   2.829  0.9813 -0.5852  0.4278
   31MOL   H16133821   0.718   6.543   2.586  0.4361 -0.7033 -0.4928
   31MOL   H16233822   0.708   6.367   2.570 -0.0896  0.7040 -2.3233
   31MOL   H16333823   0.509   6.497   2.464  0.8819 -1.1207 -0.9184
   31MOL   H16433824   0.446   6.397   2.597  0.4137  0.2516  0.5091
   31MOL   H16533825   0.525   6.699   2.598 -0.0249  0.8519  0.7295
   31MOL   H16633826   0.453   6.617   2.734  1.9798  0.2877  0.5424
   31MOL   H16733827   0.299   6.657   2.475  0.4134  0.9167 -0.1660
   31MOL   H16833828   0.248   6.565   2.610  1.1417 -0.3592  0.4640
   31MOL   H16933829   0.214   6.754   2.730  0.3698  0.9833 -0.3174
   31MOL   C17033830   0.262   6.884   2.584 -0.8120 -0.2644 -0.1872
   31MOL   O17133831   0.332   6.911   2.481 -0.0463 -0.5374 -0.4108
   31MOL   C17233832   0.157   6.984   2.640 -0.7550 -0.0146  0.2969
   31MOL   C17333833   0.195   7.130   2.619  0.1526 -0.2114 -0.0420
   31MOL   C17433834   0.082   7.228   2.664 -0.0621 -0.4349 -0.1998
   31MOL   C17533835   0.116   7.377   2.649 -0.0382 -0.2629 -0.4937
   31MOL   C17633836   0.142   7.416   2.499  0.7819 -1.6694  0.0750
   31MOL   C17733837   0.129   7.571   2.476 -0.2017 -0.6629 -0.8434
   31MOL   C17833838   0.194   7.627   2.351  0.1196 -0.0092 -0.3620
   31MOL   C17933839   0.124   7.591   2.222 -0.3869  0.7093  0.2978
   31MOL   C18033840   0.183   7.654   2.089  0.4434 -0.7246 -0.5079
   31MOL   C18133841   0.076   7.657   1.978  0.3226 -0.0213 -0.7319
   31MOL   C18233842   7.660   0.081   1.988  0.3366  0.0233  0.0750
   31MOL   O18333843   7.690   0.183   2.052 -0.6984 -0.1723  0.5630
   31MOL   N18433844   7.544   0.063   1.932 -0.1156  0.2523  0.4922
   31MOL   C18533845   7.439   0.170   1.920 -0.1003 -0.3769 -0.9351
   31MOL   C18633846   7.486   0.282   1.821  0.3585  0.2374  0.3713
   31MOL   C18733847   7.372   0.374   1.778 -0.6096  0.5832  0.3985
   31MOL   C18833848   7.328   0.464   1.892  0.1312 -0.1194  0.4629
   31MOL   C18933849   7.202   0.547   1.863 -0.1367 -0.8184 -0.7187
   31MOL   C19033850   7.161   0.644   1.974  0.1208 -0.1618  0.4203
   31MOL   N19133851   7.102   0.569   2.085  0.4743 -0.0213 -0.0909
   31MOL   H19233852   0.062   6.961   2.591 -0.7050  0.2068  0.0941
   31MOL   H19333853   0.136   6.966   2.746 -1.5460  1.0712  0.3372
   31MOL   H19433854   0.232   7.151   2.518 -1.5319 -1.0350 -0.8568
   31MOL   H19533855   0.288   7.144   2.673 -0.0135 -1.2448  0.5334
   31MOL   H19633856   0.041   7.225   2.764 -1.0702  2.2235 -0.4827
   31MOL   H19733857   7.686   7.208   2.603 -0.4305  2.0833 -0.5312
   31MOL   H19833858   0.044   7.438   2.704  0.4854  0.2953 -0.4151
   31MOL   H19933859   0.207   7.390   2.707  0.1536  1.0713 -1.0821
   31MOL   H20033860   0.240   7.383   2.464  0.7325  1.3579 -3.2513
   31MOL   H20133861   0.071   7.378   2.426  1.5146 -1.4233 -0.7855
   31MOL   H20233862   0.185   7.608   2.562 -0.8521  0.2231 -0.8011
   31MOL   H20333863   0.028   7.608   2.490  1.1727  2.1463  2.4704
   31MOL   H20433864   0.197   0.044   2.346  1.7142 -0.1251 -2.3382
   31MOL   H20533865   0.297   7.590   2.345  0.5588  0.7686  1.8935
   31MOL   H20633866   0.116   7.482   2.210  0.2616  0.7455 -0.5577
   31MOL   H20733867   0.023   7.630   2.227 -0.6110  0.5405 -2.1394
   31MOL   H20833868   0.265   7.588   2.061  0.4482 -1.7920  1.8772
   31MOL   H20933869   0.219   0.063   2.107 -0.7157 -0.5921  1.2009
   31MOL   H21033870   0.116   7.677   1.879 -0.8334  0.2427 -1.1633
   31MOL   H21133871   0.018   7.565   1.976 -1.0332  0.7277  1.8066
   31MOL   H21233872   7.537   7.673   1.872  2.0279  1.6159 -1.7521
   31MOL   H21333873   7.421   0.208   2.020 -0.3441  0.8074 -1.4283
   31MOL   H21433874   7.352   0.111   1.892  0.1915 -1.6542  0.7646
   31MOL   H21533875   7.563   0.341   1.871  0.2741 -0.0631  0.8549
   31MOL   H21633876   7.539   0.235   1.738  0.5292  0.5301  0.3124
   31MOL   H21733877   7.403   0.442   1.699  0.2148 -0.5697 -0.2816
   31MOL   H21833878   7.291   0.313   1.740 -0.2960 -0.0465  0.7288
   31MOL   H21933879   7.406   0.535   1.919  0.6314 -0.4105 -0.2090
   31MOL   H22033880   7.309   0.405   1.982  1.1786 -1.2583 -0.0524
   31MOL   H22133881   7.115   0.483   1.848 -0.8478  0.3566 -1.6691
   31MOL   H22233882   7.208   0.597   1.766 -0.1761 -1.7144 -1.1882
   31MOL   H22333883   7.101   0.728   1.941  1.7903  0.9094  0.0265
   31MOL   H22433884   7.242   0.706   2.012 -0.0160  1.6370 -2.1068
   31MOL   H22533885   7.074   0.478   2.050  2.7987 -1.3971  1.5087
   31MOL   C22633886   7.040   0.621   2.191  0.1985  0.4998 -0.3384
   31MOL   O22733887   7.054   0.737   2.220 -0.6021 -0.5825  0.1897
   31MOL   C22833888   6.945   0.531   2.274 -0.1912 -0.3014  0.3375
   31MOL   C22933889   6.903   0.611   2.399  0.6227 -0.4387  0.1198
   31MOL   C23033890   6.847   0.516   2.505  0.3753 -0.0035  0.1499
   31MOL   C23133891   6.796   0.586   2.634 -0.2508  0.5409 -0.3334
   31MOL   C23233892   6.730   0.493   2.728  0.0721  0.4225 -0.1865
   31MOL   C23333893   6.827   0.392   2.793 -0.2572 -0.6180  0.1670
   31MOL   C23433894   6.758   0.297   2.892  0.6335  0.3826  0.0983
   31MOL   C23533895   6.856   0.198   2.955 -0.5273 -0.3457  0.1367
   31MOL   C23633896   6.805   0.080   3.039 -0.4644  1.0137  0.2219
   31MOL   C23733897   6.913   7.684   3.102  0.4236 -0.1018  0.3878
   31MOL   C23833898   6.856   7.558   3.175  0.1751  0.2654  0.1898
   31MOL   O23933899   6.761   7.495   3.129  0.0851 -0.9977 -0.2247
   31MOL   N24033900   6.923   7.510   3.280  0.2040  0.1710 -0.6550
   31MOL   C24133901   6.894   7.387   3.354 -0.0344  0.1363 -0.8734
   31MOL   C24233902   7.009   7.348   3.456  0.6803 -0.0444 -0.0549
   31MOL   C24333903   6.975   7.235   3.550  0.5825 -0.3444 -0.8058
   31MOL   C24433904   7.093   7.175   3.616  0.0655  0.0544 -0.9045
   31MOL   C24533905   7.061   7.081   3.725  0.5200  0.0213 -0.0533
   31MOL   C24633906   7.189   7.027   3.793  0.1312 -0.7525 -0.0568
   31MOL   N24733907   7.159   6.907   3.870  0.4299 -0.4713  0.4147
   31MOL   H24833908   6.989   0.436   2.306 -1.3757 -0.5276  1.3691
   31MOL   H24933909   6.852   0.508   2.221  1.2580 -1.0779 -1.9467
   31MOL   H25033910   6.999   0.647   2.437  2.1363 -1.6216 -2.4619
   31MOL   H25133911   6.834   0.695   2.389  2.3427  1.0407  0.4779
   31MOL   H25233912   6.763   0.457   2.467 -0.2935  1.4371 -0.6559
   31MOL   H25333913   6.923   0.442   2.530  1.4125  1.7348  2.3263
   31MOL   H25433914   6.721   0.661   2.609 -0.6603 -0.2389 -1.4941
   31MOL   H25533915   6.875   0.647   2.676  1.4716 -1.8750  0.0211
   31MOL   H25633916   6.644   0.441   2.687  1.7488 -1.6864 -1.1496
   31MOL   H25733917   6.690   0.556   2.808  2.1515 -0.3295  1.5085
   31MOL   H25833918   6.871   0.325   2.719  0.5992 -0.9205  0.9407
   31MOL   H25933919   6.909   0.442   2.846 -0.4461 -0.4060  0.2634
   31MOL   H26033920   6.678   0.242   2.841  0.8727 -0.1434  0.2828
   31MOL   H26133921   6.714   0.358   2.971 -0.4397 -0.4925  0.1963
   31MOL   H26233922   6.908   0.154   2.870  0.9666  0.7686  0.4550
   31MOL   H26333923   6.936   0.257   3.000 -0.3157  0.1575 -0.8795
   31MOL   H26433924   6.740   0.115   3.120 -0.2541 -1.3361  1.4542
   31MOL   H26533925   6.742   0.018   2.976  1.1470 -0.7282  0.3007
   31MOL   H26633926   6.984   7.660   3.022  0.4417 -1.0954  0.6988
   31MOL   H26733927   6.975   0.047   3.173  0.7864  1.4909 -1.1022
   31MOL   H26833928   7.010   7.560   3.294 -1.0075  1.7024  1.6927
   31MOL   H26933929   6.875   7.315   3.275 -0.2354 -0.5745 -0.1926
   31MOL   H27033930   6.797   7.397   3.403 -0.2452 -1.5389 -0.9101
   31MOL   H27133931   7.020   7.438   3.515 -2.2360  0.2463  0.1463
   31MOL   H27233932   7.097   7.313   3.403 -0.5596 -0.0652 -2.1957
   31MOL   H27333933   6.890   7.256   3.615  0.5785 -2.5449 -0.0516
   31MOL   H27433934   6.937   7.150   3.492  1.3889 -0.3820 -1.2884
   31MOL   H27533935   7.162   7.255   3.642 -2.5904  1.4459  2.2788
   31MOL   H27633936   7.149   7.126   3.537  0.4571  1.9777 -1.8608
   31MOL   H27733937   7.002   6.998   3.686  0.2970 -0.5171  1.4048
   31MOL   H27833938   7.000   7.126   3.803 -0.2823  1.3747 -1.4322
   31MOL   H27933939   7.220   7.107   3.860  0.8665 -0.9779 -0.1200
   31MOL   H28033940   7.270   7.003   3.724 -0.7011 -0.0276 -1.3150
   31MOL   H28133941   7.120   6.828   3.821  0.3712 -2.6610  3.8364
   31MOL   C28233942   7.165   6.884   4.000 -0.4117  0.3400 -0.3833
   31MOL   O28333943   7.217   6.961   4.083  0.0093  0.7750 -0.2320
   31MOL   C28433944   7.110   6.745   4.041  0.4020  0.0955  0.2448
   31MOL   C28533945   7.109   6.709   4.189  0.1571 -0.9518  0.0007
   31MOL   C28633946   7.238   6.691   4.271  0.7634 -0.4861 -0.4067
   31MOL   C28733947   7.204   6.622   4.405 -0.0525 -0.1803  0.3716
   31MOL   C28833948   7.318   6.629   4.511  0.0768  0.7156  0.4294
   31MOL   C28933949   7.317   6.762   4.581  0.8587 -0.2964 -0.6974
   31MOL   C29033950   7.198   6.779   4.677 -0.0981  0.4892 -0.4156
   31MOL   C29133951   7.121   6.919   4.648 -0.1660  0.5881  0.0036
   31MOL   C29233952   7.196   7.048   4.697  0.8743 -0.5054  0.6480
   31MOL   C29333953   7.123   7.176   4.644  0.3597  0.8222 -0.5575
   31MOL   C29433954   7.163   7.226   4.505  0.1338  0.6763  0.1984
   31MOL   O29533955   7.248   7.314   4.506  0.1072  0.4662  0.1592
   31MOL   N29633956   7.094   7.190   4.400  0.1487 -0.1652  0.0440
   31MOL   C29733957   7.122   7.206   4.262 -0.0873  0.3768 -0.0871
   31MOL   C29833958   7.051   7.326   4.206 -1.2972 -0.2610  0.1139
   31MOL   C29933959   7.061   7.348   4.054 -0.0164 -0.3293  0.2502
   31MOL   C30033960   7.003   7.483   4.010 -0.6146 -0.1974 -0.1187
   31MOL   C30133961   6.967   7.487   3.866  0.2443  1.1715  0.8058
   31MOL   C30233962   6.884   7.606   3.828 -0.4216  0.0635 -0.8786
   31MOL   N30333963   6.942   0.040   3.858  0.4950 -0.1398 -0.7489
   31MOL   H30433964   7.007   6.741   4.008  1.0040 -2.1034 -1.4302
   31MOL   H30533965   7.162   6.665   3.988  0.2175 -1.0404  1.7468
   31MOL   H30633966   7.054   6.616   4.207 -2.2141  0.4616  0.3187
   31MOL   H30733967   7.044   6.784   4.235 -1.8129 -1.7383 -1.4600
   31MOL   H30833968   7.299   6.617   4.220 -0.5896 -1.5134 -0.5615
   31MOL   H30933969   7.305   6.775   4.290 -0.4109  0.0704  1.3531
   31MOL   H31033970   7.179   6.517   4.395 -1.7381  0.2932 -0.4960
   31MOL   H31133971   7.119   6.677   4.446  0.5526 -0.7896  2.5379
   31MOL   H31233972   7.305   6.549   4.584  0.1403  1.3664  1.1638
   31MOL   H31333973   7.417   6.610   4.471 -0.7795  0.0476 -1.4372
   31MOL   H31433974   7.402   6.776   4.648  0.3221  1.6660 -0.3834
   31MOL   H31533975   7.331   6.857   4.531 -0.4553  1.1586  1.5890
   31MOL   H31633976   7.208   6.775   4.786  0.3876 -0.9652 -0.5021
   31MOL   H31733977   7.137   6.689   4.665  1.0441 -0.2916 -0.4459
   31MOL   H31833978   7.021   6.928   4.691  1.0706 -0.4864  3.2043
   31MOL   H31933979   7.095   6.921   4.542  1.7324  2.3960 -0.4505
   31MOL   H32033980   7.213   7.050   4.804  1.3881 -0.9933  0.5789
   31MOL   H32133981   7.296   7.042   4.653  2.1690  0.0873  3.4084
   31MOL   H32233982   7.016   7.157   4.640  0.5622 -1.0441  1.6923
   31MOL   H32333983   7.135   7.259   4.714  0.2520  1.6732 -1.5285
   31MOL   H32433984   7.032   7.111   4.414  0.7212 -0.4118  1.3080
   31MOL   H32533985   7.081   7.121   4.207 -0.8900  0.9288 -0.3402
   31MOL   H32633986   7.229   7.215   4.244 -0.2560 -0.9642 -1.9081
   31MOL   H32733987   7.067   7.420   4.259  1.2199  0.8340 -2.4488
   31MOL   H32833988   6.945   7.322   4.231 -1.1352 -0.1401  0.8461
   31MOL   H32933989   6.994   7.278   4.003 -0.4077  2.9492 -4.0942
   31MOL   H33033990   7.160   7.333   4.011 -0.1108 -1.2880  0.3442
   31MOL   H33133991   6.910   7.508   4.060  1.1391  1.5427  2.3699
   31MOL   H33233992   7.067   7.565   4.042  1.0947 -1.8579  0.7816
   31MOL   H33333993   6.912   7.396   3.842 -1.5367  1.7438  2.5651
   31MOL   H33433994   7.060   7.480   3.809  0.7828 -0.9168  1.8889
   31MOL   H33533995   6.854   7.589   3.724 -3.4732 -0.2982  0.0041
   31MOL   H33633996   6.784   7.600   3.873 -0.4624  2.0812 -0.6764
   31MOL   H33733997   6.985   0.094   3.785 -0.1094  1.9836  0.4095
   31MOL   C33833998   6.922   0.111   3.972  0.4860 -0.0826  0.3141
   31MOL   O33933999   6.865   0.062   4.065  0.1242 -0.1737 -0.1231
   31MOL   C34034000   6.984   0.247   3.978  0.0461 -0.5234 -0.6537
   31MOL   C34134001   7.051   0.287   4.109 -0.1081  0.5313 -0.0389
   31MOL   C34234002   7.187   0.222   4.153 -0.1029 -0.1313  0.1379
   31MOL   C34334003   7.302   0.237   4.050 -0.3354  0.0287 -0.2952
   31MOL   C34434004   7.419   0.151   4.092 -0.1438 -0.2418  0.3675
   31MOL   C34534005   7.530   0.138   3.986  0.1253 -0.0013  0.6956
   31MOL   C34634006   7.649   0.235   4.004 -0.1024  0.0167 -0.0070
   31MOL   C34734007   0.036   0.272   3.878  0.4295  0.1150 -0.7115
   31MOL   C34834008   0.160   0.358   3.892  0.4950 -0.0123 -0.6606
   31MOL   C34934009   0.143   0.489   3.973 -0.5491  0.4296 -0.4225
   31MOL   C35034010   0.087   0.606   3.888  0.6942 -0.3913 -0.0317
   31MOL   O35134011   0.155   0.644   3.795  0.6609  0.1505  0.0444
   31MOL   N35234012   7.654   0.652   3.911  0.1537  0.3904 -0.1804
   31MOL   C35334013   7.592   0.767   3.837  0.1747 -0.1847 -0.1145
   31MOL   C35434014   7.489   0.848   3.924 -0.4402  0.7388 -0.3622
   31MOL   C35534015   7.433   0.970   3.844  0.1066 -0.2415 -0.1329
   31MOL   C35634016   7.345   1.079   3.921 -1.0575  0.9435 -1.0031
   31MOL   C35734017   7.310   1.195   3.827 -0.0590  0.4301  0.3561
   31MOL   C35834018   7.295   1.327   3.900 -0.8673 -0.3649  0.3295
   31MOL   N35934019   7.271   1.430   3.803 -0.1905 -0.6777  0.1161
   31MOL   H36034020   6.900   0.314   3.963  0.9961  1.0955  1.0701
   31MOL   H36134021   7.056   0.258   3.897  0.4932 -1.0055 -0.3269
   31MOL   H36234022   7.067   0.393   4.092  0.2736 -0.0120 -3.2437
   31MOL   H36334023   6.977   0.271   4.188 -0.5796 -1.8678 -0.9270
   31MOL   H36434024   7.169   0.114   4.152  0.1633 -0.1997 -2.5897
   31MOL   H36534025   7.217   0.242   4.255 -0.8437 -1.3539  0.6149
   31MOL   H36634026   7.263   0.217   3.950  0.4051  1.5427 -0.9034
   31MOL   H36734027   7.342   0.337   4.035  1.2767 -0.2315  2.1007
   31MOL   H36834028   7.464   0.199   4.178  0.7735 -1.9248  0.8508
   31MOL   H36934029   7.380   0.057   4.130  1.4825 -1.2334 -0.3796
   31MOL   H37034030   7.563   0.034   3.986 -0.1162 -0.0776 -0.4644
   31MOL   H37134031   7.486   0.157   3.888 -0.5319 -1.7800  0.6355
   31MOL   H37234032   7.614   0.327   4.051  2.0690  1.8417 -1.8269
   31MOL   H37334033   0.030   0.190   4.072  0.2620 -1.5305 -1.3755
   31MOL   H37434034   0.046   0.189   3.808  0.3281 -0.5562  0.0661
   31MOL   H37534035   7.668   0.333   3.810  0.9122  0.2287 -1.0382
   31MOL   H37634036   0.184   0.390   3.791  0.9353  1.1201 -0.1994
   31MOL   H37734037   0.249   0.304   3.926  2.4712  2.0916 -2.3983
   31MOL   H37834038   0.075   0.469   4.056  0.6741  0.1957  0.5232
   31MOL   H37934039   0.241   0.520   4.008 -0.6200  0.7660 -0.5161
   31MOL   H38034040   7.593   0.602   3.975  2.1397  1.2318  2.4537
   31MOL   H38134041   7.534   0.725   3.755 -1.6269  0.8728  0.5817
   31MOL   H38234042   7.667   0.836   3.801 -1.0374  0.3852 -1.5925
   31MOL   H38334043   7.520   0.875   4.025  0.2424 -0.3220 -0.2786
   31MOL   H38434044   7.399   0.792   3.949 -0.2081  1.2630  1.7203
   31MOL   H38534045   7.525   1.020   3.813  0.3040 -0.6351 -0.1806
   31MOL   H38634046   7.381   0.928   3.757 -1.5703 -1.1330  1.2696
   31MOL   H38734047   7.258   1.041   3.973  0.7334  1.7961  2.7973
   31MOL   H38834048   7.403   1.105   4.010  2.2368 -1.1741 -2.4500
   31MOL   H38934049   7.218   1.171   3.773 -0.7036  1.9353  0.7770
   31MOL   H39034050   7.388   1.218   3.754 -0.2058  1.8250  0.6323
   31MOL   H39134051   7.216   1.322   3.975  0.3428 -4.6649  1.4224
   31MOL   H39234052   7.382   1.360   3.957 -0.2964 -2.1086  0.4868
   31MOL   H39334053   7.344   1.497   3.784 -0.3301 -0.4775  0.2774
   31MOL   C39434054   7.155   1.454   3.750  0.0474  0.0533  0.1424
   31MOL   O39534055   7.063   1.370   3.754 -0.2673  0.0760  0.1499
   31MOL   C39634056   7.142   1.581   3.670  0.3652 -0.0986  0.3598
   31MOL   C39734057   7.064   1.573   3.537 -0.2104 -0.5209 -0.3940
   31MOL   C39834058   6.915   1.606   3.549  0.6356  0.1385  0.0636
   31MOL   C39934059   6.838   1.555   3.420  0.3242  0.5543  0.3232
   31MOL   C40034060   6.812   1.401   3.405 -0.2537 -0.1744 -0.0083
   31MOL   C40134061   6.746   1.357   3.266 -0.6559  0.4471  1.1187
   31MOL   C40234062   6.730   1.208   3.236  0.0999 -0.2670  0.3716
   31MOL   C40334063   6.702   1.177   3.086 -0.1401  0.5659 -0.2041
   31MOL   C40434064   6.764   1.041   3.048 -0.6289  0.1964 -0.5044
   31MOL   C40534065   6.909   1.037   3.001 -0.0092  0.3669  0.4276
   31MOL   C40634066   6.962   0.898   2.994  0.3565 -0.1142  0.1542
   31MOL   O40734067   6.892   0.802   3.024  0.4782 -0.5744 -0.0609
   31MOL   N40834068   7.098   0.890   2.967 -0.3349  0.2882  0.4598
   31MOL   C40934069   7.169   0.759   2.984 -0.1448 -0.3649 -0.9091
   31MOL   C41034070   7.209   0.696   2.852 -0.7903  0.6698 -0.3199
   31MOL   C41134071   7.245   0.545   2.879  0.6324 -0.3579  0.4764
   31MOL   C41234072   7.287   0.469   2.752 -0.2187 -0.4992  0.1841
   31MOL   C41334073   7.343   0.332   2.795 -0.4207  0.5414  0.1065
   31MOL   C41434074   7.493   0.337   2.829  0.7323  0.8653  0.5582
   31MOL   N41534075   7.566   0.213   2.807  0.5687  0.2035 -0.1346
   31MOL   H41634076   7.245   1.612   3.652  0.4558  0.5245  1.9334
   31MOL   H41734077   7.091   1.652   3.735 -0.3325  0.8095 -1.1198
   31MOL   H41834078   7.069   1.472   3.494 -0.0169 -0.0613 -1.4632
   31MOL   H41934079   7.105   1.640   3.462 -0.2964 -1.4508 -1.2792
   31MOL   H42034080   6.900   1.711   3.575  0.5062  0.4660 -1.2919
   31MOL   H42134081   6.876   1.551   3.634  0.0706  0.5365  0.0636
   31MOL   H42234082   6.888   1.597   3.333  1.3085  2.9845  2.0211
   31MOL   H42334083   6.738   1.599   3.423 -0.4553 -1.1112 -0.1755
   31MOL   H42434084   6.907   1.349   3.418  0.8508  1.0471 -2.8056
   31MOL   H42534085   6.746   1.370   3.486 -1.8754  1.5113 -0.6581
   31MOL   H42634086   6.646   1.400   3.262 -0.3645  0.9886 -1.4777
   31MOL   H42734087   6.813   1.400   3.191  1.0572  0.6309  2.7198
   31MOL   H42834088   6.830   1.169   3.255 -1.2608 -4.2158 -0.0766
   31MOL   H42934089   6.669   1.157   3.311  1.3115 -0.6367  1.1217
   31MOL   H43034090   6.595   1.165   3.070 -0.1512  0.7253 -0.2548
   31MOL   H43134091   6.730   1.249   3.009 -0.5018 -0.6565 -1.5048
   31MOL   H43234092   6.711   0.989   2.968 -0.2858 -0.1892 -0.4774
   31MOL   H43334093   6.756   0.974   3.134  0.9308 -0.2462 -0.7020
   31MOL   H43434094   6.930   1.093   2.910  0.4835  0.0352  0.3318
   31MOL   H43534095   6.974   1.089   3.071  1.5097 -1.0494  0.1076
   31MOL   H43634096   7.142   0.966   2.916 -1.8475  1.5936  1.0464
   31MOL   H43734097   7.102   0.689   3.033 -1.8418  0.4605 -1.9931
   31MOL   H43834098   7.250   0.768   3.056 -1.2721  0.2158  0.3092
   31MOL   H43934099   7.295   0.752   2.814 -1.0664 -0.1396 -2.1852
   31MOL   H44034100   7.126   0.703   2.783 -0.8470 -0.6362 -0.4071
   31MOL   H44134101   7.320   0.563   2.956  0.4572  0.6373  0.4314
   31MOL   H44234102   7.156   0.497   2.920  0.3814 -0.8182 -0.5888
   31MOL   H44334103   7.197   0.456   2.691 -1.1198 -1.0461  1.5882
   31MOL   H44434104   7.361   0.528   2.699 -0.9504 -0.0731 -0.3730
   31MOL   H44534105   7.280   0.301   2.879 -0.8114  0.3390 -0.2574
   31MOL   H44634106   7.325   0.266   2.710  1.7314  0.3523 -0.2392
   31MOL   H44734107   7.540   0.414   2.767  1.7268 -1.0998 -1.1794
   31MOL   H44834108   7.511   0.385   2.926  1.9908  0.6085  0.4634
   31MOL   H44934109   7.623   0.201   2.725  1.5134  0.6820  0.4455
   31MOL   C45034110   7.588   0.119   2.903 -0.0049 -0.8540  1.0154
   31MOL   O45134111   7.541   0.126   3.018 -0.3190 -0.4763  0.0541
   31MOL   C45234112   7.684   0.002   2.867  0.0024 -0.1619 -0.2689
   31MOL   C45334113   0.096   7.673   2.973 -0.0996  0.4027 -0.4216
   31MOL   C45434114   0.051   7.594   3.095  0.6399  0.0981 -0.1396
   31MOL   C45534115   0.174   7.567   3.188 -0.6609  0.4227  0.4808
   31MOL   C45634116   0.276   7.467   3.142 -0.0392 -0.1430 -0.3132
   31MOL   C45734117   0.383   7.446   3.246 -0.2752 -0.1517 -0.6774
   31MOL   C45834118   0.487   7.342   3.226  0.1742  0.0475 -0.4640
   31MOL   C45934119   0.568   7.321   3.356 -0.2643 -0.2117  0.7773
   31MOL   C46034120   0.678   7.207   3.338 -0.7173  0.2462 -0.2219
   31MOL   C46134121   0.782   7.182   3.458  0.0489  0.4514  0.3329
   31MOL   C46234122   0.744   7.059   3.548  0.4124  0.1376 -0.1465
   31MOL   O46334123   0.694   6.957   3.492 -0.1599 -0.1856 -0.3259
   31MOL   N46434124   0.758   7.068   3.682  0.5006  0.9338 -0.0083
   31MOL   C46534125   0.711   6.969   3.776 -0.0092  0.6212  0.1323
   31MOL   C46634126   0.567   6.990   3.824 -0.1459  0.3366 -0.5574
   31MOL   C46734127   0.532   7.130   3.869 -0.0170  0.1403 -0.1717
   31MOL   C46834128   0.603   7.177   4.000  0.3460 -0.0599  0.0534
   31MOL   C46934129   0.563   7.318   4.050 -0.2286 -0.4764  0.2090
   31MOL   C47034130   0.628   7.429   3.967 -0.4840 -0.5721 -0.1896
   31MOL   N47134131   0.540   7.483   3.865  0.1994  0.1755  0.1013
   31MOL   H47234132   7.625   7.605   2.847 -1.0277  0.9232 -2.2057
   31MOL   H47334133   0.050   0.023   2.777 -0.2165  3.6853  0.4056
   31MOL   H47434134   0.144   0.076   2.999 -1.8522  0.7539  1.7067
   31MOL   H47534135   0.176   7.624   2.918  0.5177 -0.1162  0.9247
   31MOL   H47634136   0.001   7.499   3.077  1.9912 -0.1258 -2.9037
   31MOL   H47734137   7.671   7.649   3.156 -1.2528 -1.4226 -0.9294
   31MOL   H47834138   0.136   7.507   3.270  1.1965 -0.5981  0.6030
   31MOL   H47934139   0.218   7.662   3.216  0.3928 -0.2120  1.0039
   31MOL   H48034140   0.330   7.524   3.066  1.6244 -1.6368 -0.2856
   31MOL   H48134141   0.233   7.376   3.100 -2.3585  0.8349 -0.1170
   31MOL   H48234142   0.327   7.404   3.330 -0.9658  0.6226 -0.7384
   31MOL   H48334143   0.412   7.545   3.280 -2.8841 -0.2408  2.0273
   31MOL   H48434144   0.439   7.251   3.191 -0.1985 -0.3226  0.9632
   31MOL   H48534145   0.551   7.385   3.149  1.3519  0.0738  0.5159
   31MOL   H48634146   0.601   7.421   3.385  1.2384 -0.1888 -0.9149
   31MOL   H48734147   0.511   7.303   3.447  0.2726 -3.5016  0.5111
   31MOL   H48834148   0.742   7.225   3.252 -0.7823 -3.1217 -1.0402
   31MOL   H48934149   0.640   7.111   3.305  2.7491 -0.9779 -0.9424
   31MOL   H49034150   0.868   7.141   3.406 -0.4561 -0.4039  0.1641
   31MOL   H49134151   0.804   7.272   3.515  1.6151 -0.2389  0.8407
   31MOL   H49234152   0.804   7.153   3.711 -0.0324  1.9298 -2.0367
   31MOL   H49334153   0.781   6.968   3.859 -2.1233 -0.6040  1.9478
   31MOL   H49434154   0.713   6.870   3.732 -1.1482  0.9815 -0.7628
   31MOL   H49534155   0.493   6.963   3.749  0.7040 -0.2968 -1.1718
   31MOL   H49634156   0.555   6.918   3.906  0.3574 -1.0636 -1.6946
   31MOL   H49734157   0.427   7.150   3.889  0.4474  1.1750  1.3469
   31MOL   H49834158   0.560   7.201   3.792  0.5451  1.4982  1.2419
   31MOL   H49934159   0.711   7.186   3.987  0.2776 -1.1253 -1.2877
   31MOL   H50034160   0.580   7.108   4.082 -0.3205  1.3248  1.0530
   31MOL   H50134161   0.457   7.344   4.051 -0.1617 -0.0678 -1.4563
   31MOL   H50234162   0.594   7.319   4.154 -0.7203  2.6602  0.3739
   31MOL   H50334163   0.647   7.511   4.037 -0.3175 -2.7096  2.3419
   31MOL   H50434164   0.727   7.401   3.932 -0.5178 -2.1172  0.9332
   31MOL   H50534165   0.467   7.548   3.889 -1.9672 -1.4565 -1.8688
   31MOL   C50634166   0.557   7.458   3.735  0.4282  0.1486 -0.5441
   31MOL   O50734167   0.660   7.414   3.693 -0.1607 -0.3990 -0.0876
   31MOL   C50834168   0.438   7.507   3.656 -0.3039  0.0572 -0.2606
   31MOL   C50934169   0.454   7.632   3.564  0.3391  0.2210  0.5655
   31MOL   C51034170   0.472   0.074   3.639 -0.4266 -1.2944 -0.7832
   31MOL   C51134171   0.481   0.197   3.540 -0.5480  0.0501 -0.9638
   31MOL   C51234172   0.512   0.335   3.603  0.6298 -0.0954  0.0411
   31MOL   C51334173   0.536   0.442   3.495 -0.6239  0.2599 -0.2262
   31MOL   C51434174   0.583   0.572   3.556 -0.8077 -0.5496 -0.8892
   31MOL   C51534175   0.479   0.645   3.646  0.5414 -0.1006 -0.7663
   31MOL   C51634176   0.538   0.763   3.726 -0.0522 -0.0638 -0.1622
   31MOL   C51734177   0.442   0.843   3.820  0.3601 -0.2106  0.3310
   31MOL   C51834178   0.351   0.928   3.732 -0.0914  0.3447 -0.0784
   31MOL   O51934179   0.398   1.021   3.669 -0.4962  0.5143  0.6524
   31MOL   N52034180   0.229   0.881   3.710  0.2240  0.3081  0.1781
   31MOL   C52134181   0.144   0.902   3.595  0.6729  0.4723  0.5435
   31MOL   C52234182   0.068   1.039   3.613 -0.7038  0.0471 -0.0936
   31MOL   C52334183   7.650   1.067   3.516 -0.2491 -0.0217 -0.2895
   31MOL   C52434184   7.589   1.206   3.526  0.0683  0.0011 -0.0491
   31MOL   C52534185   7.468   1.221   3.435  0.2012  1.0668  0.0227
   31MOL   C52634186   7.403   1.363   3.457  0.3458 -0.5478  0.4229
   31MOL   N52734187   7.275   1.368   3.384 -0.0794 -0.1539 -0.0957
   31MOL   H52834188   0.355   7.517   3.726 -0.2959 -0.5150 -0.1652
   31MOL   H52934189   0.418   7.423   3.590 -1.6143  2.2539 -2.7445
   31MOL   H53034190   0.372   7.637   3.493  2.1597  0.6728 -1.5843
   31MOL   H53134191   0.545   7.611   3.508 -0.6771 -2.3966 -0.1500
   31MOL   H53234192   0.560   0.080   3.703 -0.3077 -0.4471 -1.0231
   31MOL   H53334193   0.389   0.086   3.710  0.7369  5.3556 -0.2137
   31MOL   H53434194   0.555   0.186   3.461 -1.7074 -0.1735 -2.0464
   31MOL   H53534195   0.384   0.202   3.490 -1.5144 -0.5903  0.8004
   31MOL   H53634196   0.428   0.363   3.666  1.2969  1.1404  0.3942
   31MOL   H53734197   0.595   0.332   3.675  1.2346  1.2127 -0.5886
   31MOL   H53834198   0.609   0.414   3.419  1.2434  2.4571  0.7098
   31MOL   H53934199   0.444   0.465   3.441 -1.1896  0.3601  0.7641
   31MOL   H54034200   0.656   0.537   3.628  0.8229 -0.3955 -2.4140
   31MOL   H54134201   0.618   0.643   3.481 -0.8351 -0.0534 -0.4347
   31MOL   H54234202   0.412   0.687   3.571 -0.2122 -0.2486 -0.1872
   31MOL   H54334203   0.416   0.589   3.716 -0.2944  1.7836  0.0079
   31MOL   H54434204   0.583   0.830   3.653 -0.7810  0.2197 -0.3575
   31MOL   H54534205   0.617   0.722   3.788  0.8098  1.4949 -0.2218
   31MOL   H54634206   0.382   0.770   3.872  0.2195 -0.2816  0.0705
   31MOL   H54734207   0.507   0.887   3.896 -1.0202  2.8570 -0.1662
   31MOL   H54834208   0.208   0.799   3.765 -0.5390  0.9974  0.9269
   31MOL   H54934209   0.074   0.819   3.585 -0.2809  1.4810 -1.2888
   31MOL   H55034210   0.199   0.913   3.502  1.0106 -1.7453  0.4630
   31MOL   H55134211   0.139   1.120   3.597 -1.9637  0.8365 -1.7756
   31MOL   H55234212   0.039   1.042   3.718 -1.4966  2.1776 -0.3388
   31MOL   H55334213   7.575   0.991   3.536  0.2683 -0.8397 -1.3591
   31MOL   H55434214   7.691   1.061   3.415  0.6507  1.5892 -0.0382
   31MOL   H55534215   7.648   1.295   3.504 -0.8626  0.7176  0.3069
   31MOL   H55634216   7.559   1.216   3.630 -1.3190  2.7415 -0.6609
   31MOL   H55734217   7.495   1.193   3.333 -1.1144  0.5923 -0.2197
   31MOL   H55834218   7.390   1.146   3.452  1.0719  0.4655  1.3821
   31MOL   H55934219   7.374   1.375   3.561  2.3048  0.4514  0.8665
   31MOL   H56034220   7.477   1.435   3.423  1.3339 -1.8393 -0.1958
   31MOL   H56134221   7.200   1.311   3.421  0.9746 -1.7857 -0.4284
   31MOL   C56234222   7.264   1.423   3.260 -0.2851 -0.3044 -0.0878
   31MOL   O56334223   7.356   1.491   3.207 -0.4392  0.1806 -0.3101
   31MOL   C56434224   7.134   1.402   3.187 -0.2800  0.1779 -0.4294
   31MOL   C56534225   7.143   1.399   3.035  0.2819 -0.0793  0.3478
   31MOL   C56634226   7.011   1.443   2.957 -0.1821  0.5005  0.3312
   31MOL   C56734227   7.007   1.409   2.812 -0.0576  0.4544 -0.6778
   31MOL   C56834228   6.877   1.458   2.747  0.3225 -0.3209 -0.4839
   31MOL   C56934229   6.856   1.387   2.616 -0.0530 -0.5211  0.0795
   31MOL   C57034230   6.802   1.240   2.635  0.2580 -0.4916 -0.8137
   31MOL   C57134231   6.798   1.150   2.509 -0.1758 -0.0087 -0.4792
   31MOL   C57234232   6.941   1.139   2.441  0.1331  0.3065 -0.0036
   31MOL   C57334233   6.943   1.019   2.340  0.4485  0.0061 -0.0374
   31MOL   C57434234   6.867   1.040   2.213  0.0543 -0.4242 -0.6591
   31MOL   O57534235   6.785   1.133   2.198 -0.6129  0.1952  0.4351
   31MOL   N57634236   6.899   0.950   2.119 -0.0074  0.3786 -0.0245
   31MOL   C57734237   6.855   0.932   1.977 -0.2830  0.0127 -0.9099
   31MOL   C57834238   6.794   0.790   1.961  0.3633 -0.2224  0.4189
   31MOL   C57934239   6.797   0.734   1.817 -0.7476 -0.0981  0.6337
   31MOL   C58034240   6.750   0.586   1.804 -0.1116 -0.3538  0.5217
   31MOL   C58134241   6.744   0.546   1.662  0.6164  0.1315 -0.0610
   31MOL   C58234242   6.692   0.408   1.652 -0.2226 -0.1535  0.0106
   31MOL   N58334243   6.711   0.357   1.517  0.0443 -0.8008 -0.1421
   31MOL   H58434244   7.083   1.310   3.217  1.7682 -1.0097 -0.5542
   31MOL   H58534245   7.075   1.490   3.214  0.9812  0.2816  2.1245
   31MOL   H58634246   7.221   1.470   3.009 -1.0321  1.0717 -0.5597
   31MOL   H58734247   7.164   1.296   3.004  0.5097 -0.2978  1.2292
   31MOL   H58834248   7.001   1.551   2.967 -1.5599  0.1808  2.9938
   31MOL   H58934249   6.916   1.414   3.003  0.1688 -1.0645  0.1036
   31MOL   H59034250   7.096   1.442   2.758 -0.2772 -1.0564 -1.9731
   31MOL   H59134251   6.998   1.301   2.810 -2.2061  0.6360 -3.4909
   31MOL   H59234252   6.795   1.443   2.817  1.0170  1.5610  0.7823
   31MOL   H59334253   6.874   1.566   2.735  1.4553 -0.2345 -0.1219
   31MOL   H59434254   6.796   1.453   2.553  0.0076  0.5487  1.1230
   31MOL   H59534255   6.954   1.391   2.567 -0.4432 -0.6664 -0.7234
   31MOL   H59634256   6.859   1.184   2.709 -0.2826 -0.0486 -0.0490
   31MOL   H59734257   6.700   1.253   2.672 -0.7709  2.5711 -4.4329
   31MOL   H59834258   6.726   1.212   2.455 -0.5823 -2.7965 -3.2979
   31MOL   H59934259   6.750   1.054   2.525  0.7295 -0.4991 -0.7010
   31MOL   H60034260   7.014   1.106   2.515 -0.3125  0.0119  0.3078
   31MOL   H60134261   6.979   1.231   2.397  0.6206  0.2676  0.3376
   31MOL   H60234262   7.046   0.995   2.312 -0.1539 -1.2638 -1.2020
   31MOL   H60334263   6.911   0.924   2.384 -0.3515  1.0760  1.7482
   31MOL   H60434264   6.969   0.888   2.159  1.5616  1.5141 -0.9769
   31MOL   H60534265   6.949   0.939   1.921  0.7485 -1.0167  0.6426
   31MOL   H60634266   6.782   1.007   1.949  0.0750  0.9022  0.4567
   31MOL   H60734267   6.691   0.794   1.995 -0.3392 -0.9387 -1.5735
   31MOL   H60834268   6.842   0.717   2.026 -0.7586 -0.0822  1.4192
   31MOL   H60934269   6.893   0.752   1.769 -1.0044 -1.4813 -0.4240
   31MOL   H61034270   6.721   0.790   1.762  0.7821 -0.9621 -2.4397
   31MOL   H61134271   6.798   0.513   1.869 -0.9559  0.0299  1.5918
   31MOL   H61234272   6.648   0.595   1.842 -0.4068  0.8462 -0.4989
   31MOL   H61334273   6.847   0.550   1.627  0.3461 -1.7008 -1.1707
   31MOL   H61434274   6.680   0.615   1.606  1.5676  0.4341 -0.7849
   31MOL   H61534275   6.734   0.337   1.723 -2.1925 -1.2304  0.1220
   31MOL   H61634276   6.584   0.410   1.664 -0.1465  0.0402  0.6665
   31MOL   H61734277   6.737   0.426   1.449  1.0462 -1.3435 -0.3060
   31MOL   C61834278   6.695   0.233   1.479 -0.1989  0.3878 -0.3395
   31MOL   O61934279   6.671   0.140   1.556 -0.3195  0.4430 -0.0257
   31MOL   C62034280   6.727   0.198   1.336 -0.2190  0.6400  0.6483
   31MOL   C62134281   6.846   0.105   1.327  0.1880  0.7050  0.5079
   31MOL   C62234282   6.881   0.046   1.183  0.6938  0.7904  0.2751
   31MOL   C62334283   6.806   7.594   1.166  0.2876  0.4133  0.3290
   31MOL   C62434284   6.833   7.505   1.038  0.5519 -0.0846  0.6379
   31MOL   C62534285   6.780   7.363   1.050 -0.2400 -0.2951  0.7888
   31MOL   C62634286   6.821   7.273   0.926  0.5153  0.5502  0.1896
   31MOL   C62734287   6.736   7.298   0.796 -0.3892  0.5641 -0.6622
   31MOL   C62834288   6.587   7.289   0.812 -0.0107  0.6053 -0.0236
   31MOL   C62934289   6.522   7.279   0.678 -0.6209  0.2664  0.0978
   31MOL   C63034290   6.535   7.144   0.599  1.1446 -0.6900 -0.4137
   31MOL   O63134291   6.596   7.055   0.655 -0.2203 -0.1862  0.4436
   31MOL   N63234292   6.482   7.139   0.481  0.2572  0.6620  0.1579
   31MOL   C63334293   6.446   7.013   0.414 -0.6383 -0.5181 -0.2019
   31MOL   C63434294   6.573   6.952   0.347  0.4718  0.0431 -0.5427
   31MOL   C63534295   6.614   7.026   0.223 -0.1637 -0.0944 -0.2046
   31MOL   C63634296   6.528   7.006   0.100 -0.6777 -0.2182 -0.2320
   31MOL   C63734297   6.582   7.061   7.662  0.3204  0.0574  0.1878
   31MOL   C63834298   6.476   7.049   7.555  0.7379 -0.1881  0.0543
   31MOL   N63934299   6.481   7.141   7.443  0.2573 -0.3366  0.7347
   31MOL   H64034300   6.762   0.281   1.275  4.0292 -1.0996  0.5810
   31MOL   H64134301   6.640   0.148   1.293 -0.5638  0.2741  1.7733
   31MOL   H64234302   6.840   0.022   1.398 -1.0217 -1.4452 -2.0129
   31MOL   H64334303   6.922   0.173   1.364  1.5737 -1.7606  2.3225
   31MOL   H64434304   6.989   0.033   1.173  0.6887  1.6770 -1.0407
   31MOL   H64534305   6.840   0.115   1.109  0.4801 -0.3461 -0.6846
   31MOL   H64634306   6.836   7.528   1.247 -0.8690  1.6975  1.8517
   31MOL   H64734307   6.701   7.623   1.172  0.5827  1.3214  1.1884
   31MOL   H64834308   6.793   7.556   0.951 -1.9083 -0.6498  1.3880
   31MOL   H64934309   6.938   7.498   1.010  0.2409 -0.7905 -0.3420
   31MOL   H65034310   6.673   7.362   1.072 -0.5974  2.2724 -0.6812
   31MOL   H65134311   6.827   7.321   1.139  1.3989 -0.2006 -0.0140
   31MOL   H65234312   6.927   7.291   0.905  0.0136  1.3178 -1.7988
   31MOL   H65334313   6.816   7.165   0.941  3.7209  0.5442  1.7280
   31MOL   H65434314   6.773   7.389   0.749  0.0827 -0.6234 -2.6511
   31MOL   H65534315   6.767   7.221   0.726 -0.4938 -0.1159  0.0282
   31MOL   H65634316   6.550   7.377   0.864  0.7550  1.0268 -0.1735
   31MOL   H65734317   6.555   7.203   0.871  0.2017  0.6005  0.0851
   31MOL   H65834318   6.418   7.305   0.698 -1.3497 -1.0644 -1.8931
   31MOL   H65934319   6.561   7.357   0.613  0.3189 -1.2111 -1.1513
   31MOL   H66034320   6.456   7.224   0.435 -2.0398  0.3541  0.8544
   31MOL   H66134321   6.394   6.941   0.477  1.6860 -1.7362  0.3702
   31MOL   H66234322   6.388   7.030   0.323  0.7718 -0.0598 -1.0358
   31MOL   H66334323   6.563   6.847   0.321 -0.5270  0.0820 -0.3539
   31MOL   H66434324   6.651   6.953   0.423  0.6581 -1.1548 -0.7206
   31MOL   H66534325   6.621   7.133   0.241 -2.3476  0.2854 -1.4345
   31MOL   H66634326   6.717   6.997   0.200 -0.0892  0.8131 -1.0489
   31MOL   H66734327   6.420   7.014   0.109 -0.5551  1.4808 -0.1098
   31MOL   H66834328   6.537   6.899   0.081  2.2031  0.0778 -0.6707
   31MOL   H66934329   6.605   7.167   7.672 -1.6056  0.4391  0.7894
   31MOL   H67034330   6.674   7.007   7.640  0.2675  0.2958 -0.6422
   31MOL   H67134331   6.475   6.946   7.521  1.7489 -1.0000  2.3396
   31MOL   H67234332   6.383   7.061   7.610  0.4108 -3.0897  0.1862
   31MOL   H67334333   6.510   7.111   7.351 -2.1006  0.2803 -0.2457
   31MOL   C67434334   6.427   7.266   7.445 -0.4597 -0.2440 -0.0529
   31MOL   O67534335   6.379   7.319   7.539 -0.1904  0.0424  0.5467
   31MOL   C67634336   6.440   7.329   7.308  0.1289 -0.0638 -0.6781
   31MOL   C67734337   6.328   7.285   7.210 -0.8987 -0.2382  0.0697
   31MOL   C67834338   6.182   7.320   7.241  0.6238  0.8509 -0.1089
   31MOL   C67934339   6.164   7.469   7.263 -0.1871  0.5230 -0.0210
   31MOL   C68034340   6.013   7.494   7.280 -0.4385  0.4887  0.0644
   31MOL   C68134341   5.985   7.644   7.321 -0.4042  0.3669  1.0177
   31MOL   C68234342   5.837   7.679   7.350  0.1708  0.1302 -0.3153
   31MOL   C68334343   5.821   0.123   7.392 -0.5811 -0.1802  0.4800
   31MOL   C68434344   5.689   0.162   7.456  0.2606 -0.7701  0.2812
   31MOL   C68534345   5.641   0.305   7.425  0.3966  0.3421 -0.0225
   31MOL   C68634346   5.493   0.319   7.463 -0.1411  0.2931  0.8753
   31MOL   O68734347   5.449   0.255   7.559  0.2835  0.7874 -0.0169
   31MOL   N68834348   5.423   0.409   7.392  1.1748 -0.2619  0.3296
   31MOL   C68934349   5.284   0.443   7.415  0.1413  0.0657  0.2952
   31MOL   C69034350   5.197   0.463   7.297  0.4556 -0.9233  0.5182
   31MOL   C69134351   5.061   0.516   7.326  0.3773 -0.3565 -0.5066
   31MOL   C69234352   4.957   0.481   7.217 -0.2005  0.2057 -0.0533
   31MOL   C69334353   4.978   0.569   7.093  0.4260  0.1951  0.0330
   31MOL   C69434354   4.902   0.523   6.964  0.1786  0.4692 -0.5144
   31MOL   N69534355   4.921   0.619   6.849  0.2210 -0.0355  0.7174
   31MOL   H69634356   6.538   7.311   7.263 -0.4614 -1.1660 -1.5528
   31MOL   H69734357   6.442   7.438   7.311  4.1517 -0.1023 -0.2062
   31MOL   H69834358   6.330   7.177   7.200 -1.0151 -0.1657 -0.8288
   31MOL   H69934359   6.343   7.322   7.108 -2.6509  0.5735  0.0896
   31MOL   H70034360   6.112   7.299   7.160  0.9553  2.6613 -0.8752
   31MOL   H70134361   6.142   7.268   7.328  0.1908  0.0606 -0.7708
   31MOL   H70234362   6.209   7.513   7.174  2.5270  0.7002  1.3970
   31MOL   H70334363   6.220   7.512   7.346 -0.7972  0.7531  0.2703
   31MOL   H70434364   5.960   7.434   7.354 -1.4938 -0.9831 -1.8069
   31MOL   H70534365   5.978   7.470   7.179  0.3265 -1.1798  0.1708
   31MOL   H70634366   6.043   7.663   7.411  0.5188  1.9539  0.1161
   31MOL   H70734367   6.031   0.014   7.244  1.6485 -0.3553  1.6407
   31MOL   H70834368   5.780   7.664   7.259 -1.7267  1.4677  0.6358
   31MOL   H70934369   5.796   7.605   7.419  0.4698 -1.7145 -2.0471
   31MOL   H71034370   5.896   0.148   7.467  2.3423  0.4046 -2.4971
   31MOL   H71134371   5.837   0.181   7.301 -2.0677 -1.1466 -0.4187
   31MOL   H71234372   5.710   0.164   7.563  1.2451 -0.1250  0.0716
   31MOL   H71334373   5.619   0.080   7.434 -1.8836  1.3328 -0.9641
   31MOL   H71434374   5.707   0.382   7.466 -1.4969  0.4808  2.9697
   31MOL   H71534375   5.633   0.313   7.317 -0.7205 -1.6361 -0.1003
   31MOL   H71634376   5.462   0.465   7.318 -2.4159  0.6668 -0.9366
   31MOL   H71734377   5.229   0.362   7.463 -0.3727 -0.5689 -1.3492
   31MOL   H71834378   5.287   0.518   7.495  1.2852 -1.4740  1.7285
   31MOL   H71934379   5.193   0.368   7.243  2.1556  0.9561 -3.1465
   31MOL   H72034380   5.246   0.528   7.224 -0.8910 -1.7958 -1.2222
   31MOL   H72134381   5.025   0.479   7.422 -0.3405 -0.4979 -0.8220
   31MOL   H72234382   5.069   0.623   7.347 -0.1116 -0.3777 -0.1907
   31MOL   H72334383   4.863   0.493   7.271  0.8006  0.0149  1.7969
   31MOL   H72434384   4.949   0.377   7.184 -0.3533  0.1365  0.2002
   31MOL   H72534385   5.083   0.562   7.064  0.6882  2.6287  0.2765
   31MOL   H72634386   4.960   0.673   7.117  1.1767  0.6663 -1.3598
   31MOL   H72734387   4.924   0.423   6.928 -0.9807  0.3813 -1.0114
   31MOL   H72834388   4.797   0.522   6.996  0.7024 -2.5940  1.3001
   31MOL   H72934389   4.851   0.692   6.842 -1.3789 -1.7866 -3.5467
   31MOL   C73034390   5.021   0.621   6.760 -0.1353 -0.1411 -0.0340
   31MOL   O73134391   5.103   0.528   6.750  0.2461 -0.6772  0.9613
   31MOL   C73234392   5.049   0.753   6.691  0.0888  0.3963 -0.4211
   31MOL   C73334393   5.193   0.773   6.640 -0.1871  0.0758 -0.0914
   31MOL   C73434394   5.309   0.762   6.740  0.7354  0.2704 -0.3305
   31MOL   C73534395   5.302   0.872   6.849  0.7466 -0.4118  0.5396
   31MOL   C73634396   5.429   0.886   6.935 -0.0622 -0.3993 -0.1640
   31MOL   C73734397   5.471   0.772   7.026  0.8997 -0.4320  0.1393
   31MOL   C73834398   5.581   0.821   7.124 -0.3982 -0.4863  0.0864
   31MOL   C73934399   5.642   0.685   7.177  0.0454  0.2735 -0.8251
   31MOL   C74034400   5.734   0.671   7.300 -0.5137  0.0070  0.6198
   31MOL   C74134401   5.669   0.705   7.438  0.0849 -0.1647  0.2948
   31MOL   C74234402   5.756   0.655   7.553 -0.5793  0.2055 -0.1715
   31MOL   O74334403   5.875   0.646   7.535  0.2734 -0.6577 -0.1663
   31MOL   N74434404   5.695   0.618   7.664  0.2577  0.3370 -0.1275
   31MOL   C74534405   5.757   0.561   0.095  0.6021  0.0592  0.1051
   31MOL   C74634406   5.744   0.651   0.217  1.0296  0.3235 -0.9680
   31MOL   C74734407   5.798   0.593   0.349 -0.5706 -0.0426 -0.0148
   31MOL   C74834408   5.810   0.704   0.455  0.1545 -0.1536 -0.7994
   31MOL   C74934409   5.898   0.666   0.567  0.5065  0.3973 -0.1255
   31MOL   C75034410   5.917   0.783   0.674  0.3182  0.3176 -0.9478
   31MOL   N75134411   5.994   0.724   0.779 -0.1412 -0.3123 -0.7129
   31MOL   H75234412   5.022   0.825   6.767  0.1527 -1.1102  1.0621
   31MOL   H75334413   4.977   0.759   6.608  0.5693  4.2769 -0.6236
   31MOL   H75434414   5.190   0.873   6.599 -1.3759  0.1108  0.0585
   31MOL   H75534415   5.226   0.703   6.563  0.7846  0.5102 -0.0747
   31MOL   H75634416   5.394   0.774   6.673 -1.8859 -0.3748 -3.9360
   31MOL   H75734417   5.316   0.663   6.785  5.0779  0.9244  0.6932
   31MOL   H75834418   5.201   0.863   6.890 -1.0402 -0.8646 -3.7072
   31MOL   H75934419   5.298   0.974   6.809  0.8297 -0.0351  1.4684
   31MOL   H76034420   5.420   0.981   6.987  0.8148  0.0255 -0.7801
   31MOL   H76134421   5.508   0.900   6.861  0.0264 -1.1312 -0.2123
   31MOL   H76234422   5.381   0.738   7.077  1.6622  0.8671  2.4155
   31MOL   H76334423   5.512   0.693   6.962  0.6706 -0.3987 -0.0488
   31MOL   H76434424   5.656   0.884   7.077  0.6381 -2.2711 -0.7381
   31MOL   H76534425   5.534   0.874   7.207  0.1300  2.3441 -1.3581
   31MOL   H76634426   5.566   0.610   7.201  0.6523 -0.5199 -1.3445
   31MOL   H76734427   5.694   0.632   7.097 -0.1268  2.6403 -2.5283
   31MOL   H76834428   5.815   0.741   7.279 -1.5448  0.4111 -2.1389
   31MOL   H76934429   5.777   0.571   7.298  0.8093  0.6002 -0.7548
   31MOL   H77034430   5.656   0.812   7.455  2.2106 -0.0863  1.5827
   31MOL   H77134431   5.565   0.671   7.445 -0.1215 -0.3752 -3.0587
   31MOL   H77234432   5.596   0.633   7.674 -0.2309 -2.8501  0.3493
   31MOL   H77334433   5.861   0.530   0.080  0.3843 -0.3930 -0.4960
   31MOL   H77434434   5.719   0.459   0.103  0.5263 -0.1459 -2.5969
   31MOL   H77534435   5.646   0.691   0.244 -0.0469 -1.1894 -2.5469
   31MOL   H77634436   5.801   0.738   0.185  0.5509  1.3405  0.8961
   31MOL   H77734437   5.899   0.555   0.341 -0.8199 -1.1938  1.9293
   31MOL   H77834438   5.735   0.508   0.376 -0.0164 -1.0673 -1.8995
   31MOL   H77934439   5.852   0.790   0.402  0.4842  1.2311  1.6086
   31MOL   H78034440   5.713   0.742   0.487  1.1860  1.4048  0.5626
   31MOL   H78134441   5.995   0.635   0.528  0.1647 -0.2937 -0.4342
   31MOL   H78234442   5.848   0.581   0.615 -0.7021  1.6102  0.8239
   31MOL   H78334443   5.970   0.863   0.622  3.1234  0.5000  2.0719
   31MOL   H78434444   5.823   0.819   0.715  0.1998 -0.0623 -0.8835
   31MOL   H78534445   6.008   0.624   0.773 -0.2205 -0.3456 -0.3709
   31MOL   C78634446   6.078   0.793   0.855  0.6505  0.3318  0.1089
   31MOL   O78734447   6.082   0.912   0.860  0.0241 -0.5045 -0.4405
   31MOL   C78834448   6.157   0.700   0.945 -0.8250 -0.3049  0.4796
   31MOL   C78934449   6.116   0.734   1.095 -0.8193  0.3387 -0.1050
   31MOL   C79034450   6.190   0.856   1.164  0.7806  0.0270  0.3691
   31MOL   C79134451   6.146   0.898   1.312 -0.3960  0.1581  0.8981
   31MOL   C79234452   5.997   0.888   1.343 -0.1519  0.4814  0.0890
   31MOL   C79334453   5.957   0.971   1.462 -0.3130 -0.4037  0.8689
   31MOL   C79434454   5.805   0.962   1.489 -0.8345 -0.0026 -0.0774
   31MOL   C79534455   5.765   1.071   1.579  0.0702  0.0280 -0.3459
   31MOL   C79634456   5.617   1.092   1.561 -0.0356  0.1065  0.5774
   31MOL   C79734457   5.559   1.192   1.672 -0.5129  0.0023  0.6178
   31MOL   C79834458   5.407   1.215   1.659 -0.4047  0.5754 -0.2396
   31MOL   O79934459   5.351   1.205   1.548  0.3625  0.1682 -0.0875
   31MOL   N80034460   5.353   1.259   1.775 -0.3307 -0.9444  0.2988
   31MOL   C80134461   5.209   1.272   1.790  0.9740 -0.3428  0.5238
   31MOL   C80234462   5.146   1.160   1.879  0.1757  0.8447 -0.0851
   31MOL   C80334463   4.988   1.159   1.872  0.2161 -0.8828  0.0238
   31MOL   C80434464   4.931   1.051   1.968  0.2338 -0.0049 -0.3248
   31MOL   C80534465   4.782   1.053   1.974  0.1611 -0.7242  0.2396
   31MOL   C80634466   4.742   0.966   2.091 -0.4059  0.4468  0.1760
   31MOL   N80734467   4.786   0.831   2.077 -0.6563  0.2670  0.0578
   31MOL   H80834468   6.265   0.714   0.943 -1.0095  1.0898 -2.3263
   31MOL   H80934469   6.141   0.593   0.930  1.5222 -0.5095 -0.7975
   31MOL   H81034470   6.008   0.720   1.100 -1.0267  1.8609 -0.0924
   31MOL   H81134471   6.146   0.650   1.158 -2.5043 -0.6955 -0.6507
   31MOL   H81234472   6.165   0.944   1.106  2.4728  0.5730  0.4325
   31MOL   H81334473   6.299   0.842   1.163  0.5841 -1.8846  1.9920
   31MOL   H81434474   6.191   0.837   1.390 -0.5655 -2.0366 -0.6712
   31MOL   H81534475   6.195   0.992   1.339 -0.6972 -0.1914  2.7196
   31MOL   H81634476   5.932   0.910   1.258 -1.0878  3.2900  1.4746
   31MOL   H81734477   5.977   0.785   1.374 -0.7380  0.0259 -1.7177
   31MOL   H81834478   6.020   0.954   1.549  0.5372  1.4776  0.6446
   31MOL   H81934479   5.977   1.076   1.443 -0.6774 -0.6365 -0.8558
   31MOL   H82034480   5.746   0.966   1.397  1.0212 -1.0239 -1.3451
   31MOL   H82134481   5.779   0.874   1.547  0.4969 -0.2829  0.1033
   31MOL   H82234482   5.781   1.056   1.686 -1.1025 -0.4927 -0.2298
   31MOL   H82334483   5.826   1.160   1.565 -1.8251  1.5509  0.7326
   31MOL   H82434484   5.563   0.997   1.566  0.2507 -0.0703  0.3188
   31MOL   H82534485   5.594   1.135   1.464 -0.0087 -1.1464  0.0096
   31MOL   H82634486   5.586   1.165   1.774  2.0341  2.6951  0.7265
   31MOL   H82734487   5.600   1.287   1.638 -2.4704 -0.1534 -2.3483
   31MOL   H82834488   5.414   1.273   1.854  0.9079 -0.4201 -0.7306
   31MOL   H82934489   5.155   1.275   1.696  0.2546  1.7422  0.9763
   31MOL   H83034490   5.192   1.373   1.827 -2.0273 -1.1771  1.5425
   31MOL   H83134491   5.188   1.176   1.979 -2.1557  0.2191  1.0350
   31MOL   H83234492   5.185   1.063   1.848 -1.7999 -0.3466  1.0639
   31MOL   H83334493   4.955   1.256   1.909 -0.4992 -1.3709  0.7052
   31MOL   H83434494   4.948   1.127   1.776 -0.8962 -0.8465  0.4590
   31MOL   H83534495   4.975   1.064   2.066  1.8747 -1.1590 -0.8943
   31MOL   H83634496   4.951   0.952   1.927  0.1748  1.2374 -3.5182
   31MOL   H83734497   4.744   1.001   1.886 -0.1997 -0.1436  0.0555
   31MOL   H83834498   4.734   1.149   1.990  0.9973 -0.2643 -0.0118
   31MOL   H83934499   4.636   0.988   2.101 -0.1928  0.7267  1.9498
   31MOL   H84034500   4.790   1.002   2.182 -1.9170  1.2879  0.6605
   31MOL   H84134501   4.874   0.807   2.121 -0.0651 -0.6262 -1.5636
   31MOL   C84234502   4.709   0.730   2.037  0.4495  0.0124 -0.5469
   31MOL   O84334503   4.599   0.744   1.994 -0.2283 -0.2502 -0.1057
   31MOL   C84434504   4.774   0.590   2.036 -0.1855  0.3979  1.0541
   31MOL   C84534505   4.726   0.505   2.154  0.7489 -0.8048 -0.3178
   31MOL   C84634506   4.781   0.543   2.291 -0.2761  0.4970  0.1627
   31MOL   C84734507   4.925   0.490   2.312  0.2710  0.2698  0.3466
   31MOL   C84834508   4.927   0.336   2.302  0.1936  0.3745  0.0743
   31MOL   C84934509   5.063   0.273   2.295  0.3840 -0.6471 -0.1108
   31MOL   C85034510   5.072   0.141   2.216 -0.2441 -0.0413  0.2580
   31MOL   C85134511   5.010   0.025   2.298 -0.0037 -0.3931 -0.2222
   31MOL   C85234512   5.049   7.570   2.255  0.1203  0.1069  0.2469
   31MOL   C85334513   5.188   7.524   2.304 -0.3291 -0.1932 -0.0039
   31MOL   C85434514   5.211   7.518   2.454 -1.0628  0.0521 -0.2729
   31MOL   O85534515   5.115   7.509   2.532 -0.6993  0.0163  0.0296
   31MOL   N85634516   5.337   7.506   2.497  0.0212  0.0776  0.1681
   31MOL   C85734517   5.369   7.477   2.631  0.5504 -0.0062 -0.0002
   31MOL   C85834518   5.520   7.440   2.655 -1.1854 -0.8328  0.6865
   31MOL   C85934519   5.625   7.512   2.575  0.1346  0.1921  0.3577
   31MOL   C86034520   5.766   7.496   2.634 -0.3254 -0.4010 -0.5659
   31MOL   C86134521   5.877   7.562   2.550 -0.2651  1.0185  0.0805
   31MOL   C86234522   6.017   7.543   2.604 -0.1719 -0.4835  0.0448
   31MOL   N86334523   6.034   7.592   2.739 -0.3257  0.0745 -0.4204
   31MOL   H86434524   4.881   0.612   2.037  0.3047 -1.8358  0.1715
   31MOL   H86534525   4.738   0.544   1.944  1.7445  0.7794  0.0676
   31MOL   H86634526   4.727   0.403   2.116 -0.3793 -0.0381 -2.4722
   31MOL   H86734527   4.617   0.515   2.156  0.5680 -2.4676 -0.9088
   31MOL   H86834528   4.774   0.647   2.321  0.6927  1.5931 -3.1685
   31MOL   H86934529   4.717   0.498   2.367 -2.8740  1.0126 -1.6472
   31MOL   H87034530   4.965   0.522   2.408 -0.4101 -3.0632  1.8273
   31MOL   H87134531   4.987   0.534   2.233  3.3169  0.9635  3.0232
   31MOL   H87234532   4.866   0.283   2.376  1.8910  0.4071  1.5393
   31MOL   H87334533   4.887   0.302   2.206  3.5231 -2.0349 -0.5476
   31MOL   H87434534   5.123   0.344   2.238  1.1574 -3.0337 -2.4203
   31MOL   H87534535   5.099   0.254   2.396 -2.7258  0.2956  1.2372
   31MOL   H87634536   5.029   0.147   2.116  2.3411  3.7943 -0.7609
   31MOL   H87734537   5.176   0.112   2.200 -0.0201 -0.0744  1.7008
   31MOL   H87834538   4.901   0.032   2.291  0.0220 -1.1020 -1.6012
   31MOL   H87934539   5.031   0.035   2.405  0.0509 -1.9424 -0.0726
   31MOL   H88034540   5.041   7.557   2.147  1.7684 -0.1948  0.1552
   31MOL   H88134541   4.978   7.507   2.310 -1.4957 -0.3655 -2.2663
   31MOL   H88234542   5.204   7.423   2.266 -0.1378 -0.5216  0.9445
   31MOL   H88334543   5.253   7.591   2.247  0.1639  0.5812  1.4583
   31MOL   H88434544   5.412   7.503   2.430  2.5270  0.3324  2.8638
   31MOL   H88534545   5.317   7.385   2.658  1.8575 -0.7835 -0.0450
   31MOL   H88634546   5.330   7.557   2.694 -0.1540 -0.5377  0.2433
   31MOL   H88734547   5.531   7.333   2.640  2.3052 -0.3831 -0.3012
   31MOL   H88834548   5.539   7.459   2.761  3.8260  1.9957 -0.5792
   31MOL   H88934549   5.592   7.616   2.576  1.8301  0.7484  0.9515
   31MOL   H89034550   5.638   7.491   2.469 -0.2734 -0.2032  0.3877
   31MOL   H89134551   5.792   7.392   2.655  0.8970  0.5982  3.1842
   31MOL   H89234552   5.765   7.540   2.733 -1.7502 -3.4254  0.8239
   31MOL   H89334553   5.881   7.527   2.447  1.9804  1.1878  0.0791
   31MOL   H89434554   5.858   7.669   2.541  0.8630  1.0966 -1.4444
   31MOL   H89534555   6.033   7.435   2.606  2.1605 -0.1761  0.1120
   31MOL   H89634556   6.094   7.588   2.541  0.8255 -0.1043  1.5074
   31MOL   H89734557   6.005   7.687   2.757 -0.0599  0.3797 -1.5815
   31MOL   C89834558   6.063   7.518   2.844 -0.5120 -0.0672  1.0649
   31MOL   O89934559   6.109   7.403   2.834  0.4083  0.5307  0.5218
   31MOL   C90034560   6.032   7.582   2.981  0.8103 -0.0562  0.1116
   31MOL   C90134561   5.888   7.568   3.022  0.5601  0.1676  0.0864
   31MOL   C90234562   5.854   7.429   3.086 -0.3232 -0.0704 -0.2792
   31MOL   C90334563   5.699   7.404   3.090 -0.0542 -0.4391  0.5077
   31MOL   C90434564   5.657   7.295   3.189  0.2162 -0.1470 -0.1973
   31MOL   C90534565   5.505   7.280   3.177 -0.7085 -0.0353  0.3205
   31MOL   C90634566   5.439   7.181   3.287  0.1059  0.0226 -0.4278
   31MOL   C90734567   5.301   7.224   3.323  0.0327  0.1575 -0.8320
   31MOL   C90834568   5.239   7.161   3.449 -0.7078 -0.4474 -0.4436
   31MOL   C90934569   5.109   7.243   3.486  0.2140 -0.5259  0.3143
   31MOL   C91034570   5.130   7.370   3.564  0.0839  0.2338  0.0298
   31MOL   O91134571   5.156   7.481   3.510  0.7026  0.1995  0.4622
   31MOL   N91234572   5.123   7.350   3.699  0.1715  0.2109  0.6926
   31MOL   C91334573   5.150   7.441   3.811 -1.0344  0.3136  0.8148
   31MOL   C91434574   5.034   7.533   3.823  0.0580  0.0051  0.0004
   31MOL   C91534575   5.047   7.615   3.946 -0.1640 -0.1509  0.4047
   31MOL   C91634576   4.925   0.024   3.962 -0.8234  0.0327  0.1025
   31MOL   C91734577   4.787   7.649   3.977 -0.9656 -0.7309  0.2894
   31MOL   C91834578   4.673   0.063   4.012  0.0288  0.0338  0.8058
   31MOL   N91934579   4.542   7.689   4.031 -0.0278 -0.0346 -0.1242
   31MOL   H92034580   6.091   7.545   3.064 -0.7714 -1.7237  0.5210
   31MOL   H92134581   6.045   7.690   2.976 -0.4815  0.2210  2.3506
   31MOL   H92234582   5.830   7.605   2.937 -0.0147  0.7073  0.6973
   31MOL   H92334583   5.872   7.641   3.102  3.8771  0.0401  0.9293
   31MOL   H92434584   5.885   7.430   3.190  0.3547  0.7471 -0.4879
   31MOL   H92534585   5.907   7.352   3.030  0.8937  1.5940 -1.4641
   31MOL   H92634586   5.643   7.497   3.104 -2.1903 -1.6520  0.1874
   31MOL   H92734587   5.679   7.388   2.984  0.2777  0.9913  0.2176
   31MOL   H92834588   5.690   7.313   3.292  0.6831 -0.7671 -0.2377
   31MOL   H92934589   5.702   7.201   3.157  2.2442  0.3863  0.9869
   31MOL   H93034590   5.466   7.382   3.175 -0.5011  0.0323 -0.5274
   31MOL   H93134591   5.488   7.246   3.075 -2.3684  1.5425  0.0281
   31MOL   H93234592   5.499   7.182   3.378  2.2672  1.8135 -1.8237
   31MOL   H93334593   5.444   7.076   3.260 -1.2437 -0.3304  0.6252
   31MOL   H93434594   5.236   7.206   3.238 -0.7769 -2.9194  0.3597
   31MOL   H93534595   5.300   7.332   3.335 -1.5311  0.0537  0.1274
   31MOL   H93634596   5.217   7.056   3.428  0.8913 -0.6830 -1.0640
   31MOL   H93734597   5.313   7.176   3.528 -0.1556 -0.6197 -0.9227
   31MOL   H93834598   5.056   7.263   3.393 -0.4034  2.0340  1.1740
   31MOL   H93934599   5.044   7.186   3.552 -0.3086  0.3346  0.5470
   31MOL   H94034600   5.101   7.257   3.731 -0.3969  1.0317  2.7568
   31MOL   H94134601   5.247   7.489   3.796 -1.2502  0.2438 -0.9624
   31MOL   H94234602   5.160   7.374   3.896  0.1830 -1.7796 -0.9380
   31MOL   H94334603   5.035   7.614   3.751  2.5341 -1.3647 -1.5918
   31MOL   H94434604   4.937   7.483   3.821  0.5585 -1.1414  2.2079
   31MOL   H94534605   5.048   7.553   4.035 -1.1390  1.0503  1.2719
   31MOL   H94634606   5.141   7.671   3.951  0.6772 -1.0050 -3.5702
   31MOL   H94734607   4.924   0.094   3.878  2.6867 -0.1464 -0.1895
   31MOL   H94834608   4.947   0.087   4.049  0.7211 -0.3748  0.0216
   31MOL   H94934609   4.761   7.595   3.886 -2.1250 -2.7900  1.8123
   31MOL   H95034610   4.794   7.569   4.051 -0.3730 -0.6025  0.3742
   31MOL   H95134611   4.655   0.135   3.931 -2.2354 -0.7320  0.5890
   31MOL   H95234612   4.694   0.122   4.101 -1.3522 -0.6552  1.5968
   31MOL   H95334613   4.484   7.691   3.948  0.8296 -2.5803 -0.8208
   31MOL   C95434614   4.506   7.612   4.126  0.3143  0.0963 -0.6812
   31MOL   O95534615   4.579   7.576   4.217  0.0650 -0.5481 -0.1685
   31MOL   C95634616   4.362   7.556   4.124  0.3366 -0.7350  0.0757
   31MOL   C95734617   4.325   7.412   4.141 -0.0562 -1.0983 -0.7078
   31MOL   C95834618   4.317   7.338   4.013 -0.0918  0.3965 -0.2787
   31MOL   C95934619   4.242   7.210   4.025  0.1237 -0.0194 -0.4211
   31MOL   C96034620   4.276   7.111   3.917  0.0875 -0.2995 -0.2342
   31MOL   C96134621   4.214   6.977   3.939 -0.7239  0.0369  0.2538
   31MOL   C96234622   4.063   6.983   3.944 -0.1908  0.5067  0.4208
   31MOL   C96334623   3.992   6.844   3.926  1.0028 -0.3898  0.2302
   31MOL   C96434624   3.846   6.834   3.960 -0.2536 -0.3174  0.2760
   31MOL   C96534625   3.817   6.814   4.114 -0.1470 -0.1194 -0.0581
   31MOL   C96634626   3.680   6.767   4.149 -0.6193 -1.4005 -0.0925
   31MOL   O96734627   3.597   6.752   4.059 -0.3535 -0.4561 -0.7137
   31MOL   N96834628   3.655   6.742   4.276 -0.8253  0.3582  0.5018
   31MOL   C96934629   3.542   6.673   4.320 -0.1572 -0.1157  0.2316
   31MOL   C97034630   3.534   6.679   4.474 -0.2192  0.0139  0.0735
   31MOL   C97134631   3.463   6.560   4.535 -0.2487  0.7620 -0.6829
   31MOL   C97234632   3.488   6.545   4.689  0.2464 -0.3474  0.0380
   31MOL   C97334633   3.454   6.665   4.773  0.1790 -0.1939 -0.1521
   31MOL   C97434634   3.453   6.636   4.928  0.3518  0.7109 -0.0409
   31MOL   N97534635   3.375   6.521   4.964 -0.0505  0.4267  0.0424
   31MOL   H97634636   4.314   7.609   4.206  3.2299  1.0648  0.7078
   31MOL   H97734637   4.314   7.598   4.036 -0.4491  0.1005  0.8987
   31MOL   H97834638   4.231   7.402   4.195 -1.6371  0.7981 -3.0286
   31MOL   H97934639   4.408   7.376   4.202 -0.3105  2.4514  1.8871
   31MOL   H98034640   4.265   7.396   3.937 -0.7263  1.5197  0.9948
   31MOL   H98134641   4.413   7.318   3.965  0.8790  0.3998  1.6041
   31MOL   H98234642   4.285   7.169   4.117  1.3121  0.5325 -0.7180
   31MOL   H98334643   4.135   7.211   4.046  0.1809  0.4541 -0.1543
   31MOL   H98434644   4.255   7.148   3.816  0.7137  0.1560 -0.2031
   31MOL   H98534645   4.384   7.102   3.907  0.0584 -0.9120 -0.0430
   31MOL   H98634646   4.251   6.917   3.857  2.0107  2.3738 -0.2862
   31MOL   H98734647   4.264   6.933   4.026  0.4823  1.7522  0.4565
   31MOL   H98834648   4.033   7.013   4.045  0.5959  1.3861  0.3947
   31MOL   H98934649   4.031   7.057   3.870  1.7046 -0.8401 -1.7935
   31MOL   H99034650   4.007   6.795   3.830 -4.1338  0.0396 -0.8976
   31MOL   H99134651   4.042   6.778   3.996  3.0163  0.3465 -0.4513
   31MOL   H99234652   3.801   6.754   3.902 -2.6758  0.9864  0.2785
   31MOL   H99334653   3.803   6.927   3.923 -2.5457 -1.3437  0.2377
   31MOL   H99434654   3.881   6.744   4.169  0.7018  1.4630  0.9942
   31MOL   H99534655   3.824   6.907   4.169 -1.0123  2.7165 -4.4940
   31MOL   H99634656   3.727   6.780   4.335 -1.1487  0.7898  0.6190
   31MOL   H99734657   3.545   6.575   4.271 -0.3650  0.7605 -1.5882
   31MOL   H99834658   3.453   6.719   4.278 -0.7035 -0.3145  1.1579
   31MOL   H99934659   3.485   6.772   4.502  2.4504  1.6014 -0.4187
   31MOL     H134660   3.637   6.675   4.511  0.1504 -1.5363 -1.0582
   31MOL     H234661   3.490   6.468   4.485 -1.4240  0.5665 -0.9671
   31MOL     H334662   3.356   6.579   4.526 -0.6645 -0.7891  0.8352
   31MOL     H434663   3.429   6.464   4.732 -0.7138  0.3513  0.0486
   31MOL     H534664   3.592   6.516   4.708  0.8044  0.4648 -1.6922
   31MOL     H634665   3.349   6.685   4.755 -0.2451 -1.6864  0.5043
   31MOL     H734666   3.516   6.749   4.745 -0.7235  0.1879 -1.0074
   31MOL     H834667   3.551   6.603   4.963 -1.1548 -2.0037  1.7617
   31MOL     H934668   3.426   6.731   4.976 -0.2896 -0.3097  1.6460
   31MOL    H1034669   3.399   6.434   4.918 -1.9754  0.2968 -0.7935
   31MOL    C1134670   3.258   6.525   5.033  0.0485  0.7118  0.0872
   31MOL    O1234671   3.213   6.624   5.086 -0.6119 -0.3042  0.1851
   31MOL    C1334672   3.182   6.391   5.046 -0.3964 -0.5355 -0.3113
   31MOL    C1434673   3.164   6.352   5.199  0.3243 -0.9929  0.3780
   31MOL    C1534674   3.082   6.227   5.238  0.3911  0.0790 -0.7571
   31MOL    C1634675   3.054   6.214   5.392 -0.5702  0.5762 -0.1621
   31MOL    C1734676   3.176   6.193   5.488 -0.3638  0.2281 -0.3343
   31MOL    C1834677   3.264   6.075   5.452 -0.1637 -0.1854  0.3869
   31MOL    C1934678   3.348   6.016   5.571  0.2907  0.3113 -0.3173
   31MOL    C2034679   3.465   6.106   5.607 -0.4406 -0.5928 -0.3055
   31MOL    C2134680   3.545   6.159   5.486 -0.0705 -0.2727 -0.2775
   31MOL    C2234681   3.670   6.249   5.533 -0.2712  0.0881 -0.2768
   31MOL    C2334682   3.743   6.309   5.410 -0.1845  0.3230  0.0590
   31MOL    O2434683   3.867   6.294   5.391 -0.2485 -0.8654  0.3135
   31MOL    N2534684   3.666   6.385   5.330  0.1216  0.0977  0.4905
   31MOL    C2634685   3.700   6.460   5.208  0.8555  0.6427 -0.2367
   31MOL    C2734686   3.771   6.591   5.240  0.8815  0.5279 -0.2157
   31MOL    C2834687   3.712   6.664   5.361 -0.3342 -0.1983  0.3681
   31MOL    C2934688   3.569   6.704   5.358 -0.4650  0.8310 -0.3043
   31MOL    C3034689   3.530   6.802   5.248  0.0793 -0.3749  0.2677
   31MOL    C3134690   3.381   6.843   5.257  0.2613 -0.5078 -0.0188
   31MOL    N3234691   3.356   6.928   5.370 -0.9301  0.1666  0.5303
   31MOL    H3334692   3.229   6.309   4.991 -1.5407 -0.2542 -1.7400
   31MOL    H3434693   3.083   6.417   5.007  0.3265  1.8790 -0.5824
   31MOL    H3534694   3.120   6.432   5.258  1.0780  0.9114 -1.5900
   31MOL    H3634695   3.267   6.342   5.233  1.1176 -0.0908 -1.6553
   31MOL    H3734696   3.128   6.130   5.217  2.0108  0.7609 -0.4458
   31MOL    H3834697   2.991   6.227   5.179 -0.0620  1.6142 -0.0748
   31MOL    H3934698   3.001   6.306   5.416  0.8285  1.0211  1.2878
   31MOL    H4034699   2.991   6.126   5.408  1.0652 -0.8395 -1.2623
   31MOL    H4134700   3.236   6.285   5.489 -0.2829  0.1659  0.3381
   31MOL    H4234701   3.131   6.187   5.587  1.5596 -2.4255  0.4340
   31MOL    H4334702   3.196   5.994   5.426 -1.1823  0.9379 -0.5156
   31MOL    H4434703   3.320   6.091   5.360  1.7898 -1.7956  1.2484
   31MOL    H4534704   3.289   5.998   5.661 -0.7718  0.6744 -0.9355
   31MOL    H4634705   3.388   5.919   5.543 -1.5774 -0.7920  0.7735
   31MOL    H4734706   3.422   6.189   5.663 -1.3487 -1.4863  0.3461
   31MOL    H4834707   3.528   6.058   5.683  0.4944 -0.8333 -1.2169
   31MOL    H4934708   3.486   6.231   5.430  0.9665  0.0401 -0.9788
   31MOL    H5034709   3.569   6.080   5.416 -2.1047 -2.1763  1.0912
   31MOL    H5134710   3.649   6.331   5.601 -1.7413 -1.6217  1.3759
   31MOL    H5234711   3.738   6.189   5.594 -2.9772 -1.5086  1.2886
   31MOL    H5334712   3.570   6.401   5.358 -0.0485 -0.2200  0.0952
   31MOL    H5434713   3.610   6.476   5.149  0.4756 -2.6821 -0.7003
   31MOL    H5534714   3.762   6.396   5.145 -2.1587  0.4189 -3.1098
   31MOL    H5634715   3.777   6.660   5.155 -0.8009  0.1671 -0.6472
   31MOL    H5734716   3.872   6.566   5.271  0.8298  0.7303  0.1200
   31MOL    H5834717   3.776   6.749   5.386  0.3426  0.3437 -3.0277
   31MOL    H5934718   3.737   6.609   5.452  1.9242 -1.4468 -0.9707
   31MOL    H6034719   3.544   6.754   5.452 -1.6290  1.9094 -1.1826
   31MOL    H6134720   3.505   6.619   5.335 -0.6988  0.5498  1.3260
   31MOL    H6234721   3.550   6.754   5.152 -1.0653 -0.0540 -0.1328
   31MOL    H6334722   3.595   6.889   5.247 -2.7131  1.8228 -3.7605
   31MOL    H6434723   3.322   6.752   5.266 -0.7105  0.0422 -0.7435
   31MOL    H6534724   3.342   6.894   5.169 -1.2278 -0.3842  0.6909
   31MOL    H6634725   3.344   6.884   5.460 -0.2636 -0.8228  0.1366
   31MOL    C6734726   3.328   7.054   5.352 -0.1441  0.3355 -0.4396
   31MOL    O6834727   3.328   7.118   5.252 -0.3953 -0.3928 -0.2383
   31MOL    C6934728   3.289   7.131   5.484 -0.2256 -0.5475 -0.4527
   31MOL    C7034729   3.363   7.262   5.482  0.2550 -0.1263  0.3779
   31MOL    C7134730   3.309   7.358   5.590 -0.1694  0.3638  0.4975
   31MOL    C7234731   3.386   7.479   5.618  0.0573  0.0217  0.3851
   31MOL    C7334732   3.341   7.542   5.754 -0.0856 -0.2204  0.1246
   31MOL    C7434733   3.429   7.661   5.788  0.3399  0.0382 -1.0146
   31MOL    C7534734   3.432   0.005   5.938  0.0200  0.3951 -0.2195
   31MOL    C7634735   3.485   0.143   5.973 -0.0195 -0.3472 -0.5538
   31MOL    C7734736   3.474   0.184   6.122 -0.1613  0.5765 -0.6596
   31MOL    C7834737   3.509   0.334   6.143  0.1193  1.0171 -0.0276
   31MOL    C7934738   3.524   0.365   6.293 -0.2438  0.0007 -0.4628
   31MOL    O8034739   3.457   0.298   6.368  0.4042 -0.5640 -0.1138
   31MOL    N8134740   3.613   0.452   6.327  0.0199 -0.1847 -0.0981
   31MOL    C8234741   3.641   0.490   6.468 -0.1560  1.0511 -0.6151
   31MOL    C8334742   3.546   0.600   6.511  0.7340 -0.5383 -0.3702
   31MOL    C8434743   3.508   0.617   6.659 -0.0405  0.2796 -0.6207
   31MOL    C8534744   3.623   0.675   6.746 -0.1052 -0.4333  0.8831
   31MOL    C8634745   3.571   0.736   6.874 -0.0546 -1.0341 -0.2203
   31MOL    C8734746   3.677   0.806   6.954  0.0308 -0.4779  0.2583
   31MOL    N8834747   3.601   0.870   7.057 -0.4480  0.6556 -0.2949
   31MOL    H8934748   3.312   7.085   5.580 -1.0817  1.7732  0.9018
   31MOL    H9034749   3.181   7.147   5.482 -0.1141  1.1050  3.4729
   31MOL    H9134750   3.468   7.239   5.500 -0.3273 -1.5273  2.1628
   31MOL    H9234751   3.363   7.314   5.386  0.4880  0.0827  0.4891
   31MOL    H9334752   3.207   7.393   5.570 -0.0446 -0.2579 -1.3200
   31MOL    H9434753   3.309   7.291   5.676 -0.9909 -0.0655  0.1621
   31MOL    H9534754   3.491   7.450   5.615  0.6979  2.1869  0.6748
   31MOL    H9634755   3.357   7.549   5.540  0.5899 -1.2448 -0.9734
   31MOL    H9734756   3.237   7.575   5.753  0.8415  2.8718 -0.1539
   31MOL    H9834757   3.360   7.466   5.830  2.5991  0.9983  0.7128
   31MOL    H9934758   3.535   7.641   5.771  0.4615 -0.4283  0.2439
   31MOL   H10034759   3.399   0.055   5.728 -3.0722 -0.1453  0.3543
   31MOL   H10134760   3.495   7.619   5.981  0.6228  1.5189  0.9449
   31MOL   H10234761   3.331   0.009   5.976  0.5661  1.4686  1.1592
   31MOL   H10334762   3.584   0.134   5.928 -0.5308 -1.9184 -1.4221
   31MOL   H10434763   3.437   0.219   5.912 -1.5505 -2.4590 -2.0372
   31MOL   H10534764   3.543   0.120   6.178 -1.5338 -0.4930 -0.1491
   31MOL   H10634765   3.372   0.169   6.156  0.3580  0.3261  0.8228
   31MOL   H10734766   3.606   0.343   6.094  0.5514 -2.0753  0.1493
   31MOL   H10834767   3.436   0.402   6.099  0.0301  0.8465 -0.1433
   31MOL   H10934768   3.677   0.474   6.252 -2.6589  2.0513 -1.8465
   31MOL   H11034769   3.743   0.528   6.479 -0.6449  1.7167  2.0758
   31MOL   H11134770   3.635   0.404   6.535  0.7267  1.9879  0.7015
   31MOL   H11234771   3.451   0.578   6.461 -1.2108  0.4271  2.7822
   31MOL   H11334772   3.586   0.694   6.471  1.8805  0.3510  2.7654
   31MOL   H11434773   3.477   0.519   6.696 -0.8969 -0.0160 -2.1045
   31MOL   H11534774   3.431   0.694   6.656 -0.4506 -0.0671  0.4256
   31MOL   H11634775   3.692   0.594   6.772  2.7271  1.5901 -0.1073
   31MOL   H11734776   3.687   0.748   6.696  1.1955 -1.4527  1.0394
   31MOL   H11834777   3.500   0.810   6.839  2.1756  1.7549  0.9560
   31MOL   H11934778   3.519   0.656   6.926 -0.9559 -1.2533 -1.4428
   31MOL   H12034779   3.738   0.725   6.996  1.2580 -1.0856 -2.5849
   31MOL   H12134780   3.736   0.885   6.907  0.6460 -0.1772  1.5166
   31MOL   H12234781   3.560   0.953   7.016 -0.0353  0.7548 -0.5108
   31MOL   H12334782   3.673   0.898   7.122 -1.3240  1.0926  0.4875
   32MOL     C134783   2.638   6.766   4.187 -0.3225  0.2076 -0.2038
   32MOL     O234784   2.641   6.699   4.086  0.4595  0.0703 -0.6499
   32MOL     C334785   2.649   6.708   4.327  0.1047 -0.9488  0.0357
   32MOL     C434786   2.668   6.556   4.324  0.5342  0.7650 -0.1550
   32MOL     C534787   2.683   6.492   4.460 -0.1088  0.0593 -0.0909
   32MOL     C634788   2.559   6.505   4.547 -0.3060  0.4423 -0.1410
   32MOL     C734789   2.593   6.477   4.691 -0.2881 -0.6580 -0.0757
   32MOL     C834790   2.472   6.441   4.777  0.1672  0.1855 -0.8137
   32MOL     C934791   2.515   6.367   4.908  0.1757  0.1109 -0.3870
   32MOL    C1034792   2.612   6.450   5.000  1.0246 -0.3019 -0.1615
   32MOL    C1134793   2.678   6.361   5.111  0.2661 -0.1619  0.5167
   32MOL    C1234794   2.765   6.435   5.209 -0.4669 -0.1016  0.5058
   32MOL    C1334795   2.706   6.559   5.282 -0.1598 -0.2612  0.4707
   32MOL    O1434796   2.587   6.568   5.291  0.2271 -0.1062  0.6712
   32MOL    N1534797   2.785   6.640   5.357  0.4363  0.2505 -0.6820
   32MOL    C1634798   2.931   6.635   5.377  0.8482  0.1827  0.1097
   32MOL    C1734799   2.992   6.754   5.454 -0.2001  0.0729 -0.3215
   32MOL    C1834800   2.939   6.899   5.417 -0.1467  0.0672  0.1381
   32MOL    C1934801   2.987   6.925   5.279  0.1336 -0.5545  0.0396
   32MOL    C2034802   2.974   7.077   5.248 -0.0775  0.4473  0.6096
   32MOL    C2134803   2.998   7.100   5.095  0.1768 -0.1842  1.2477
   32MOL    N2234804   3.139   7.097   5.059 -0.1947 -0.0841  0.3221
   32MOL    H2334805   2.559   6.744   4.376 -1.0669 -0.7856 -2.1429
   32MOL    H2434806   2.739   6.760   4.359  0.2666 -0.2311 -1.5189
   32MOL    H2534807   2.759   6.545   4.263  1.5396 -0.5364  1.5265
   32MOL    H2634808   2.588   6.508   4.269  0.6283  0.4500 -0.0186
   32MOL    H2734809   2.759   6.548   4.514  0.6676  0.7708 -1.8727
   32MOL    H2834810   2.703   6.386   4.447  0.5513  0.0457  0.9751
   32MOL    H2934811   2.509   6.601   4.557 -1.9767 -0.2682 -1.3612
   32MOL    H3034812   2.482   6.432   4.522  0.9180 -1.0075  0.2370
   32MOL    H3134813   2.659   6.555   4.729 -1.5629  0.0517  0.7352
   32MOL    H3234814   2.651   6.385   4.682  1.0095  0.2300 -0.9012
   32MOL    H3334815   2.421   6.529   4.817  1.0721 -1.3542  4.0459
   32MOL    H3434816   2.407   6.369   4.727  0.5908  0.2832 -1.5114
   32MOL    H3534817   2.428   6.343   4.969 -0.2289  1.3019 -0.4879
   32MOL    H3634818   2.561   6.271   4.885  0.8420  0.2461  0.3439
   32MOL    H3734819   2.689   6.484   4.931  0.6580 -0.2857 -0.5666
   32MOL    H3834820   2.558   6.533   5.046  3.3018  0.6206  0.9377
   32MOL    H3934821   2.741   6.284   5.066 -2.3824 -1.5505 -0.9014
   32MOL    H4034822   2.599   6.321   5.174  0.7043 -0.1930  1.0553
   32MOL    H4134823   2.819   6.375   5.283 -0.5770  2.2475  2.5327
   32MOL    H4234824   2.849   6.479   5.154 -0.2912  0.9081  1.5571
   32MOL    H4334825   2.744   6.716   5.410 -1.3350 -1.9455  1.1939
   32MOL    H4434826   2.975   6.612   5.280 -1.5050  1.8528 -1.4426
   32MOL    H4534827   2.954   6.547   5.437 -0.2342  0.2542  0.6462
   32MOL    H4634828   3.101   6.756   5.449 -0.1977 -1.1949 -0.8802
   32MOL    H4734829   2.970   6.731   5.558  1.1766 -0.4241 -0.1252
   32MOL    H4834830   2.830   6.902   5.415 -0.0989  1.2943 -2.6142
   32MOL    H4934831   2.972   6.967   5.496 -1.2963 -1.2311  1.7803
   32MOL    H5034832   2.926   6.877   5.202  0.7129 -0.2913 -0.5910
   32MOL    H5134833   3.081   6.876   5.254  0.2845 -0.2065 -0.0727
   32MOL    H5234834   2.877   7.124   5.265 -0.5440  0.2826 -1.4607
   32MOL    H5334835   3.039   7.137   5.312 -0.4272  1.1909  0.2762
   32MOL    H5434836   2.952   7.018   5.039  0.1138 -0.6903  2.0401
   32MOL    H5534837   2.964   7.199   5.064 -0.4968 -0.0928  2.2869
   32MOL    H5634838   3.198   7.120   5.138 -0.9682  1.7915  0.3838
   32MOL    H5734839   2.626   6.874   4.178  2.2596  0.3270 -2.9945
   32MOL    C5834840   3.194   7.057   4.945 -0.4172  0.6124  0.4669
   32MOL    O5934841   3.129   7.018   4.851 -0.1832  0.7274  0.7951
   32MOL    C6034842   3.347   7.078   4.918  0.4367  0.0812 -0.1292
   32MOL    C6134843   3.372   7.159   4.793 -0.0889  0.1574 -0.1961
   32MOL    C6234844   3.335   7.310   4.809 -0.2049  0.4123  0.0034
   32MOL    C6334845   3.357   7.408   4.689  0.1258 -0.7183  0.3602
   32MOL    C6434846   3.499   7.410   4.635  0.0825 -0.1340 -0.5501
   32MOL    C6534847   3.597   7.469   4.736 -0.3324 -0.2833 -0.9803
   32MOL    C6634848   3.727   7.489   4.676 -0.1016 -0.3978  0.5505
   32MOL    C6734849   3.818   7.550   4.779 -0.4896  0.1095 -0.4616
   32MOL    C6834850   3.861   7.455   4.901 -0.9805  0.3878  0.6398
   32MOL    C6934851   3.981   7.503   4.986  0.2571 -0.2946  0.1877
   32MOL    C7034852   3.947   7.582   5.109 -0.2840  0.6560 -0.4788
   32MOL    O7134853   3.906   7.526   5.208  0.1250 -0.0332 -0.0505
   32MOL    N7234854   3.971   0.019   5.109  0.2361  0.2591 -0.2345
   32MOL    C7334855   3.964   0.122   5.216 -0.0861  0.8851 -0.3015
   32MOL    C7434856   4.102   0.196   5.208 -0.0602  0.5336  0.1813
   32MOL    C7534857   4.131   0.278   5.336  0.7071  0.0450 -0.2459
   32MOL    C7634858   4.266   0.354   5.333  0.4235 -0.2386 -0.1327
   32MOL    C7734859   4.252   0.472   5.420 -0.6658  0.0456 -0.9945
   32MOL    C7834860   4.262   0.446   5.567  1.0740 -0.0272  0.4763
   32MOL    N7934861   4.398   0.421   5.607  0.2534  0.0895  0.1702
   32MOL    H8034862   3.388   6.978   4.899  2.8843  1.0208 -0.0140
   32MOL    H8134863   3.383   7.123   5.011  2.0378  2.1839 -1.7358
   32MOL    H8234864   3.476   7.158   4.760 -0.3824 -1.6222 -1.1322
   32MOL    H8334865   3.313   7.107   4.717 -0.1962  1.2126 -0.8484
   32MOL    H8434866   3.415   7.342   4.876 -0.9590  2.4567 -0.0377
   32MOL    H8534867   3.234   7.322   4.848 -0.3419  0.9167 -0.5096
   32MOL    H8634868   3.331   7.510   4.717  1.7559 -0.3692  0.6745
   32MOL    H8734869   3.286   7.385   4.610  1.5943  0.6424 -1.4339
   32MOL    H8834870   3.534   7.309   4.618 -0.7938 -0.5342 -0.0323
   32MOL    H8934871   3.510   7.465   4.542 -0.3025 -0.2687 -0.6780
   32MOL    H9034872   3.596   7.418   4.832 -1.3406  0.4678 -0.5761
   32MOL    H9134873   3.559   7.568   4.761 -1.1304 -1.0665  0.9915
   32MOL    H9234874   3.721   7.558   4.592 -1.8953  1.0173  1.8006
   32MOL    H9334875   3.770   7.401   4.628 -1.4427 -0.5497 -0.3974
   32MOL    H9434876   3.906   7.586   4.725 -0.7020 -2.6545 -2.7930
   32MOL    H9534877   3.779   7.638   4.830 -0.3691  0.7158 -1.3982
   32MOL    H9634878   3.885   7.354   4.868 -0.3369  0.6673  0.2455
   32MOL    H9734879   3.778   7.424   4.965 -1.7946 -0.2209 -0.6970
   32MOL    H9834880   4.052   7.422   5.001  0.5920 -0.0396 -0.0145
   32MOL    H9934881   4.047   7.563   4.922  1.1054 -0.4709  0.8856
   32MOL   H10034882   4.011   0.066   5.029 -0.4913  1.5474  0.1383
   32MOL   H10134883   3.959   0.079   5.316 -0.0894  2.3639  0.3432
   32MOL   H10234884   3.874   0.183   5.206 -0.6706  0.3409  1.4967
   32MOL   H10334885   4.180   0.125   5.182 -2.0208 -1.9387  0.9002
   32MOL   H10434886   4.083   0.265   5.125  0.9869 -2.0400 -2.2584
   32MOL   H10534887   4.135   0.209   5.421 -0.8145 -1.4250 -1.3256
   32MOL   H10634888   4.049   0.351   5.343  0.4667 -0.1297 -1.2834
   32MOL   H10734889   4.352   0.298   5.371 -0.7571 -0.9377  1.5418
   32MOL   H10834890   4.278   0.395   5.233 -1.3444  0.1507 -0.1870
   32MOL   H10934891   4.153   0.511   5.396 -1.0769 -0.2129  0.2251
   32MOL   H11034892   4.327   0.546   5.392 -0.6668 -0.9246 -3.6450
   32MOL   H11134893   4.201   0.364   5.602 -2.6497  2.1553 -0.6179
   32MOL   H11234894   4.243   0.535   5.626  1.7519  0.0087  0.6462
   32MOL   H11334895   4.461   0.476   5.549  1.3424 -0.2975  0.9588
   32MOL   C11434896   4.446   0.322   5.689 -0.4455  0.5066 -0.6375
   32MOL   O11534897   4.374   0.250   5.756 -0.3765 -0.2593 -0.9841
   32MOL   C11634898   4.596   0.301   5.694 -0.2358 -0.3963  0.0386
   32MOL   C11734899   4.656   0.181   5.617  0.7508 -0.5633 -0.2039
   32MOL   C11834900   4.669   0.195   5.458 -0.0562 -0.2277 -0.6578
   32MOL   C11934901   4.710   0.067   5.384 -0.2817 -0.4039 -0.2478
   32MOL   C12034902   4.715   0.077   5.229  0.3362 -0.1887  0.0229
   32MOL   C12134903   4.769   7.641   5.174 -0.3653  0.5369 -0.3255
   32MOL   C12234904   4.774   7.638   5.012  0.3116  0.1919 -0.0051
   32MOL   C12334905   4.892   0.027   4.950  0.1642 -0.1045  0.0620
   32MOL   C12434906   5.038   7.666   4.953 -0.3253  0.7123  0.4766
   32MOL   C12534907   5.138   0.056   4.879 -0.9450 -0.3888  0.1176
   32MOL   C12634908   5.280   0.047   4.941  0.5911 -0.6076  0.1758
   32MOL   O12734909   5.315   7.640   4.997  0.0072 -0.2112 -0.1686
   32MOL   N12834910   5.352   0.157   4.920 -0.0283 -0.0119  0.2958
   32MOL   C12934911   5.463   0.182   5.011  0.6410  0.5353 -0.1671
   32MOL   C13034912   5.480   0.335   5.036  0.3513  0.2417 -0.1050
   32MOL   C13134913   5.602   0.365   5.124 -0.0782 -0.1765 -0.1715
   32MOL   C13234914   5.642   0.515   5.149 -0.1600  0.8593  0.2293
   32MOL   C13334915   5.772   0.509   5.224 -0.4219 -0.0384  0.0855
   32MOL   C13434916   5.792   0.629   5.312  0.1651 -0.6774  0.5835
   32MOL   N13534917   5.696   0.638   5.422  0.4063 -0.1032  0.1382
   32MOL   H13634918   4.640   0.391   5.651 -0.8795 -0.2657 -0.3451
   32MOL   H13734919   4.624   0.296   5.800  2.5691 -0.1128 -0.6608
   32MOL   H13834920   4.593   0.092   5.625  0.0324 -0.2722 -2.3776
   32MOL   H13934921   4.750   0.148   5.660  1.8463  3.4104  0.6659
   32MOL   H14034922   4.570   0.234   5.433  0.1618  0.8480  0.1646
   32MOL   H14134923   4.746   0.270   5.442  0.1135 -0.2565  0.0281
   32MOL   H14234924   4.804   0.037   5.430  0.5468  2.8110  0.3141
   32MOL   H14334925   4.648   7.679   5.425  4.2936 -3.0607  1.8688
   32MOL   H14434926   4.624   0.084   5.169  1.1135  2.2962 -0.9272
   32MOL   H14534927   4.776   0.164   5.204  0.3682  0.0906  1.0453
   32MOL   H14634928   4.713   7.556   5.212  0.0351  1.3087  2.0744
   32MOL   H14734929   4.870   7.631   5.212 -0.5314 -1.1506 -0.3215
   32MOL   H14834930   4.775   7.531   4.989 -0.5884 -0.2147  1.7662
   32MOL   H14934931   4.678   7.671   4.974  0.5256  1.6221  0.6521
   32MOL   H15034932   4.885   0.125   4.998  1.5612  0.5649 -1.0737
   32MOL   H15134933   4.867   0.041   4.845 -0.2679  0.9104  0.2940
   32MOL   H15234934   5.042   7.562   4.919 -1.7427  1.0296 -0.7195
   32MOL   H15334935   5.062   7.667   5.059  2.8576  0.2901 -0.1909
   32MOL   H15434936   5.110   0.161   4.886 -1.2134 -0.4917  0.5663
   32MOL   H15534937   5.150   0.025   4.775 -0.7181 -2.6839  0.8061
   32MOL   H15634938   5.321   0.240   4.872 -0.6304  0.0039  0.7055
   32MOL   H15734939   5.550   0.136   4.964  0.9576  0.2798  0.6734
   32MOL   H15834940   5.438   0.135   5.106  0.0348 -0.0138 -0.5968
   32MOL   H15934941   5.398   0.377   5.094 -0.2948 -3.4314  1.7816
   32MOL   H16034942   5.494   0.388   4.942  0.5788 -0.9763 -0.7682
   32MOL   H16134943   5.578   0.319   5.220  0.1879 -1.1493 -0.5610
   32MOL   H16234944   5.684   0.309   5.079  0.1549  1.2797 -1.6125
   32MOL   H16334945   5.664   0.569   5.058 -2.2504 -0.7492 -1.2915
   32MOL   H16434946   5.566   0.576   5.199  0.6634  1.7430  0.4014
   32MOL   H16534947   5.857   0.499   5.157  0.1695  2.1957  0.4614
   32MOL   H16634948   5.776   0.416   5.282 -1.1060  0.0260  0.2484
   32MOL   H16734949   5.896   0.629   5.347 -0.7780 -0.5521  3.4736
   32MOL   H16834950   5.785   0.721   5.253 -0.8549 -1.6886 -0.8948
   32MOL   H16934951   5.647   0.726   5.427  0.0937 -0.3346  1.0914
   32MOL   C17034952   5.684   0.559   5.528 -0.2598  0.3043 -0.6052
   32MOL   O17134953   5.722   0.445   5.534 -0.1807 -0.2736 -0.0219
   32MOL   C17234954   5.591   0.620   5.635 -0.1617  0.4789 -0.0960
   32MOL   C17334955   5.531   0.516   5.742 -0.0540 -0.1637 -0.5354
   32MOL   C17434956   5.626   0.479   5.849 -0.1614  0.3389 -0.0175
   32MOL   C17534957   5.550   0.412   5.968  0.3820  0.5549  0.8082
   32MOL   C17634958   5.649   0.337   6.047  0.4940 -0.3171  0.1192
   32MOL   C17734959   5.583   0.241   6.150  0.0655  0.7558  0.3248
   32MOL   C17834960   5.679   0.162   6.237 -1.3600  0.1731 -0.4158
   32MOL   C17934961   5.617   0.057   6.329  0.2647 -0.4633 -0.1266
   32MOL   C18034962   5.540   0.122   6.451  0.2808  0.0242 -0.2222
   32MOL   C18134963   5.450   0.030   6.532 -0.3087  0.3069  0.3575
   32MOL   C18234964   5.522   7.681   6.658 -0.4116  0.5972  0.4017
   32MOL   O18334965   5.541   0.066   6.749  0.0886 -0.7460  0.0542
   32MOL   N18434966   5.572   7.556   6.655  0.4358  0.2854 -0.2548
   32MOL   C18534967   5.633   7.479   6.759 -0.0946  0.0055  0.2122
   32MOL   C18634968   5.750   7.405   6.696 -0.6038  0.5676  0.1072
   32MOL   C18734969   5.714   7.295   6.595  0.5845  0.8916  0.1698
   32MOL   C18834970   5.841   7.227   6.542 -0.5534 -0.2015  0.4015
   32MOL   C18934971   5.839   7.161   6.402  0.9284 -0.2280 -0.0089
   32MOL   C19034972   5.948   7.062   6.367  0.0806 -0.3254 -0.1433
   32MOL   N19134973   6.078   7.109   6.400  0.2929  0.0519 -0.2460
   32MOL   H19234974   5.643   0.702   5.685 -0.1693  1.6320 -1.9235
   32MOL   H19334975   5.506   0.652   5.574 -0.1875  0.6012  0.0026
   32MOL   H19434976   5.497   0.426   5.693  0.3426 -0.4033 -0.3816
   32MOL   H19534977   5.439   0.560   5.780  0.5631 -0.4846  1.3879
   32MOL   H19634978   5.681   0.563   5.891 -0.2051 -0.0566  0.8355
   32MOL   H19734979   5.695   0.405   5.808 -0.3877  0.8693 -1.3718
   32MOL   H19834980   5.494   0.481   6.031 -1.5788 -0.9720  0.7613
   32MOL   H19934981   5.480   0.342   5.923  2.6277 -0.2995 -1.4757
   32MOL   H20034982   5.703   0.273   5.977 -0.9927 -0.7601 -0.6651
   32MOL   H20134983   5.724   0.404   6.088 -0.5790  0.6476  0.5257
   32MOL   H20234984   5.516   0.165   6.110  1.3483  0.5106 -1.4220
   32MOL   H20334985   5.521   0.300   6.218 -0.8456  1.6524 -1.2406
   32MOL   H20434986   5.737   0.109   6.161  1.8720 -0.4171  2.3489
   32MOL   H20534987   5.752   0.234   6.274 -1.5399 -0.2413  0.7484
   32MOL   H20634988   5.538   0.003   6.276 -0.4233  2.4311 -2.1938
   32MOL   H20734989   5.687   7.679   6.374  0.1594  1.3704  2.9713
   32MOL   H20834990   5.468   0.193   6.410 -1.1327 -0.2133  1.7491
   32MOL   H20934991   5.610   0.189   6.501 -0.2915  1.0901 -0.8566
   32MOL   H21034992   5.352   0.077   6.547 -0.0531  0.9382  0.0648
   32MOL   H21134993   5.414   7.641   6.469 -0.6037  0.8675 -0.1956
   32MOL   H21234994   5.537   7.498   6.580 -2.2980  3.6655 -1.7265
   32MOL   H21334995   5.559   7.413   6.805 -0.1256 -0.6077 -0.7234
   32MOL   H21434996   5.661   7.538   6.847  1.2496  0.3319 -0.4275
   32MOL   H21534997   5.816   7.477   6.647  0.4348  0.2207  0.9766
   32MOL   H21634998   5.807   7.370   6.782 -1.3142  1.2331  0.8515
   32MOL   H21734999   5.641   7.227   6.639  0.5610  0.9498  0.2218
   32MOL   H21835000   5.681   7.352   6.509 -0.9360 -1.6934 -1.0187
   32MOL   H21935001   5.867   7.156   6.621 -0.2896  0.4579  0.9115
   32MOL   H22035002   5.919   7.303   6.533 -0.3570  0.0681  3.9158
   32MOL   H22135003   5.848   7.227   6.316  0.3380 -1.2251 -0.8433
   32MOL   H22235004   5.746   7.108   6.383  1.6133 -1.0954 -1.0043
   32MOL   H22335005   5.959   7.052   6.259  2.4585 -2.0014  0.2294
   32MOL   H22435006   5.937   6.963   6.411  0.7290  0.4681  1.8428
   32MOL   H22535007   6.097   7.208   6.389  1.5761 -0.0948  0.5369
   32MOL   C22635008   6.170   7.040   6.468  0.6547 -0.1212  0.4296
   32MOL   O22735009   6.157   6.929   6.514 -0.4346 -0.3085  0.3620
   32MOL   C22835010   6.309   7.111   6.484 -0.5995  0.7148 -0.2524
   32MOL   C22935011   6.337   7.125   6.632  0.0532 -0.2626  0.3426
   32MOL   C23035012   6.248   7.235   6.701 -0.2538 -0.0052  0.0802
   32MOL   C23135013   6.300   7.293   6.832  0.2524 -0.6935 -0.3240
   32MOL   C23235014   6.276   7.442   6.854 -0.3324  0.2770 -0.6244
   32MOL   C23335015   6.131   7.485   6.850  0.1155  0.2721 -0.2263
   32MOL   C23435016   6.122   7.638   6.886 -0.0147 -0.3908  0.0574
   32MOL   C23535017   5.990   0.002   6.837  0.0937 -0.0147 -0.6836
   32MOL   C23635018   5.996   0.043   6.688 -0.3077  0.6020 -0.1194
   32MOL   C23735019   6.080   0.173   6.668  0.1706  0.2281  0.0580
   32MOL   C23835020   6.061   0.226   6.530  0.7269 -0.3418  0.5663
   32MOL   O23935021   6.034   0.146   6.438  0.3104  0.4900  0.1121
   32MOL   N24035022   6.080   0.358   6.507 -0.0038 -0.1410 -0.1165
   32MOL   C24135023   6.051   0.420   6.373  0.4318 -0.1339 -0.2441
   32MOL   C24235024   6.173   0.441   6.277  0.1190 -0.3207  0.0085
   32MOL   C24335025   6.286   0.336   6.280  0.0137 -0.3890  0.3443
   32MOL   C24435026   6.396   0.371   6.184 -0.2183  0.4881  0.4245
   32MOL   C24535027   6.499   0.258   6.187  0.4152  0.1836 -0.6622
   32MOL   C24635028   6.635   0.289   6.111  0.2876  1.0572 -0.2975
   32MOL   N24735029   6.605   0.342   5.981  0.3306 -0.4475  0.2344
   32MOL   H24835030   6.324   7.210   6.442  0.4508  0.6166 -0.1012
   32MOL   H24935031   6.382   7.047   6.436  0.7743  2.1426 -0.1132
   32MOL   H25035032   6.334   7.028   6.682 -0.7359 -1.0677 -1.2422
   32MOL   H25135033   6.439   7.163   6.633  0.3903 -1.0136 -2.0845
   32MOL   H25235034   6.231   7.315   6.628 -0.5433  0.8409  1.0627
   32MOL   H25335035   6.144   7.203   6.709  0.1367 -1.1101  0.8291
   32MOL   H25435036   6.406   7.273   6.846 -0.0212 -1.2329  1.0097
   32MOL   H25535037   6.248   7.241   6.912 -2.0092  2.0014  0.0479
   32MOL   H25635038   6.337   7.495   6.781 -0.1318 -1.6938 -1.9056
   32MOL   H25735039   6.324   7.469   6.948 -0.2027 -2.2549  0.0772
   32MOL   H25835040   6.086   7.465   6.752 -0.6859  0.2182  0.1481
   32MOL   H25935041   6.074   7.425   6.921  1.8226 -2.5467 -1.1828
   32MOL   H26035042   6.212   7.679   6.839  0.4801 -0.5614  0.8391
   32MOL   H26135043   6.131   7.657   6.993  2.6131  1.1980 -0.4102
   32MOL   H26235044   5.931   7.606   6.864  0.5353 -0.4472 -1.1235
   32MOL   H26335045   5.952   0.087   6.894 -0.0432 -0.2478 -0.4252
   32MOL   H26435046   6.040   7.656   6.626  0.8857  0.5801  0.7545
   32MOL   H26535047   5.900   0.065   6.641 -0.1282  0.6902 -0.4430
   32MOL   H26635048   6.036   0.240   6.742 -0.4897 -1.1519  0.9414
   32MOL   H26735049   6.183   0.163   6.704  0.0963 -2.1194 -0.2747
   32MOL   H26835050   6.123   0.415   6.578  1.6096 -0.6883 -0.6445
   32MOL   H26935051   6.015   0.517   6.409 -0.0762 -0.5665  0.4206
   32MOL   H27035052   5.971   0.381   6.311  0.1915  1.1533 -0.7653
   32MOL   H27135053   6.216   0.540   6.295 -0.0300 -0.1095 -0.7821
   32MOL   H27235054   6.130   0.447   6.177  0.7839 -1.5144 -0.3498
   32MOL   H27335055   6.326   0.325   6.380  0.7514  0.5812  0.1581
   32MOL   H27435056   6.241   0.241   6.248 -0.4952  0.3463 -1.1914
   32MOL   H27535057   6.442   0.464   6.219 -1.4523  1.0329  0.6324
   32MOL   H27635058   6.370   0.395   6.080  3.4980 -2.9607 -1.4116
   32MOL   H27735059   6.464   0.166   6.140  0.8821 -0.3580  0.0395
   32MOL   H27835060   6.520   0.239   6.292 -1.4399 -1.2339 -0.5244
   32MOL   H27935061   6.698   0.200   6.119 -2.4149 -0.8216  1.0451
   32MOL   H28035062   6.686   0.369   6.166 -0.4410  1.2033  0.1706
   32MOL   H28135063   6.612   0.441   5.962 -1.3909 -0.3600  0.0232
   32MOL   C28235064   6.579   0.266   5.876 -0.4150  0.3151  0.7895
   32MOL   O28335065   6.620   0.150   5.867 -0.3584  0.1330 -0.3052
   32MOL   C28435066   6.526   0.340   5.753  0.3005 -0.9024 -0.4510
   32MOL   C28535067   6.463   0.262   5.641  0.1874  1.0784 -0.6918
   32MOL   C28635068   6.551   0.174   5.546  0.4698  0.4187 -0.1067
   32MOL   C28735069   6.482   0.103   5.431 -0.6653 -0.6076 -0.8820
   32MOL   C28835070   6.576   0.017   5.354 -0.7454 -0.4344  0.0895
   32MOL   C28935071   6.528   7.645   5.223 -0.7136 -0.0781  1.0717
   32MOL   C29035072   6.645   7.586   5.147 -0.1486 -0.5073 -0.3284
   32MOL   C29135073   6.604   7.516   5.022 -0.1127  0.4099 -0.1969
   32MOL   C29235074   6.588   7.596   4.897 -0.1081 -0.3335  0.1901
   32MOL   C29335075   6.559   7.507   4.770  0.0152  0.2415  0.4668
   32MOL   C29435076   6.411   7.516   4.716  0.7281  0.3325 -0.1473
   32MOL   O29535077   6.336   7.593   4.778 -0.2758 -0.0814  0.0692
   32MOL   N29635078   6.369   7.437   4.621 -0.1509  0.3522  0.0578
   32MOL   C29735079   6.229   7.424   4.570 -0.5243  0.2523  0.1465
   32MOL   C29835080   6.210   7.512   4.443  0.1859  0.1430 -0.3533
   32MOL   C29935081   6.067   7.500   4.384  0.2423 -0.2018  0.0671
   32MOL   C30035082   6.055   7.602   4.275  0.3502  0.0527 -0.0819
   32MOL   C30135083   5.928   7.600   4.195  0.6249 -0.0679  0.2952
   32MOL   C30235084   5.901   7.471   4.119 -0.0304  0.0431  0.4877
   32MOL   N30335085   6.018   7.429   4.047 -0.0128 -0.6957  0.4236
   32MOL   H30435086   6.460   0.422   5.783  0.4080 -1.1674  0.5379
   32MOL   H30535087   6.605   0.397   5.704  1.0466 -1.0932  0.5326
   32MOL   H30635088   6.406   0.337   5.585 -0.4779  2.6199  1.9435
   32MOL   H30735089   6.384   0.197   5.681  0.1579  1.7342  0.3339
   32MOL   H30835090   6.630   0.241   5.510  0.0276  0.0466 -1.7931
   32MOL   H30935091   6.606   0.098   5.601 -1.2948 -0.5956  0.2717
   32MOL   H31035092   6.452   0.182   5.363  0.5905 -0.4002 -1.1995
   32MOL   H31135093   6.390   0.052   5.461 -0.4791 -0.1191  0.5523
   32MOL   H31235094   6.665   0.076   5.334 -1.5549  0.8359  0.1860
   32MOL   H31335095   6.614   7.635   5.425  0.0422  2.3157  2.6414
   32MOL   H31435096   6.460   7.559   5.229 -0.3631 -0.4393  0.0224
   32MOL   H31535097   6.478   0.030   5.163 -0.5791 -0.7158  0.1245
   32MOL   H31635098   6.711   7.526   5.209 -0.6624  0.6954  1.4154
   32MOL   H31735099   6.710   7.668   5.115  0.8046 -1.2849 -0.4374
   32MOL   H31835100   6.520   7.450   5.043  0.2331  0.5526  1.7297
   32MOL   H31935101   6.686   7.450   4.993  0.2188  0.2991  0.9557
   32MOL   H32035102   6.509   7.669   4.915 -0.2379 -0.4018 -0.1067
   32MOL   H32135103   6.675   7.658   4.878 -0.3661 -0.4342 -1.3856
   32MOL   H32235104   6.613   7.547   4.684  1.2454  1.0238  1.5779
   32MOL   H32335105   6.592   7.404   4.779  0.5619  0.1201 -2.3705
   32MOL   H32435106   6.441   7.376   4.584 -0.5748  0.8808 -1.6688
   32MOL   H32535107   6.163   7.463   4.647  1.3970  1.1931  1.3565
   32MOL   H32635108   6.214   7.318   4.549 -2.5645  0.6799 -0.6787
   32MOL   H32735109   6.294   7.489   4.377  1.7321  0.0852  1.5924
   32MOL   H32835110   6.237   7.613   4.474  0.9729  0.2254 -1.2553
   32MOL   H32935111   5.996   7.532   4.460 -0.7545  2.2395 -1.8194
   32MOL   H33035112   6.062   7.401   4.341 -0.2271 -0.5077  0.8200
   32MOL   H33135113   6.048   0.012   4.314 -0.9736  0.2169 -0.7023
   32MOL   H33235114   6.147   7.603   4.216  0.6368  1.9999  0.3591
   32MOL   H33335115   5.929   7.688   4.131  2.7793 -0.4495 -0.2401
   32MOL   H33435116   5.850   7.631   4.265 -1.3343 -0.5077 -1.6552
   32MOL   H33535117   5.882   7.384   4.180 -0.0336 -0.6698 -0.5207
   32MOL   H33635118   5.815   7.480   4.053  0.7745 -2.1208 -0.9101
   32MOL   H33735119   6.094   7.383   4.096  0.6296  0.9225  0.9821
   32MOL   C33835120   6.042   7.456   3.917  0.5451 -0.1444  0.5596
   32MOL   O33935121   5.952   7.482   3.832  0.2700 -0.0015  0.2647
   32MOL   C34035122   6.180   7.422   3.864  0.0683  0.6539  0.3718
   32MOL   C34135123   6.237   7.510   3.749  0.2078  0.4162  0.0685
   32MOL   C34235124   6.279   7.646   3.808  0.0829 -0.4107  0.2685
   32MOL   C34335125   6.424   7.651   3.862 -0.3979 -0.4441 -0.1506
   32MOL   C34435126   6.447   0.087   3.957  0.5155 -0.2338  0.7321
   32MOL   C34535127   6.380   0.081   4.095 -0.1592  0.2415 -0.5557
   32MOL   C34635128   6.423   0.191   4.191 -0.2206  0.6149  0.0453
   32MOL   C34735129   6.376   0.166   4.338 -0.6192 -0.4732  1.0074
   32MOL   C34835130   6.406   0.262   4.454  0.3538  0.2707  0.2475
   32MOL   C34935131   6.367   0.203   4.587 -0.3353  0.2711 -0.0955
   32MOL   C35035132   6.216   0.212   4.612 -0.5142  0.4005  0.1559
   32MOL   O35135133   6.149   0.314   4.587  0.3719 -0.9786  0.7380
   32MOL   N35235134   6.168   0.106   4.675 -0.5287  0.6210 -0.2576
   32MOL   C35335135   6.033   0.110   4.722  0.0025 -0.5611  0.3626
   32MOL   C35435136   5.997   7.685   4.822  0.5326  1.2792  0.8946
   32MOL   C35535137   5.853   7.686   4.872  0.9181  0.3595  0.0635
   32MOL   C35635138   5.816   7.559   4.955  0.6177  0.1017  0.0679
   32MOL   C35735139   5.667   7.553   4.994 -0.4359  0.6149  0.0127
   32MOL   C35835140   5.627   7.451   5.102  0.4544  0.4338  0.4425
   32MOL   N35935141   5.486   7.468   5.135  0.7705 -0.5784 -0.4698
   32MOL   H36035142   6.175   7.318   3.831  1.6640  0.4352  0.7963
   32MOL   H36135143   6.255   7.421   3.943  0.0645 -0.5061  0.3714
   32MOL   H36235144   6.311   7.453   3.693  1.1223  0.3959  1.2631
   32MOL   H36335145   6.154   7.526   3.681 -0.0947  0.2100  0.3886
   32MOL   H36435146   6.218   7.689   3.888  2.6576  1.8965  1.0614
   32MOL   H36535147   6.272   0.025   3.726  1.0428  2.3688  2.4859
   32MOL   H36635148   6.442   7.568   3.930  2.4867  0.0279 -0.2755
   32MOL   H36735149   6.507   7.643   3.792 -0.1953 -0.6771  0.1172
   32MOL   H36835150   6.554   0.086   3.975  0.9820  1.8507 -1.7084
   32MOL   H36935151   6.422   0.188   3.925 -0.0176 -0.6842 -0.3094
   32MOL   H37035152   6.273   0.074   4.077 -0.1794  0.9736 -0.7409
   32MOL   H37135153   6.417   7.677   4.132 -0.1320  0.7674  0.8088
   32MOL   H37235154   6.532   0.198   4.189 -0.3610  3.2887  0.0762
   32MOL   H37335155   6.379   0.284   4.154 -1.1174  1.8002  3.9143
   32MOL   H37435156   6.270   0.143   4.336 -0.9952  1.2305  0.2559
   32MOL   H37535157   6.434   0.076   4.358  0.3966  0.4407  2.2089
   32MOL   H37635158   6.351   0.355   4.446  1.0842  0.7561  0.7439
   32MOL   H37735159   6.511   0.291   4.452  0.0765  1.2487 -0.7524
   32MOL   H37835160   6.399   0.099   4.584  1.5017  0.8536 -1.9693
   32MOL   H37935161   6.417   0.246   4.675  1.0977 -0.9936 -0.2839
   32MOL   H38035162   6.224   0.034   4.718 -0.4525 -1.5050 -3.7013
   32MOL   H38135163   5.960   0.100   4.641  1.9791 -0.9364 -1.4050
   32MOL   H38235164   6.011   0.208   4.765  0.3357  0.4796 -1.7954
   32MOL   H38335165   6.063   7.671   4.908 -0.5171  0.7447  1.6340
   32MOL   H38435166   6.006   7.598   4.758 -0.4835  0.8954  1.2547
   32MOL   H38535167   5.844   0.083   4.934  0.4160  0.4732 -0.1736
   32MOL   H38635168   5.787   0.010   4.787  0.8151  0.1933  0.1126
   32MOL   H38735169   5.832   7.469   4.896 -1.2575 -1.8805  2.4866
   32MOL   H38835170   5.877   7.552   5.045  1.3678 -0.5655 -0.4868
   32MOL   H38935171   5.604   7.528   4.909 -2.2330  0.7686  1.2677
   32MOL   H39035172   5.640   7.652   5.030  0.9758  0.3469  1.8795
   32MOL   H39135173   5.661   7.352   5.072 -0.3140  0.7088 -1.3865
   32MOL   H39235174   5.675   7.480   5.196  2.0973  1.5278 -0.7020
   32MOL   H39335175   5.438   7.540   5.083  1.2359  0.7649  0.9533
   32MOL   C39435176   5.411   7.406   5.235 -0.9074 -0.1146 -0.3176
   32MOL   O39535177   5.452   7.308   5.302  0.0951  0.2010 -0.3355
   32MOL   C39635178   5.269   7.459   5.260  0.6331  0.1061  0.0905
   32MOL   C39735179   5.220   7.430   5.404  0.0585  0.7485  0.5253
   32MOL   C39835180   5.081   7.477   5.427  0.2281 -0.1944 -1.2910
   32MOL   C39935181   5.017   7.410   5.546 -0.4161  0.0018 -0.1394
   32MOL   C40035182   4.880   7.454   5.591  0.4747  0.1181  0.0790
   32MOL   C40135183   4.815   7.358   5.694 -0.2546 -0.5864  0.0368
   32MOL   C40235184   4.689   7.421   5.760 -0.1338  0.1316  0.0831
   32MOL   C40335185   4.726   7.518   5.874 -0.2549 -1.1468  0.1573
   32MOL   C40435186   4.608   7.537   5.967  0.1395 -0.6240 -0.0771
   32MOL   C40535187   4.507   7.645   5.922  0.1947 -0.3703 -0.1222
   32MOL   C40635188   4.378   7.657   5.997 -0.2706  0.2437  0.3591
   32MOL   O40735189   4.352   7.582   6.099  0.0122 -0.1923 -0.6437
   32MOL   N40835190   4.286   0.056   5.956 -0.2759 -1.1311  0.3159
   32MOL   C40935191   4.160   0.097   6.019  0.4582  0.2121 -0.8540
   32MOL   C41035192   4.036   0.027   5.955  0.1729  0.3083  0.1665
   32MOL   C41135193   4.028   0.040   5.799 -0.4498 -0.4127  0.3407
   32MOL   C41235194   3.889   7.675   5.738 -0.4802 -0.5513 -0.1676
   32MOL   C41335195   3.866   0.016   5.586 -0.0391 -0.4103 -0.2320
   32MOL   C41435196   3.727   7.663   5.540  0.3332  0.2077  0.5384
   32MOL   N41535197   3.703   7.676   5.395 -0.0593  0.3644  0.1075
   32MOL   H41635198   5.198   7.416   5.189  0.0385 -1.1183  1.3936
   32MOL   H41735199   5.270   7.565   5.234 -1.8110  0.1253 -0.0321
   32MOL   H41835200   5.290   7.477   5.472  1.0676 -1.5825  1.1543
   32MOL   H41935201   5.222   7.321   5.410 -1.9492  0.6070 -1.0372
   32MOL   H42035202   5.012   7.460   5.344 -1.1071  0.3868 -0.3174
   32MOL   H42135203   5.086   7.582   5.456  0.9852 -0.7812  0.7832
   32MOL   H42235204   5.091   7.421   5.626 -2.2641 -0.3734  1.6632
   32MOL   H42335205   5.013   7.306   5.516 -1.2663  0.9695 -3.6197
   32MOL   H42435206   4.884   7.559   5.620  0.7883  0.6956 -1.9809
   32MOL   H42535207   4.812   7.460   5.506  0.8164 -0.0141 -0.2044
   32MOL   H42635208   4.788   7.265   5.645 -0.9180 -1.3472  1.8168
   32MOL   H42735209   4.896   7.336   5.763 -2.3238 -2.4920  1.9579
   32MOL   H42835210   4.627   7.474   5.688 -1.5027 -0.6352  0.6773
   32MOL   H42935211   4.635   7.343   5.813  1.3502 -0.5115  0.6738
   32MOL   H43035212   4.795   7.462   5.937 -2.1056 -1.3503  2.0590
   32MOL   H43135213   4.782   7.604   5.838 -0.1261 -0.9133  0.9100
   32MOL   H43235214   4.649   7.587   6.055 -1.5200  2.9399 -1.2372
   32MOL   H43335215   4.565   7.441   5.995 -1.6783  1.1869  3.7902
   32MOL   H43435216   4.550   0.051   5.939 -0.6669 -0.2543  1.4948
   32MOL   H43535217   4.472   7.625   5.821  1.4962 -2.0705 -0.2632
   32MOL   H43635218   4.316   0.122   5.886  2.1887 -0.0986  2.2589
   32MOL   H43735219   4.146   0.204   6.004  0.0050  0.1218 -1.0647
   32MOL   H43835220   4.171   0.083   6.126 -0.4136 -0.4143 -0.8453
   32MOL   H43935221   3.940   0.056   5.998 -0.3850 -0.1891 -0.7288
   32MOL   H44035222   4.029   7.611   5.972 -1.3113  0.1294 -1.4640
   32MOL   H44135223   4.035   0.147   5.780 -2.4023 -0.6543 -2.1013
   32MOL   H44235224   4.112   7.680   5.751  0.4906 -0.2416  1.7812
   32MOL   H44335225   3.883   7.566   5.745  1.9742 -0.6665  0.6582
   32MOL   H44435226   3.811   0.024   5.802  0.3191 -0.5127  0.7921
   32MOL   H44535227   3.864   0.121   5.558 -0.9614 -0.2683  0.3164
   32MOL   H44635228   3.946   7.669   5.523  1.0951  0.1199  0.8805
   32MOL   H44735229   3.723   7.561   5.580  1.3715  0.0058  0.1455
   32MOL   H44835230   3.659   0.035   5.597  0.5014  1.2584 -0.4282
   32MOL   H44935231   3.766   7.618   5.341 -1.4076 -1.2318  0.2044
   32MOL   C45035232   3.593   0.031   5.332  1.0177  0.5416 -0.4770
   32MOL   O45135233   3.493   0.062   5.396 -0.2631  0.1021  0.5819
   32MOL   C45235234   3.584   0.019   5.177 -0.0691  0.0760  0.5877
   32MOL   C45335235   3.501   7.601   5.117  0.2353  0.1923 -0.0830
   32MOL   C45435236   3.353   7.606   5.157  0.5684 -0.5326  0.1886
   32MOL   C45535237   3.278   7.478   5.121 -0.4911 -0.3506 -0.1477
   32MOL   C45635238   3.131   7.481   5.160 -0.2371 -0.2079  0.2111
   32MOL   C45735239   3.103   7.435   5.308 -0.2085  0.4556 -0.3549
   32MOL   C45835240   2.951   7.449   5.334  0.3993  0.3191  0.2621
   32MOL   C45935241   2.898   7.578   5.399  0.1754  0.0791 -0.4098
   32MOL   C46035242   2.931   0.022   5.333 -0.5968  0.5989 -0.0016
   32MOL   C46135243   2.847   0.132   5.394  0.5807  0.2763  0.1828
   32MOL   C46235244   2.883   0.267   5.328 -0.1313  0.0281 -0.0583
   32MOL   O46335245   3.000   0.300   5.308  0.0089 -0.1655 -0.3004
   32MOL   N46435246   2.781   0.357   5.309  0.4763  0.5345 -0.2337
   32MOL   C46535247   2.795   0.494   5.260  0.7859  0.6618  0.1439
   32MOL   C46635248   2.788   0.602   5.374 -0.0131 -0.2912  0.2492
   32MOL   C46735249   2.888   0.580   5.488  0.4555 -0.3176 -0.1047
   32MOL   C46835250   2.881   0.698   5.593  0.6046  0.7181 -0.5256
   32MOL   C46935251   2.968   0.674   5.714 -0.7053  0.7392  0.2385
   32MOL   C47035252   2.947   0.760   5.841  0.2840 -0.7743 -0.6798
   32MOL   N47135253   2.913   0.898   5.798 -0.4561  0.6321 -0.6387
   32MOL   H47235254   3.551   0.116   5.138  2.1538  0.2889 -0.8872
   32MOL   H47335255   3.689   0.012   5.147 -0.3560 -2.7307  0.1413
   32MOL   H47435256   3.544   7.502   5.131  1.2051  0.4532 -1.1301
   32MOL   H47535257   3.518   7.615   5.011  1.6977 -0.4953  0.0472
   32MOL   H47635258   3.308   7.685   5.095  0.4637 -0.1688  0.7273
   32MOL   H47735259   3.332   7.627   5.262  0.8736  3.7588 -0.5256
   32MOL   H47835260   3.322   7.393   5.175 -0.9648  0.4750  1.5800
   32MOL   H47935261   3.298   7.462   5.015  3.1817 -2.0996  0.6970
   32MOL   H48035262   3.070   7.409   5.106 -0.3451 -0.1197  0.2159
   32MOL   H48135263   3.079   7.575   5.147 -1.2783 -1.0271 -1.7424
   32MOL   H48235264   3.159   7.497   5.379  1.2330  0.4517 -1.4531
   32MOL   H48335265   3.137   7.334   5.329 -2.0108 -0.6117 -2.4389
   32MOL   H48435266   2.896   7.417   5.246 -0.7119  1.8021  0.3929
   32MOL   H48535267   2.929   7.367   5.401  0.2085  0.2684  0.1364
   32MOL   H48635268   2.789   7.574   5.408  0.4302 -1.0236  2.9262
   32MOL   H48735269   2.947   7.580   5.496 -2.1958 -0.0947  0.8184
   32MOL   H48835270   2.921   0.019   5.224  2.6108 -1.2080 -0.3067
   32MOL   H48935271   3.032   0.050   5.362  0.1163 -1.6514 -0.2115
   32MOL   H49035272   2.744   0.108   5.367  1.6303 -2.2857 -1.7213
   32MOL   H49135273   2.874   0.154   5.497  0.9783  0.3650  0.0577
   32MOL   H49235274   2.684   0.334   5.327  0.4339  0.3340 -0.7248
   32MOL   H49335275   2.721   0.517   5.183  1.7228  1.7720 -0.4471
   32MOL   H49435276   2.890   0.517   5.211  0.1912  2.7736 -0.0655
   32MOL   H49535277   2.809   0.704   5.341 -0.3360 -0.2494  0.1703
   32MOL   H49635278   2.689   0.606   5.420 -1.3261  2.1046 -2.5810
   32MOL   H49735279   2.989   0.553   5.459  0.8389  0.9588  0.0118
   32MOL   H49835280   2.844   0.493   5.537 -1.1970  0.2139 -0.6016
   32MOL   H49935281   2.777   0.705   5.624  0.6312  0.9579 -0.4864
   32MOL   H50035282   2.893   0.796   5.547  0.7334  0.9112 -0.0750
   32MOL   H50135283   2.954   0.573   5.751 -0.3289 -0.0138 -1.6135
   32MOL   H50235284   3.074   0.682   5.689 -0.9929 -1.1619 -1.7655
   32MOL   H50335285   2.859   0.725   5.894  0.5564 -0.0584  0.2659
   32MOL   H50435286   3.035   0.747   5.904 -0.6869 -0.2950  0.7902
   32MOL   H50535287   2.816   0.926   5.803 -0.5163  0.1026  2.1033
   32MOL   C50635288   3.014   0.986   5.762 -0.6800  0.1377  0.0089
   32MOL   O50735289   3.134   0.963   5.768 -0.0239  0.0704 -0.3153
   32MOL   C50835290   2.977   1.124   5.710 -0.3280  0.3611 -0.7179
   32MOL   C50935291   3.040   1.163   5.577 -0.2554 -0.6521  0.5996
   32MOL   C51035292   3.009   1.079   5.455  0.2560  0.8496 -0.4089
   32MOL   C51135293   2.857   1.055   5.417 -0.0892 -1.1501 -0.3862
   32MOL   C51235294   2.790   1.174   5.344  0.1998  0.0542 -0.7794
   32MOL   C51335295   2.646   1.151   5.290 -0.5415 -0.6648  0.1749
   32MOL   C51435296   2.593   1.274   5.218  0.4328 -0.0315 -0.8371
   32MOL   C51535297   2.654   1.299   5.081  0.2952 -1.1055 -0.5311
   32MOL   C51635298   2.590   1.431   5.013  0.1275 -0.0358  0.4396
   32MOL   C51735299   2.689   1.496   4.908 -0.3988 -0.1387 -0.1390
   32MOL   C51835300   2.690   1.426   4.767  0.5373 -0.3360 -0.4526
   32MOL   O51935301   2.647   1.316   4.749 -0.0449  0.0749 -0.2371
   32MOL   N52035302   2.756   1.496   4.674  0.5612  0.4119 -0.0938
   32MOL   C52135303   2.770   1.433   4.541 -0.7480 -0.0696  0.3828
   32MOL   C52235304   2.875   1.507   4.463 -0.4002 -0.4995 -0.2880
   32MOL   C52335305   3.016   1.495   4.516 -0.4460 -0.0593 -0.2947
   32MOL   C52435306   3.115   1.610   4.478 -0.0503 -0.4313  0.0578
   32MOL   C52535307   3.246   1.586   4.530  0.5890 -0.0504  0.2023
   32MOL   C52635308   3.249   1.619   4.674  0.4920 -0.7279  0.4680
   32MOL   N52735309   3.363   1.573   4.745  0.4429  0.5607  0.2973
   32MOL   H52835310   2.995   1.198   5.789  0.9501 -0.9196  0.2088
   32MOL   H52935311   2.868   1.116   5.707 -0.1863 -2.3738 -0.0599
   32MOL   H53035312   3.148   1.157   5.588  0.2434  2.3717 -2.1090
   32MOL   H53135313   3.021   1.265   5.547  0.4113 -0.9988 -1.0494
   32MOL   H53235314   3.045   0.979   5.482  1.3716  0.8528 -1.8061
   32MOL   H53335315   3.074   1.114   5.374 -0.2354 -0.0261 -1.1938
   32MOL   H53435316   2.856   0.967   5.353 -0.1758 -0.0205 -1.9766
   32MOL   H53535317   2.798   1.025   5.503 -1.2666 -0.9961 -1.1385
   32MOL   H53635318   2.802   1.253   5.418  0.0011  1.1110 -1.8707
   32MOL   H53735319   2.856   1.202   5.262  1.0262  0.1776 -0.0758
   32MOL   H53835320   2.652   1.064   5.224  1.5851  0.2102 -0.8365
   32MOL   H53935321   2.584   1.136   5.378  0.8133  1.3059  1.5210
   32MOL   H54035322   2.484   1.268   5.206  0.3739  0.4430 -0.5431
   32MOL   H54135323   2.598   1.362   5.282 -2.0857  0.9576 -1.9169
   32MOL   H54235324   2.763   1.306   5.086  0.2566  0.7937 -2.0500
   32MOL   H54335325   2.635   1.215   5.015 -0.2886 -0.7055 -0.8754
   32MOL   H54435326   2.595   1.499   5.098  0.8395  0.1248  0.2675
   32MOL   H54535327   2.486   1.406   4.988 -0.1322  1.4696 -0.0076
   32MOL   H54635328   2.653   1.596   4.884  2.8753  0.4651 -2.8125
   32MOL   H54735329   2.785   1.505   4.958 -0.0156 -0.5717 -0.7982
   32MOL   H54835330   2.789   1.590   4.691 -2.4101  1.4041  0.3918
   32MOL   H54935331   2.677   1.427   4.485  0.6156  2.6309 -2.3186
   32MOL   H55035332   2.807   1.330   4.541 -1.5178 -0.3482  0.7536
   32MOL   H55135333   2.833   1.606   4.476 -0.4103 -0.6400  0.7981
   32MOL   H55235334   2.876   1.487   4.356 -1.3112  0.2509 -0.4373
   32MOL   H55335335   3.061   1.400   4.486  1.9027  1.0400 -0.4160
   32MOL   H55435336   3.013   1.490   4.625 -3.1622  0.8887 -0.3032
   32MOL   H55535337   3.061   1.699   4.508  0.3726  0.4349 -1.6840
   32MOL   H55635338   3.119   1.621   4.370  0.8540 -2.6999 -0.1652
   32MOL   H55735339   3.278   1.484   4.509 -1.9934 -1.1176  1.2344
   32MOL   H55835340   3.310   1.655   4.476 -0.9572  1.3920  0.1554
   32MOL   H55935341   3.251   1.727   4.690 -0.7096 -0.5585 -0.4370
   32MOL   H56035342   3.159   1.587   4.726 -0.4187  0.5163 -0.3093
   32MOL   H56135343   3.426   1.517   4.690  0.1098  0.5089 -0.0299
   32MOL   C56235344   3.388   1.575   4.876  0.1362  0.2243  0.5250
   32MOL   O56335345   3.320   1.642   4.952  0.2313 -0.6479 -0.1712
   32MOL   C56435346   3.503   1.484   4.929 -0.0900  0.1285  0.0303
   32MOL   C56535347   3.595   1.570   5.017  0.7943  0.0272  0.2652
   32MOL   C56635348   3.703   1.495   5.102 -0.0214 -0.4374  0.5246
   32MOL   C56735349   3.821   1.424   5.029  0.1028 -0.3996  0.5622
   32MOL   C56835350   3.914   1.358   5.128 -0.2794 -0.3960 -0.5019
   32MOL   C56935351   4.047   1.314   5.065 -0.9670  0.1946  0.1417
   32MOL   C57035352   4.113   1.225   5.167 -0.7730 -0.7042 -0.5190
   32MOL   C57135353   4.246   1.171   5.118  0.2381 -0.0245  0.4323
   32MOL   C57235354   4.300   1.061   5.205 -0.2802 -0.4721  0.2383
   32MOL   C57335355   4.323   1.099   5.349  0.6202  0.6921  0.5793
   32MOL   C57435356   4.406   1.224   5.374 -0.6968 -0.3569 -0.0893
   32MOL   O57535357   4.521   1.234   5.333 -0.1042 -0.0531 -0.4029
   32MOL   N57635358   4.350   1.326   5.432 -0.0458 -0.6554  0.1811
   32MOL   C57735359   4.419   1.454   5.439  0.6023 -0.6232  0.0404
   32MOL   C57835360   4.329   1.567   5.407 -0.1431  0.1150  0.1792
   32MOL   C57935361   4.277   1.580   5.262 -0.0094  0.0576  0.3322
   32MOL   C58035362   4.146   1.658   5.261  0.2156  0.5371  0.2004
   32MOL   C58135363   4.116   1.695   5.111  0.1949  0.3005 -0.4082
   32MOL   C58235364   3.972   1.754   5.109  0.2905  0.0980  0.0184
   32MOL   N58335365   3.930   1.788   4.972  0.1665 -0.0022  0.5281
   32MOL   H58435366   3.470   1.407   4.998  1.5260  0.9186  1.7150
   32MOL   H58535367   3.555   1.438   4.845  0.0447 -1.6928  1.1058
   32MOL   H58635368   3.640   1.654   4.963 -2.3683  0.4634 -1.7881
   32MOL   H58735369   3.530   1.622   5.087 -0.2733 -0.6339 -0.2294
   32MOL   H58835370   3.643   1.422   5.156  0.4430 -0.2682  1.2733
   32MOL   H58935371   3.746   1.563   5.175 -1.1673 -1.6615  2.3697
   32MOL   H59035372   3.784   1.346   4.963 -0.7484  0.5013 -0.0362
   32MOL   H59135373   3.867   1.501   4.968 -0.7478  1.6925  2.5049
   32MOL   H59235374   3.928   1.427   5.211  1.5344 -0.0810 -1.0461
   32MOL   H59335375   3.860   1.268   5.158 -0.2200 -0.4575 -0.5777
   32MOL   H59435376   4.031   1.272   4.965  1.3740 -1.3356  0.3722
   32MOL   H59535377   4.118   1.397   5.059  0.4079 -0.9686  0.0443
   32MOL   H59635378   4.129   1.285   5.256  1.5548  0.9908 -2.0426
   32MOL   H59735379   4.042   1.146   5.193 -1.5974 -0.2030 -1.2073
   32MOL   H59835380   4.318   1.252   5.113  0.6735 -0.4499 -0.1772
   32MOL   H59935381   4.247   1.129   5.018 -0.4734  2.5989 -0.7308
   32MOL   H60035382   4.398   1.052   5.159 -0.2513 -2.6849  0.6491
   32MOL   H60135383   4.236   0.972   5.198 -4.3314  2.1320  1.8866
   32MOL   H60235384   4.233   1.116   5.408  0.8396  0.7962  0.8883
   32MOL   H60335385   4.384   1.015   5.385  1.3935  0.2929 -1.5943
   32MOL   H60435386   4.253   1.336   5.459  0.6807  0.6113  2.4847
   32MOL   H60535387   4.514   1.469   5.387  0.3439  1.7169  0.1904
   32MOL   H60635388   4.450   1.469   5.542  2.2809  2.3976 -0.8235
   32MOL   H60735389   4.366   1.665   5.436  1.8148 -0.3061 -0.7860
   32MOL   H60835390   4.245   1.558   5.476  0.1155 -0.4451  0.4203
   32MOL   H60935391   4.259   1.480   5.222  1.9237 -0.4856  0.7486
   32MOL   H61035392   4.346   1.622   5.188  0.2465  0.4010  0.7624
   32MOL   H61135393   4.070   1.600   5.313  1.4044 -0.2225  1.1126
   32MOL   H61235394   4.166   1.751   5.314  0.4717  1.2804 -1.1838
   32MOL   H61335395   4.120   1.601   5.057 -2.0838 -1.5683  2.5426
   32MOL   H61435396   4.194   1.759   5.069 -0.5119  1.2701 -0.2564
   32MOL   H61535397   3.904   1.680   5.150 -1.5429  2.1172  0.7003
   32MOL   H61635398   3.962   1.838   5.178 -0.1458  0.1590 -0.1163
   32MOL   H61735399   3.952   1.713   4.908 -0.5133 -1.6920  2.1928
   32MOL   C61835400   3.863   1.901   4.928  0.0285 -0.3732 -0.1212
   32MOL   O61935401   3.831   2.002   4.996 -0.2338 -0.1659 -0.0190
   32MOL   C62035402   3.800   1.895   4.791  0.5978  0.5696 -0.3038
   32MOL   C62135403   3.857   2.015   4.711  0.0242 -0.7946  1.1246
   32MOL   C62235404   4.004   2.008   4.675  0.1109  0.1039 -0.5069
   32MOL   C62335405   4.067   2.129   4.603  0.8348 -0.6559  0.0146
   32MOL   C62435406   4.220   2.104   4.574  0.1494  0.0795 -0.2244
   32MOL   C62535407   4.282   2.221   4.503  0.0627  0.5643 -0.4230
   32MOL   C62635408   4.435   2.219   4.509 -0.2949  0.1504  0.0089
   32MOL   C62735409   4.504   2.333   4.435 -0.4050 -0.0740  0.0991
   32MOL   C62835410   4.647   2.301   4.401  0.0919 -0.3168  0.5268
   32MOL   C62935411   4.748   2.283   4.519  0.3489 -0.0833 -0.0717
   32MOL   C63035412   4.785   2.133   4.538  0.5134  0.3328 -0.6758
   32MOL   O63135413   4.838   2.067   4.445 -0.3387 -0.6348  0.0661
   32MOL   N63235414   4.748   2.077   4.652 -0.1474 -0.0832  0.1013
   32MOL   C63335415   4.799   1.957   4.714 -0.7318  0.2805  0.4086
   32MOL   C63435416   4.710   1.828   4.683 -0.7054 -0.5805  0.2072
   32MOL   C63535417   4.562   1.846   4.730 -0.2222  0.3966  0.5245
   32MOL   C63635418   4.469   1.732   4.691  0.6327 -0.3601 -0.7064
   32MOL   C63735419   4.341   1.721   4.775 -0.1054  0.3158  0.0912
   32MOL   C63835420   4.224   1.627   4.717 -0.1630 -0.6275  0.1998
   32MOL   N63935421   4.258   1.486   4.724  0.4655  0.0727 -0.6058
   32MOL   H64035422   3.691   1.899   4.794  0.5711 -0.1496 -0.2420
   32MOL   H64135423   3.815   1.801   4.736  0.4777  0.7263 -0.6070
   32MOL   H64235424   3.836   2.107   4.765 -0.7381  0.0717 -0.6256
   32MOL   H64335425   3.803   2.028   4.617  1.2677 -0.9186  0.3858
   32MOL   H64435426   4.009   1.936   4.593  2.2671 -2.7901  2.0799
   32MOL   H64535427   4.066   1.972   4.756  0.5180 -0.8197 -1.2244
   32MOL   H64635428   4.008   2.149   4.514  0.9335 -0.1226  0.0656
   32MOL   H64735429   4.058   2.212   4.673  2.4037  0.4307 -1.0362
   32MOL   H64835430   4.262   2.083   4.672 -0.7151 -0.7080 -0.0199
   32MOL   H64935431   4.242   2.011   4.522  2.3701  0.0858  0.6588
   32MOL   H65035432   4.231   2.305   4.551 -1.9661 -1.0098  0.2248
   32MOL   H65135433   4.246   2.229   4.401  2.1432 -0.0214 -1.2413
   32MOL   H65235434   4.469   2.220   4.613 -1.2967 -0.7303  0.3578
   32MOL   H65335435   4.462   2.125   4.461  1.5807  0.6671  0.0133
   32MOL   H65435436   4.452   2.365   4.344 -1.4216 -1.0722  0.3043
   32MOL   H65535437   4.505   2.404   4.517 -3.2263  0.0492  0.0781
   32MOL   H65635438   4.696   2.380   4.343  2.7768 -0.3081  2.7591
   32MOL   H65735439   4.644   2.219   4.329  0.8842 -0.4517  0.6437
   32MOL   H65835440   4.844   2.325   4.489  1.3956 -1.3889  1.3742
   32MOL   H65935441   4.724   2.337   4.610  0.7136 -3.2839  1.9914
   32MOL   H66035442   4.688   2.136   4.709  0.4913  0.0830  0.6092
   32MOL   H66135443   4.901   1.929   4.685 -0.8635 -0.3564  0.5753
   32MOL   H66235444   4.803   1.974   4.821 -0.1209  2.5297  0.0611
   32MOL   H66335445   4.750   1.734   4.722  1.8968  0.0679 -0.8558
   32MOL   H66435446   4.721   1.806   4.577  0.3093  1.8155 -0.2115
   32MOL   H66535447   4.566   1.864   4.837  0.4341 -1.0628  0.7584
   32MOL   H66635448   4.522   1.939   4.691 -1.3866 -0.3573 -0.1105
   32MOL   H66735449   4.527   1.640   4.693  3.2624  1.1974 -1.9452
   32MOL   H66835450   4.443   1.741   4.585 -1.3638 -1.2594 -0.3263
   32MOL   H66935451   4.366   1.695   4.878 -1.4227 -2.1077 -0.1571
   32MOL   H67035452   4.295   1.820   4.785  2.0621  1.5171 -1.4778
   32MOL   H67135453   4.134   1.640   4.777  0.7899  0.8744  1.3323
   32MOL   H67235454   4.200   1.648   4.613 -1.0310 -0.0193  0.5166
   32MOL   H67335455   4.345   1.460   4.770  0.2566  1.0106  0.3528
   32MOL   C67435456   4.183   1.385   4.677 -0.1639  0.5776 -1.0182
   32MOL   O67535457   4.074   1.399   4.625 -0.1370  0.0245 -0.0563
   32MOL   C67635458   4.241   1.245   4.699 -0.3060 -0.0850 -0.1960
   32MOL   C67735459   4.186   1.151   4.587  0.5103 -0.2967 -0.0599
   32MOL   C67835460   4.067   1.059   4.619  0.3627 -0.3412  0.5564
   32MOL   C67935461   4.095   0.943   4.720 -0.1644 -0.4186 -0.0934
   32MOL   C68035462   3.972   0.855   4.750  0.0187 -0.9190 -0.2797
   32MOL   C68135463   3.918   0.770   4.625 -0.1536  0.1538  0.6257
   32MOL   C68235464   3.768   0.719   4.652  0.1941  0.1314  0.0689
   32MOL   C68335465   3.731   0.619   4.535  0.4571 -0.0592  0.0328
   32MOL   C68435466   3.691   0.693   4.407 -0.2101  0.2895  0.8807
   32MOL   C68535467   3.606   0.616   4.307 -0.1298 -0.2177 -0.4329
   32MOL   C68635468   3.681   0.506   4.226  0.4282 -0.2008 -0.5875
   32MOL   O68735469   3.803   0.504   4.208 -0.1722  0.0669  0.7839
   32MOL   N68835470   3.608   0.414   4.167 -0.7837 -0.0498 -0.7035
   32MOL   C68935471   3.662   0.317   4.069  0.3669  0.1347  0.2757
   32MOL   C69035472   3.552   0.276   3.968 -0.6504  0.2511  0.2216
   32MOL   C69135473   3.610   0.221   3.835  0.2933 -0.4502  0.4569
   32MOL   C69235474   3.513   0.153   3.743 -0.5237  0.9398  0.2098
   32MOL   C69335475   3.583   0.088   3.620  0.0171  0.2656  0.1021
   32MOL   C69435476   3.468   0.011   3.546  0.6128 -0.0193  0.2380
   32MOL   N69535477   3.520   7.621   3.437 -0.2578 -0.0985 -0.3736
   32MOL   H69635478   4.200   1.225   4.798 -2.3743  2.2860 -0.5239
   32MOL   H69735479   4.350   1.251   4.708 -0.4010  2.8265 -0.7194
   32MOL   H69835480   4.270   1.092   4.549  0.3416 -0.5322 -0.0705
   32MOL   H69935481   4.166   1.197   4.490 -0.5925 -1.8963 -0.6131
   32MOL   H70035482   3.990   1.130   4.651  0.2943  0.0875 -0.5289
   32MOL   H70135483   4.034   1.012   4.527  0.3268 -1.3224  1.0589
   32MOL   H70235484   4.132   0.977   4.816 -2.1616 -0.5519  0.7498
   32MOL   H70335485   4.174   0.882   4.678 -0.5385 -0.9752  0.0051
   32MOL   H70435486   3.889   0.922   4.775  0.6756  0.4590 -1.6903
   32MOL   H70535487   3.972   0.801   4.845  1.1645  1.5073  1.1442
   32MOL   H70635488   3.920   0.831   4.535  0.8926 -0.2089  0.4035
   32MOL   H70735489   3.988   0.690   4.603 -2.9133 -2.0591 -0.5155
   32MOL   H70835490   3.768   0.664   4.745 -0.7508  2.3698  1.4286
   32MOL   H70935491   3.690   0.794   4.665 -1.8794 -1.6266 -1.8616
   32MOL   H71035492   3.803   0.540   4.515  1.9901  1.4424 -0.4191
   32MOL   H71135493   3.642   0.562   4.564 -0.2227 -0.1157 -2.0225
   32MOL   H71235494   3.780   0.733   4.358 -1.3460 -0.3750 -1.7869
   32MOL   H71335495   3.622   0.774   4.429 -0.0736  0.5951  0.1935
   32MOL   H71435496   3.517   0.570   4.348 -0.3869 -1.0986 -1.9281
   32MOL   H71535497   3.566   0.683   4.230 -0.5370 -1.7539 -1.5943
   32MOL   H71635498   3.511   0.409   4.195 -0.2002  1.2477  1.6748
   32MOL   H71735499   3.747   0.368   4.023  0.4999 -0.9020 -0.6268
   32MOL   H71835500   3.713   0.232   4.115 -1.4084 -1.2903 -0.3647
   32MOL   H71935501   3.484   0.359   3.947 -0.2598  0.4459 -0.2805
   32MOL   H72035502   3.494   0.192   4.006 -0.2757 -0.3856 -0.6149
   32MOL   H72135503   3.660   0.299   3.777 -2.2121  1.8877  1.3397
   32MOL   H72235504   3.696   0.158   3.860  0.5649  0.3580  1.5921
   32MOL   H72335505   3.438   0.219   3.699 -1.4051  0.3167  0.7719
   32MOL   H72435506   3.460   0.076   3.799  1.3383 -1.5346 -1.3559
   32MOL   H72535507   3.658   0.011   3.640 -1.1846 -1.0712 -0.5025
   32MOL   H72635508   3.625   0.152   3.542  0.5555 -0.7304 -0.4427
   32MOL   H72735509   3.428   7.631   3.618  0.2689 -1.0698 -0.9908
   32MOL   H72835510   3.387   0.072   3.507 -0.1463 -1.3279 -0.2627
   32MOL   H72935511   3.597   7.558   3.453  1.2130  2.0029  1.1777
   32MOL   C73035512   3.452   7.575   3.332 -0.4458  0.6085  0.5048
   32MOL   O73135513   3.340   7.614   3.301  0.0916  0.1306 -0.1220
   32MOL   C73235514   3.508   7.466   3.246 -0.3241  0.3031 -0.5254
   32MOL   C73335515   3.583   7.529   3.128 -0.2913 -0.4239  0.2463
   32MOL   C73435516   3.710   7.607   3.173  0.2002 -0.3602 -0.1974
   32MOL   C73535517   3.805   7.525   3.263 -0.5259 -0.2762  0.0361
   32MOL   C73635518   3.938   7.592   3.286  0.0757  0.4535  0.2319
   32MOL   C73735519   4.028   7.580   3.157 -0.4326  0.4971  0.5223
   32MOL   C73835520   4.166   7.643   3.184  0.0502  0.6245  0.4998
   32MOL   C73935521   4.234   7.652   3.050 -0.3717 -0.2067  0.2273
   32MOL   C74035522   4.381   7.691   3.051 -0.2335 -0.3108 -0.6399
   32MOL   C74135523   4.442   7.685   2.907  0.4327 -0.3097  0.1851
   32MOL   C74235524   4.402   0.104   2.806  0.9047 -0.1566 -0.2483
   32MOL   O74335525   4.431   0.220   2.827  0.0545 -0.4171  0.3890
   32MOL   N74435526   4.338   0.068   2.691  0.4108 -0.6002  0.3101
   32MOL   C74535527   4.324   0.152   2.575  0.0132  0.2005 -0.4804
   32MOL   C74635528   4.222   0.264   2.585 -0.6160 -0.7825 -0.7771
   32MOL   C74735529   4.227   0.351   2.455 -0.3242  0.1161  0.6438
   32MOL   C74835530   4.192   0.277   2.328  0.8374  0.2131 -0.5077
   32MOL   C74935531   4.171   0.355   2.198 -0.4223  0.2280  0.4007
   32MOL   C75035532   4.124   0.271   2.076 -0.1206  0.1340  0.7506
   32MOL   N75135533   4.043   0.352   1.983 -0.1876 -0.1890  0.3039
   32MOL   H75235534   3.435   7.389   3.225 -1.5037  1.1593  0.3818
   32MOL   H75335535   3.577   7.403   3.303  0.0430  1.4909  0.3678
   32MOL   H75435536   3.516   7.603   3.084 -0.6155 -0.7051  0.2601
   32MOL   H75535537   3.598   7.470   3.037 -0.8651  0.6593 -0.5584
   32MOL   H75635538   3.679   0.011   3.217 -1.4734 -0.4075 -1.2481
   32MOL   H75735539   3.773   7.623   3.086  1.4248 -1.8647  0.3901
   32MOL   H75835540   3.831   7.434   3.209  3.4679 -0.0532  1.4599
   32MOL   H75935541   3.762   7.507   3.362  2.9118 -1.9149  1.3218
   32MOL   H76035542   3.991   7.544   3.368 -0.3649  0.6380  0.6263
   32MOL   H76135543   3.934   0.004   3.320  2.5304 -0.3423  3.1927
   32MOL   H76235544   4.048   7.476   3.131  0.2309  0.7347  0.0679
   32MOL   H76335545   3.985   7.633   3.072 -2.9550  1.0089  2.0691
   32MOL   H76435546   4.147   0.043   3.239  0.3805 -0.2135  2.0574
   32MOL   H76535547   4.219   7.580   3.256 -0.7441  0.3672  0.8678
   32MOL   H76635548   4.226   7.561   2.992 -1.4211 -0.2051  0.3573
   32MOL   H76735549   4.181   0.036   2.991  0.0448 -1.6191 -1.9833
   32MOL   H76835550   4.436   7.621   3.114 -1.5663  0.2882  1.2240
   32MOL   H76935551   4.400   0.098   3.094  0.0519 -0.1252 -1.1838
   32MOL   H77035552   4.548   7.687   2.930 -0.0921  1.7991  2.7045
   32MOL   H77135553   4.419   7.583   2.875 -2.4804  0.6213 -0.8036
   32MOL   H77235554   4.343   7.660   2.675  0.6278 -0.5072 -0.1948
   32MOL   H77335555   4.287   0.094   2.490  3.1762  0.4588 -2.1083
   32MOL   H77435556   4.423   0.193   2.556  0.7758 -1.0988  0.6008
   32MOL   H77535557   4.269   0.325   2.662  1.1609 -3.7806  0.5782
   32MOL   H77635558   4.125   0.233   2.623 -0.4052  0.4273  0.7763
   32MOL   H77735559   4.329   0.387   2.441 -1.4713  2.8738 -1.0612
   32MOL   H77835560   4.156   0.434   2.462  0.7129  1.2538 -1.5673
   32MOL   H77935561   4.257   0.195   2.300  0.4844 -0.0861 -0.4544
   32MOL   H78035562   4.092   0.238   2.350 -0.0644  1.6894 -1.8654
   32MOL   H78135563   4.270   0.398   2.187  0.1372 -0.5958  2.0232
   32MOL   H78235564   4.095   0.429   2.225 -0.2991  1.7196 -3.0964
   32MOL   H78335565   4.201   0.218   2.021 -1.8552  0.2464 -1.9053
   32MOL   H78435566   4.060   0.192   2.115  2.0215 -1.2489  1.5312
   32MOL   H78535567   4.044   0.453   1.992  1.0666  0.1702 -3.0810
   32MOL   C78635568   3.959   0.308   1.891  0.6191  0.5067  0.1848
   32MOL   O78735569   3.940   0.188   1.868 -0.2792 -0.2734 -0.1154
   32MOL   C78835570   3.881   0.411   1.802  0.1762 -0.2445  0.1733
   32MOL   C78935571   3.732   0.422   1.837 -0.3573 -0.1661  0.3954
   32MOL   C79035572   3.654   0.295   1.798 -0.6128  0.0095 -0.4080
   32MOL   C79135573   3.644   0.256   1.651 -0.1446 -0.2632  0.3091
   32MOL   C79235574   3.541   0.142   1.614 -0.1988 -0.0870  0.3887
   32MOL   C79335575   3.562   0.006   1.681 -0.2691 -0.5917 -0.2030
   32MOL   C79435576   3.474   7.581   1.637  0.1537  0.5048 -0.6491
   32MOL   C79535577   3.506   7.449   1.716 -0.4206 -0.0961  0.2461
   32MOL   C79635578   3.428   7.331   1.655 -0.0041  0.0462 -0.1566
   32MOL   C79735579   3.456   7.198   1.728  0.1952  0.7062 -0.1345
   32MOL   C79835580   3.425   7.075   1.648  0.1114  0.0846  0.1538
   32MOL   O79935581   3.315   7.067   1.606  0.4795 -0.1806 -0.1596
   32MOL   N80035582   3.525   6.998   1.613 -0.1907  0.4696  0.5452
   32MOL   C80135583   3.521   6.898   1.509 -0.1041  0.6602  0.3204
   32MOL   C80235584   3.581   6.962   1.380  0.8043  0.2866 -0.2832
   32MOL   C80335585   3.705   7.044   1.397  0.1029 -0.1093 -0.1930
   32MOL   C80435586   3.787   7.072   1.271 -0.4665 -0.0481  0.6779
   32MOL   C80535587   3.922   7.151   1.291  0.2655  0.4657 -0.2768
   32MOL   C80635588   4.029   7.119   1.181  0.5090 -0.4939 -0.4073
   32MOL   N80735589   4.081   6.986   1.181 -0.1169 -0.1047 -0.8284
   32MOL   H80835590   3.900   0.403   1.695 -0.6021 -1.9975  0.1483
   32MOL   H80935591   3.922   0.508   1.831 -0.7685  0.6954 -1.6181
   32MOL   H81035592   3.717   0.457   1.939  2.9271  2.0514  0.1874
   32MOL   H81135593   3.703   0.503   1.769 -1.0095 -1.2193 -0.5966
   32MOL   H81235594   3.555   0.316   1.838 -0.5447 -1.1282  0.4002
   32MOL   H81335595   3.703   0.216   1.856 -0.0377  2.0594  1.9739
   32MOL   H81435596   3.608   0.338   1.589  0.8766 -0.2083 -0.2334
   32MOL   H81535597   3.743   0.223   1.617 -0.5636 -1.6072  0.3407
   32MOL   H81635598   3.441   0.185   1.618 -0.4081 -0.7257  2.7524
   32MOL   H81735599   3.550   0.128   1.506  1.8042 -0.5403  0.5796
   32MOL   H81835600   3.664   7.661   1.667 -0.1855 -0.3413 -0.2561
   32MOL   H81935601   3.540   0.010   1.787 -1.5286  3.3238 -0.5233
   32MOL   H82035602   3.371   7.612   1.658 -1.1724 -2.6585 -2.1593
   32MOL   H82135603   3.482   7.568   1.529  1.1570 -1.6176 -0.3474
   32MOL   H82235604   3.613   7.430   1.713 -0.1651  1.3662 -0.5608
   32MOL   H82335605   3.480   7.466   1.820 -0.9948  1.3547 -0.1144
   32MOL   H82435606   3.455   7.321   1.550 -0.7201 -0.2840 -0.3142
   32MOL   H82535607   3.320   7.344   1.650 -0.1986 -1.4527 -0.0589
   32MOL   H82635608   3.554   7.195   1.774 -0.4001  3.2966  1.3896
   32MOL   H82735609   3.382   7.214   1.806 -0.0712  0.1449 -0.2669
   32MOL   H82835610   3.619   7.012   1.647  1.1844 -0.5459 -2.6757
   32MOL   H82935611   3.419   6.874   1.480  0.2403  1.5909 -1.7418
   32MOL   H83035612   3.581   6.813   1.541  0.1049  1.1049  1.1378
   32MOL   H83135613   3.506   7.017   1.324 -0.3026 -0.0962  0.7893
   32MOL   H83235614   3.591   6.876   1.314 -0.3851  0.8370 -1.1915
   32MOL   H83335615   3.682   7.145   1.432 -2.2364 -1.0171  1.0048
   32MOL   H83435616   3.770   6.994   1.469 -0.3271  0.1537  0.3827
   32MOL   H83535617   3.725   7.105   1.187 -2.0613  2.1495  2.6641
   32MOL   H83635618   3.817   6.974   1.232  0.3087  0.5882 -0.3380
   32MOL   H83735619   3.960   7.126   1.390 -0.1846 -0.1194 -0.2473
   32MOL   H83835620   3.904   7.258   1.287  3.6989  1.0778 -0.5284
   32MOL   H83935621   4.108   7.193   1.196 -0.4320  0.5137 -0.4157
   32MOL   H84035622   3.994   7.148   1.082  1.8432  0.1701 -0.7021
   32MOL   H84135623   4.080   6.936   1.094 -1.4252 -1.5160 -0.0233
   32MOL   C84235624   4.161   6.928   1.268 -0.0925 -0.2079 -0.4098
   32MOL   O84335625   4.191   6.989   1.371 -0.2051 -0.5877  0.4173
   32MOL   C84435626   4.202   6.787   1.247  1.0049 -0.3600 -0.4332
   32MOL   C84535627   4.298   6.731   1.361  0.3163 -0.0847 -0.0095
   32MOL   C84635628   4.270   6.578   1.395  0.6362  0.3968 -0.0071
   32MOL   C84735629   4.259   6.477   1.283 -0.6097 -0.1772  0.5263
   32MOL   C84835630   4.387   6.463   1.197 -0.6112  0.5211  0.1573
   32MOL   C84935631   4.380   6.376   1.071  0.2176 -0.1055  0.5096
   32MOL   C85035632   4.290   6.432   0.966  0.2217  0.3800  1.1564
   32MOL   C85135633   4.289   6.358   0.831 -0.0475  0.2486 -0.1775
   32MOL   C85235634   4.271   6.209   0.834  0.6980 -0.2735  0.2233
   32MOL   C85335635   4.120   6.175   0.847  0.0577 -0.2283  0.7968
   32MOL   C85435636   4.067   6.168   0.996 -0.2655 -0.1050  0.3784
   32MOL   O85535637   4.133   6.123   1.092  0.0394  0.2091 -0.7173
   32MOL   N85635638   3.946   6.203   1.017 -0.2128  0.2520 -0.1316
   32MOL   C85735639   3.882   6.208   1.144 -0.2098 -0.1268  0.2276
   32MOL   C85835640   3.836   6.074   1.207  0.5645 -0.0499  0.0351
   32MOL   C85935641   3.746   6.081   1.332 -0.4332 -0.2071  1.2162
   32MOL   C86035642   3.803   6.177   1.435 -0.4461  0.4176 -0.7192
   32MOL   C86135643   3.948   6.136   1.484 -0.0759 -0.3968  0.1340
   32MOL   C86235644   4.029   6.254   1.556  0.2207  0.4926  0.1121
   32MOL   N86335645   3.966   6.297   1.676 -0.2225 -0.8763 -0.3248
   32MOL   H86435646   4.238   6.774   1.145 -0.8422  0.4341 -1.2030
   32MOL   H86535647   4.108   6.733   1.254 -0.0843  1.7693  2.2171
   32MOL   H86635648   4.300   6.788   1.454  0.9716 -0.5754  0.2898
   32MOL   H86735649   4.400   6.736   1.321  0.2830  0.7635  0.0051
   32MOL   H86835650   4.352   6.546   1.458  0.6110 -0.1363 -0.2496
   32MOL   H86935651   4.176   6.559   1.446  0.2896  2.6932  0.2987
   32MOL   H87035652   4.175   6.516   1.225  0.3410  0.2823 -0.5500
   32MOL   H87135653   4.221   6.384   1.324  0.7663 -0.9063  0.1739
   32MOL   H87235654   4.428   6.557   1.159  1.1737 -0.6485 -0.8136
   32MOL   H87335655   4.471   6.432   1.258  0.3393  1.6625 -0.5629
   32MOL   H87435656   4.483   6.360   1.040  0.9641 -1.2335  3.4580
   32MOL   H87535657   4.346   6.277   1.102 -0.0435  0.1569  1.0726
   32MOL   H87635658   4.192   6.432   1.013 -0.2352  0.2237  0.2124
   32MOL   H87735659   4.308   6.539   0.950  2.2620 -0.1207 -0.0873
   32MOL   H87835660   4.381   6.387   0.779  1.2959  0.2498  2.1545
   32MOL   H87935661   4.222   6.418   0.769  1.1678 -0.2063 -1.9525
   32MOL   H88035662   4.346   6.155   0.893  1.0854 -0.3112 -0.3037
   32MOL   H88135663   4.295   6.180   0.732  1.4495  3.0226 -0.6055
   32MOL   H88235664   4.061   6.245   0.789  1.2825 -0.2717 -0.5329
   32MOL   H88335665   4.104   6.079   0.797  1.1087 -1.0535  2.0023
   32MOL   H88435666   3.896   6.224   0.932  0.7197  0.9546 -0.5245
   32MOL   H88535667   3.796   6.274   1.138  1.0683  1.4617 -1.0634
   32MOL   H88635668   3.949   6.248   1.220 -0.0980 -0.8508  0.5205
   32MOL   H88735669   3.922   6.013   1.234  0.1705 -0.4061  0.5076
   32MOL   H88835670   3.773   6.029   1.130  1.4236  2.4134 -2.1767
   32MOL   H88935671   3.728   5.984   1.377 -0.6504 -0.3484  0.8292
   32MOL   H89035672   3.650   6.117   1.295 -0.1978 -1.9351 -1.2176
   32MOL   H89135673   3.730   6.163   1.515  0.6447  0.8556  0.3605
   32MOL   H89235674   3.793   6.279   1.399  0.4923  0.5304 -0.6839
   32MOL   H89335675   3.938   6.057   1.559  0.0690 -0.0017  0.5718
   32MOL   H89435676   4.008   6.100   1.400  0.0311  2.6996 -1.1921
   32MOL   H89535677   4.128   6.208   1.570 -0.5942 -1.2428  0.3191
   32MOL   H89635678   4.041   6.334   1.483 -1.3025 -0.1610 -0.8744
   32MOL   H89735679   3.880   6.348   1.657  0.1369  0.3501  1.1875
   32MOL   C89835680   3.983   6.242   1.796  0.3383  0.4155  0.5731
   32MOL   O89935681   4.082   6.170   1.823  0.0365  0.2574 -0.2707
   32MOL   C90035682   3.883   6.280   1.905  0.0780 -0.1727  0.2612
   32MOL   C90135683   3.944   6.349   2.024 -0.2289  1.2864 -0.2874
   32MOL   C90235684   4.003   6.488   2.003 -0.4419 -0.7651 -0.4170
   32MOL   C90335685   4.023   6.554   2.137 -0.1203 -0.2318  0.6321
   32MOL   C90435686   4.093   6.698   2.131  0.1788  0.3140 -0.2597
   32MOL   C90535687   4.144   6.739   2.280 -0.2455 -0.4874  0.4141
   32MOL   C90635688   4.244   6.861   2.278 -0.3623 -0.1696  0.2847
   32MOL   C90735689   4.382   6.803   2.237 -0.1783  1.0439  0.3627
   32MOL   C90835690   4.493   6.906   2.254  0.8749  0.2872 -0.5591
   32MOL   C90935691   4.457   7.042   2.187 -0.3515  0.5977  0.1459
   32MOL   C91035692   4.572   7.145   2.188  0.0962 -0.7028 -0.2594
   32MOL   O91135693   4.598   7.205   2.291  0.1673 -0.3498 -0.3400
   32MOL   N91235694   4.631   7.178   2.073 -0.1241  0.0202 -0.0348
   32MOL   C91335695   4.727   7.285   2.067 -0.2896 -0.1964  0.5207
   32MOL   C91435696   4.818   7.266   1.946 -0.0503  0.7066  0.2595
   32MOL   C91535697   4.920   7.383   1.954 -0.0132 -1.0085 -0.3334
   32MOL   C91635698   5.016   7.403   1.838  0.3009 -0.1739 -0.7097
   32MOL   C91735699   5.111   7.526   1.864  0.8673  0.0033  0.0776
   32MOL   C91835700   5.206   7.558   1.755  0.3178 -0.1055 -0.8072
   32MOL   N91935701   5.150   7.591   1.623  0.4615 -0.6506 -0.1755
   32MOL   H92035702   3.800   6.340   1.869 -0.1780 -0.6701  0.0120
   32MOL   H92135703   3.816   6.198   1.933 -0.8915  0.3867 -0.3909
   32MOL   H92235704   4.009   6.277   2.074 -1.5793 -0.7636 -1.4440
   32MOL   H92335705   3.863   6.350   2.097  0.1431 -1.0034  0.1987
   32MOL   H92435706   3.950   6.554   1.934  1.1249  0.7028 -0.2507
   32MOL   H92535707   4.099   6.478   1.952  0.3254 -0.0631  0.8921
   32MOL   H92635708   3.930   6.558   2.192  0.2661 -1.6281  1.4129
   32MOL   H92735709   4.082   6.482   2.194  2.1152  1.9909  1.2364
   32MOL   H92835710   4.028   6.775   2.091 -2.5700 -2.2391 -0.9039
   32MOL   H92935711   4.180   6.702   2.065  0.4908 -0.7892  0.0660
   32MOL   H93035712   4.049   6.756   2.331 -1.1924 -2.5701 -0.5915
   32MOL   H93135713   4.199   6.662   2.335 -0.8651 -1.6180 -0.5280
   32MOL   H93235714   4.253   6.891   2.383 -0.3376  0.5372  0.0852
   32MOL   H93335715   4.213   6.949   2.223 -3.0614 -0.4792  1.2262
   32MOL   H93435716   4.379   6.756   2.140 -0.6271  0.5026  0.6361
   32MOL   H93535717   4.405   6.716   2.298 -1.4467 -0.1536 -0.8483
   32MOL   H93635718   4.488   6.932   2.359 -0.3675  0.2597 -0.6148
   32MOL   H93735719   4.589   6.859   2.233 -0.3638 -3.1134  1.0690
   32MOL   H93835720   4.421   7.029   2.085  1.8762 -0.2195 -0.5722
   32MOL   H93935721   4.383   7.102   2.240 -1.2744  0.3596 -0.8727
   32MOL   H94035722   4.625   7.117   1.993 -0.5570  1.4489 -1.0978
   32MOL   H94135723   4.794   7.303   2.152  2.3919  2.3634 -1.9965
   32MOL   H94235724   4.665   7.375   2.066 -0.1863 -0.0725  2.4190
   32MOL   H94335725   4.880   7.176   1.955 -1.9928 -0.5628  1.4588
   32MOL   H94435726   4.768   7.267   1.850  0.7325  2.0474 -0.1461
   32MOL   H94535727   4.866   7.478   1.952 -2.5136 -2.3313  0.9788
   32MOL   H94635728   4.977   7.377   2.047 -0.7502  1.3608  0.2978
   32MOL   H94735729   4.968   7.413   1.741  0.3602  0.8057 -0.6437
   32MOL   H94835730   5.070   7.309   1.846 -1.2296 -0.8801  2.2666
   32MOL   H94935731   5.046   7.614   1.870  0.6601 -0.1414 -0.0308
   32MOL   H95035732   5.167   7.525   1.957  1.3651  0.0732 -0.2208
   32MOL   H95135733   5.253   7.461   1.741  1.2994  0.1266  0.7208
   32MOL   H95235734   5.276   7.635   1.786  0.9620 -0.9095 -0.2539
   32MOL   H95335735   5.051   7.607   1.617  0.2834  0.1285  3.5548
   32MOL   C95435736   5.216   7.591   1.509 -0.7154  0.2349  0.2782
   32MOL   O95535737   5.343   7.605   1.507 -0.3941 -0.1215  0.6972
   32MOL   C95635738   5.140   7.582   1.378  0.7471 -0.2545  0.5710
   32MOL   C95735739   5.231   7.547   1.262 -0.2633  0.3337 -0.0114
   32MOL   C95835740   5.282   7.405   1.259 -0.8520 -0.3358 -0.4052
   32MOL   C95935741   5.382   7.381   1.146 -0.7885  0.0579  0.3015
   32MOL   C96035742   5.395   7.235   1.117  0.2527  0.3150 -0.4236
   32MOL   C96135743   5.502   7.191   1.015 -0.3194 -0.7743  0.6318
   32MOL   C96235744   5.463   7.217   0.868 -0.5259 -0.4677  0.0157
   32MOL   C96335745   5.575   7.171   0.770  0.8254 -0.4589  0.0729
   32MOL   C96435746   5.566   7.254   0.638  0.8041 -0.1800 -0.6283
   32MOL   C96535747   5.442   7.229   0.547  0.3104  0.1364 -0.1660
   32MOL   C96635748   5.423   7.321   0.435  0.0912  0.2415 -1.1025
   32MOL   O96735749   5.513   7.402   0.403  0.2857 -0.3777 -0.4195
   32MOL   N96835750   5.303   7.314   0.378 -0.2081  0.1688  0.0192
   32MOL   C96935751   5.266   7.379   0.257 -0.5720  0.4390 -0.3552
   32MOL   C97035752   5.247   7.287   0.137  0.2566  0.3226 -0.9500
   32MOL   C97135753   5.377   7.204   0.117 -1.2033  0.1758 -0.3844
   32MOL   C97235754   5.365   7.118   7.678 -0.2145  1.0698 -0.1404
   32MOL   C97335755   5.476   7.013   7.665 -0.0744 -0.2372  0.7696
   32MOL   C97435756   5.445   6.907   7.553  0.6536 -0.0147 -0.4895
   32MOL   N97535757   5.565   6.875   7.480  0.7271 -0.6614  0.2726
   32MOL   H97635758   5.067   7.501   1.387  0.4390 -0.2819 -1.9434
   32MOL   H97735759   5.078   7.670   1.364 -1.4990 -1.8618  0.2212
   32MOL   H97835760   5.319   7.610   1.257  0.2211 -0.0607  2.4644
   32MOL   H97935761   5.168   7.559   1.174 -0.4439 -0.8059 -0.0500
   32MOL   H98035762   5.322   7.375   1.356  0.1486  0.6226 -0.5026
   32MOL   H98135763   5.196   7.339   1.251 -0.5952 -0.6245 -0.8405
   32MOL   H98235764   5.353   7.431   1.053  2.5766  0.4845 -0.5738
   32MOL   H98335765   5.478   7.426   1.171  0.1222 -1.3475 -0.5816
   32MOL   H98435766   5.404   7.189   1.216 -3.4243  1.3531  0.4953
   32MOL   H98535767   5.300   7.199   1.077  1.0916 -2.8540  0.3408
   32MOL   H98635768   5.597   7.232   1.049 -0.4464 -0.8147  1.0436
   32MOL   H98735769   5.508   7.082   1.006 -3.4351 -0.8451 -1.2489
   32MOL   H98835770   5.369   7.168   0.845  0.3098 -1.1926 -1.8889
   32MOL   H98935771   5.439   7.324   0.864  1.4743  0.0351  0.9326
   32MOL   H99035772   5.668   7.198   0.821  1.1934  1.7970 -1.7437
   32MOL   H99135773   5.576   7.063   0.755 -2.2518 -0.9914  3.0637
   32MOL   H99235774   5.652   7.231   0.575 -0.7683 -1.6283 -2.2895
   32MOL   H99335775   5.567   7.360   0.662 -2.9736 -0.3857  0.7607
   32MOL   H99435776   5.431   7.126   0.512  2.4584 -0.0996 -0.2154
   32MOL   H99535777   5.361   7.249   0.617  1.0774 -0.1901  0.8280
   32MOL   H99635778   5.237   7.256   0.426 -1.0605  0.5513 -0.6655
   32MOL   H99735779   5.329   7.466   0.241  1.8458 -1.4151 -1.2571
   32MOL   H99835780   5.176   7.440   0.256 -0.7430  0.1824 -0.8411
   32MOL   H99935781   5.221   7.354   0.055 -0.6453 -0.6829 -1.4923
   32MOL     H135782   5.158   7.225   0.141  0.1138  0.6423  1.8166
   32MOL     H235783   5.397   7.151   0.210  0.7098  0.5680 -0.5474
   32MOL     H335784   5.462   7.272   0.114 -0.6086 -0.4349  1.7960
   32MOL     H435785   5.272   7.061   7.691  0.0078  0.9083  0.7462
   32MOL     H535786   5.360   7.166   7.580  0.3478 -1.3058 -1.3871
   32MOL     H635787   5.500   6.975   0.072 -1.9547 -1.5039  0.7646
   32MOL     H735788   5.564   7.074   7.641  0.3438 -2.7711 -5.2009
   32MOL     H835789   5.390   6.826   7.601  0.0100 -0.1096 -1.3672
   32MOL     H935790   5.371   6.947   7.483  0.2301  1.1835  0.6140
   32MOL    H1035791   5.626   6.811   7.528  0.3072 -2.4709 -1.5155
   32MOL    C1135792   5.606   6.940   7.369  0.4860  0.3039 -0.1668
   32MOL    O1235793   5.545   7.036   7.327 -0.2219  0.4115  0.0328
   32MOL    C1335794   5.741   6.906   7.314  0.1479 -0.4278  0.0820
   32MOL    C1435795   5.848   6.964   7.413  0.7784 -0.2264 -0.0083
   32MOL    C1535796   5.994   6.913   7.390  0.5985 -0.5806 -0.5422
   32MOL    C1635797   6.091   6.972   7.495 -0.2580  0.0035 -0.1113
   32MOL    C1735798   6.080   6.927   7.640  0.0536 -0.4932 -0.5803
   32MOL    C1835799   6.152   6.802   7.676 -0.8895 -0.1620  0.0586
   32MOL    C1935800   6.175   6.775   0.134 -0.1070  0.2338  0.7287
   32MOL    C2035801   6.156   6.625   0.171  0.1215 -0.4310  0.3267
   32MOL    C2135802   6.157   6.606   0.329  0.4136  0.5271  0.3866
   32MOL    C2235803   6.027   6.653   0.399 -0.0428  0.1272 -0.4108
   32MOL    C2335804   6.019   6.793   0.462 -0.2152 -0.0128 -0.0596
   32MOL    O2435805   6.084   6.881   0.413 -0.1545 -0.1452  0.0658
   32MOL    N2535806   5.948   6.810   0.573  0.0771 -0.0406 -0.4050
   32MOL    C2635807   5.969   6.931   0.652 -0.0332  0.3015  0.0427
   32MOL    C2735808   5.993   6.899   0.802 -0.2682 -0.2788  0.1044
   32MOL    C2835809   6.014   7.019   0.888  0.7258 -0.0866 -0.6920
   32MOL    C2935810   6.148   7.088   0.894 -0.1915  0.2172  0.7052
   32MOL    C3035811   6.147   7.215   0.978 -0.2955  0.0025  0.5163
   32MOL    C3135812   6.287   7.261   1.012 -0.4616  0.3771 -0.3499
   32MOL    N3235813   6.307   7.407   1.017  0.4124  0.3343 -0.2000
   32MOL    H3335814   5.745   6.937   7.209  2.4380 -2.4426 -0.4708
   32MOL    H3435815   5.757   6.798   7.313  1.4526 -0.2436 -1.5496
   32MOL    H3535816   5.813   6.943   7.514 -1.0999 -0.4341 -0.6876
   32MOL    H3635817   5.846   7.072   7.398 -0.5050 -0.0643  1.2919
   32MOL    H3735818   6.026   6.952   7.293  2.0362 -0.3002  0.0252
   32MOL    H3835819   5.995   6.806   7.374 -3.4914 -0.7717 -0.0062
   32MOL    H3935820   6.189   6.948   7.453  0.4136  0.0083  1.4066
   32MOL    H4035821   6.095   7.081   7.498  0.5620  0.1651 -3.9029
   32MOL    H4135822   6.115   7.005   0.016  2.6597 -1.3845 -0.8665
   32MOL    H4235823   5.975   6.918   7.670 -0.1509  0.6754 -0.9107
   32MOL    H4335824   6.102   6.720   7.624 -0.3520 -0.8037  0.5494
   32MOL    H4435825   6.253   6.799   7.633 -0.8193  0.8442  0.1340
   32MOL    H4535826   6.274   6.815   0.153  0.3465 -0.6036  0.1904
   32MOL    H4635827   6.113   6.845   0.191  0.1898  0.4974  0.7264
   32MOL    H4735828   6.058   6.597   0.131  0.2528 -0.3069 -0.0757
   32MOL    H4835829   6.231   6.559   0.129  0.8258  0.4458  0.2014
   32MOL    H4935830   6.245   6.649   0.377  1.0903 -0.5310  0.1173
   32MOL    H5035831   6.170   6.498   0.336  2.1462  0.5544 -1.7820
   32MOL    H5135832   5.935   6.635   0.344 -0.0771 -0.8789 -0.0450
   32MOL    H5235833   6.016   6.581   0.480 -1.5334 -0.4499 -1.1145
   32MOL    H5335834   5.880   6.738   0.594  0.8456 -0.1161  1.9569
   32MOL    H5435835   5.887   6.999   0.627 -0.1197  0.3206  0.3776
   32MOL    H5535836   6.057   6.983   0.613  0.5298 -1.7985 -1.5454
   32MOL    H5635837   6.077   6.829   0.809 -0.5978 -1.0370 -2.6341
   32MOL    H5735838   5.907   6.840   0.833  0.3914 -0.5839  1.4070
   32MOL    H5835839   5.981   7.003   0.991 -1.3073  0.5432 -1.2254
   32MOL    H5935840   5.941   7.097   0.865  1.8139  0.2630 -3.0634
   32MOL    H6035841   6.179   7.112   0.792 -0.3137 -1.7238  0.1792
   32MOL    H6135842   6.210   7.020   0.952  2.4230  1.4458 -0.5594
   32MOL    H6235843   6.110   7.187   1.076  0.1879 -0.7268  0.4978
   32MOL    H6335844   6.091   7.302   0.946 -0.5751 -0.3880 -0.0724
   32MOL    H6435845   6.348   7.223   0.930 -0.9815 -2.8190  0.6664
   32MOL    H6535846   6.314   7.212   1.106 -2.3988  0.4629  0.2618
   32MOL    H6635847   6.285   7.462   0.934 -0.5252  1.4454  0.7562
   32MOL    C6735848   6.326   7.484   1.129  0.5903 -0.0273  0.3816
   32MOL    O6835849   6.369   7.435   1.235  0.5375  0.3041 -0.3162
   32MOL    C6935850   6.309   7.633   1.107 -0.1074  0.1255  0.3057
   32MOL    C7035851   6.165   7.680   1.067  0.1775  0.1909 -0.3015
   32MOL    C7135852   6.143   0.142   1.067 -0.6622 -0.6827  0.4643
   32MOL    C7235853   5.999   0.190   1.039  0.3737 -0.0397  0.2001
   32MOL    C7335854   5.968   0.342   1.065  0.2783  0.4146 -0.2700
   32MOL    C7435855   5.815   0.360   1.034 -0.3170 -0.2596  0.0204
   32MOL    C7535856   5.779   0.501   0.974 -0.5675 -0.1579  0.7077
   32MOL    C7635857   5.630   0.524   0.953 -0.3082  0.3135  0.4189
   32MOL    C7735858   5.605   0.639   0.856  0.6021 -0.3863  0.1008
   32MOL    C7835859   5.462   0.666   0.832  0.0019 -0.2552 -0.4294
   32MOL    C7935860   5.399   0.567   0.732 -0.4392 -0.8464 -0.4827
   32MOL    O8035861   5.462   0.538   0.626  0.3382 -0.3700 -0.0782
   32MOL    N8135862   5.283   0.510   0.765  0.0266  0.7135  0.9147
   32MOL    C8235863   5.233   0.392   0.692 -1.0222 -0.5095  0.1347
   32MOL    C8335864   5.096   0.358   0.742  0.0110  0.0790 -0.3470
   32MOL    C8435865   5.022   0.261   0.640 -0.5619  0.1933 -0.1356
   32MOL    C8535866   4.893   0.206   0.696 -0.4689 -0.6568  0.0573
   32MOL    C8635867   4.845   0.069   0.636 -0.1725 -0.3176  0.1517
   32MOL    C8735868   4.806   0.083   0.485  0.1725  0.6486 -0.1609
   32MOL    N8835869   4.681   0.156   0.462  0.2695 -0.0277  0.5210
   32MOL    H8935870   6.380   7.661   1.029 -0.6856  3.1329  0.7948
   32MOL    H9035871   6.346   7.689   1.193  1.5903 -0.8479  0.2321
   32MOL    H9135872   6.143   7.639   0.969 -1.0486  0.6435 -0.2230
   32MOL    H9235873   6.099   7.649   1.149  0.4763  1.5589  0.4719
   32MOL    H9335874   6.174   0.173   1.167 -1.3831 -0.5144  0.6379
   32MOL    H9435875   6.207   0.199   1.001  2.9353 -1.6390  2.9527
   32MOL    H9535876   5.964   0.162   0.940  2.7055  1.3298 -1.0665
   32MOL    H9635877   5.932   0.125   1.095  1.6868 -1.2063  0.4339
   32MOL    H9735878   5.990   0.362   1.169  0.5868  1.9619 -0.6186
   32MOL    H9835879   6.037   0.386   0.993  1.9318 -2.1982 -0.3599
   32MOL    H9935880   5.779   0.281   0.968  2.6822 -3.5260  2.1211
   32MOL   H10035881   5.758   0.353   1.126 -2.1425 -1.2925 -1.1441
   32MOL   H10135882   5.840   0.513   0.885 -1.1043  0.9116  0.4819
   32MOL   H10235883   5.814   0.580   1.041  1.3974  0.5929 -1.1525
   32MOL   H10335884   5.593   0.429   0.914  0.9614  0.0227 -0.0987
   32MOL   H10435885   5.580   0.545   1.048  0.3631  0.0903  0.8267
   32MOL   H10535886   5.667   0.618   0.769 -0.9787 -0.2615 -1.0855
   32MOL   H10635887   5.653   0.727   0.899 -1.4312  1.0146 -0.4364
   32MOL   H10735888   5.417   0.655   0.930  1.4378  0.3666  0.3218
   32MOL   H10835889   5.447   0.763   0.785 -0.3928 -1.1138 -2.1013
   32MOL   H10935890   5.238   0.543   0.849 -1.7725  0.9237 -0.0989
   32MOL   H11035891   5.309   0.314   0.697 -1.7327 -1.2303 -0.1332
   32MOL   H11135892   5.222   0.417   0.586 -0.4463  1.6368  0.5737
   32MOL   H11235893   5.048   0.451   0.773  1.7341  0.6441  0.6973
   32MOL   H11335894   5.108   0.305   0.837 -2.6032  1.8832  1.0325
   32MOL   H11435895   5.100   0.191   0.611 -0.5609  0.4287 -0.7093
   32MOL   H11535896   5.000   0.314   0.547  0.4406  1.1786  0.1795
   32MOL   H11635897   4.909   0.180   0.801 -0.0815 -0.6997 -0.0117
   32MOL   H11735898   4.810   0.276   0.705 -1.6365 -1.9761 -0.1348
   32MOL   H11835899   4.918   7.680   0.646 -0.5542 -0.8193 -1.0959
   32MOL   H11935900   4.758   0.045   0.698 -0.7157  1.3139  0.0508
   32MOL   H12035901   4.890   0.131   0.436  0.5164 -0.3700 -0.5905
   32MOL   H12135902   4.800   7.675   0.440  1.6752  0.8102 -0.7437
   32MOL   H12235903   4.694   0.256   0.472 -0.6131  0.1232  0.1863
   32MOL   H12335904   4.654   0.149   0.365 -0.3331  1.2074  0.5869
   33MOL     C135905   5.079   2.524   4.671 -0.0587 -0.0824 -0.6165
   33MOL     O235906   4.987   2.556   4.600  0.1154  0.1037 -0.5721
   33MOL     C335907   5.102   2.379   4.711  0.3576 -0.7362 -0.5312
   33MOL     C435908   5.004   2.332   4.815  0.4087  0.3610 -0.1027
   33MOL     C535909   5.015   2.182   4.844  0.2785  0.4740  0.0934
   33MOL     C635910   5.155   2.138   4.896  0.5489 -0.2493 -0.5594
   33MOL     C735911   5.150   1.992   4.931 -0.5932  0.3743 -0.5522
   33MOL     C835912   5.286   1.950   4.987 -0.2941  0.6380  0.3733
   33MOL     C935913   5.317   1.990   5.131 -0.3542 -0.0847 -0.9042
   33MOL    C1035914   5.451   1.941   5.195  0.2087 -0.1672  0.5305
   33MOL    C1135915   5.485   2.003   5.335 -0.1102 -0.4530  0.2116
   33MOL    C1235916   5.559   2.137   5.333 -0.6140 -0.7600 -0.0464
   33MOL    C1335917   5.579   2.190   5.478 -0.5682 -0.1913 -0.9561
   33MOL    O1435918   5.499   2.277   5.519  0.1132  0.4521 -0.6958
   33MOL    N1535919   5.676   2.133   5.550 -0.0451  0.1372 -0.0342
   33MOL    C1635920   5.685   2.160   5.693  0.8884  0.2036 -0.0477
   33MOL    C1735921   5.826   2.201   5.730  0.0030  0.4371 -0.2280
   33MOL    C1835922   5.857   2.343   5.682  0.0449 -0.2611  0.0634
   33MOL    C1935923   5.994   2.379   5.721 -1.1285  0.5282 -1.0814
   33MOL    C2035924   6.025   2.532   5.704  1.4235  0.0670 -0.1333
   33MOL    C2135925   6.166   2.562   5.755  0.3110  0.5324  0.2886
   33MOL    N2235926   6.214   2.692   5.711 -0.2596  0.4635  0.2991
   33MOL    H2335927   5.206   2.361   4.736  0.0879 -2.0879 -0.3625
   33MOL    H2435928   5.075   2.326   4.619  0.1552 -0.4742 -0.6232
   33MOL    H2535929   4.901   2.361   4.791  0.4046  1.7542  1.5460
   33MOL    H2635930   5.013   2.384   4.910 -1.3695 -0.1034  0.3379
   33MOL    H2735931   5.008   2.128   4.749 -0.9075  0.6284  0.0888
   33MOL    H2835932   4.936   2.150   4.912  0.3174 -0.7978 -0.4413
   33MOL    H2935933   5.229   2.156   4.818  0.3453  0.3456 -0.6213
   33MOL    H3035934   5.182   2.203   4.980  1.5259 -0.8281 -0.4171
   33MOL    H3135935   5.119   1.928   4.848 -0.3541 -0.7070  0.1753
   33MOL    H3235936   5.077   1.984   5.011 -0.3053  0.5724 -0.2681
   33MOL    H3335937   5.294   1.841   4.985  1.9342  0.7708 -3.4308
   33MOL    H3435938   5.375   1.966   4.927  0.5890  0.1229  1.5223
   33MOL    H3535939   5.311   2.099   5.135 -1.1899 -0.1073 -1.4548
   33MOL    H3635940   5.237   1.963   5.201 -0.6789  0.2012 -1.1617
   33MOL    H3735941   5.432   1.838   5.224 -1.0756 -0.0556  0.1271
   33MOL    H3835942   5.533   1.953   5.124  0.2387 -1.1050  0.3983
   33MOL    H3935943   5.538   1.929   5.394  1.5973 -0.1869 -0.9646
   33MOL    H4035944   5.393   2.025   5.389  0.4668 -0.3638  1.1687
   33MOL    H4135945   5.653   2.138   5.279 -1.1676 -1.3157 -1.0419
   33MOL    H4235946   5.501   2.213   5.281 -1.9431  0.3620  2.8995
   33MOL    H4335947   5.735   2.063   5.507  1.0805  1.0814 -0.0384
   33MOL    H4435948   5.672   2.070   5.752 -2.6162  0.1375 -0.8375
   33MOL    H4535949   5.611   2.230   5.731  1.5174  0.6469  0.3683
   33MOL    H4635950   5.900   2.127   5.702 -1.8339 -0.8327 -1.8183
   33MOL    H4735951   5.831   2.189   5.838 -0.6696  1.3976 -0.0738
   33MOL    H4835952   5.841   2.345   5.575 -1.7922  1.1186  0.3430
   33MOL    H4935953   5.781   2.403   5.731 -1.0669  0.2461 -2.2645
   33MOL    H5035954   6.073   2.317   5.680  1.2394  2.4853  0.4073
   33MOL    H5135955   5.998   2.361   5.829 -0.2633 -0.4815 -1.2800
   33MOL    H5235956   6.027   2.554   5.597 -4.0018  0.4680 -0.2994
   33MOL    H5335957   5.950   2.584   5.763 -0.4996 -2.1831 -0.4955
   33MOL    H5435958   6.179   2.552   5.863  1.0304  1.6407  0.3263
   33MOL    H5535959   6.242   2.489   5.727 -1.4082 -1.3597  0.4510
   33MOL    H5635960   6.142   2.760   5.694  0.0708  0.8219  0.3227
   33MOL    H5735961   5.156   2.597   4.697 -0.0686 -0.6236  1.0367
   33MOL    C5835962   6.343   2.726   5.680 -0.3943 -0.7050  0.2853
   33MOL    O5935963   6.439   2.651   5.690  0.0433 -0.1290  0.7105
   33MOL    C6035964   6.361   2.858   5.618 -0.0810  0.9851  0.1282
   33MOL    C6135965   6.494   2.900   5.558 -0.2241 -0.5691  0.3636
   33MOL    C6235966   6.510   3.056   5.528  0.3973 -1.1002  0.3206
   33MOL    C6335967   6.392   3.109   5.439 -0.2258  0.8016 -0.7015
   33MOL    C6435968   6.402   3.262   5.414 -0.0673 -0.3555  0.0191
   33MOL    C6535969   6.277   3.342   5.366 -0.2371  0.1725  0.0687
   33MOL    C6635970   6.304   3.492   5.379 -0.3156  0.9990  1.0726
   33MOL    C6735971   6.183   3.583   5.368 -0.7600 -0.6974 -0.2365
   33MOL    C6835972   6.214   3.736   5.367 -0.3599 -0.0978  0.5275
   33MOL    C6935973   6.091   3.815   5.322 -0.1992 -0.2357  0.3663
   33MOL    C7035974   6.096   3.968   5.338  0.7484 -0.1745 -0.6264
   33MOL    O7135975   6.192   4.031   5.388  0.3750  0.6196  0.0701
   33MOL    N7235976   5.995   4.038   5.289 -0.0466  0.5727 -0.2878
   33MOL    C7335977   5.984   4.185   5.286 -0.4397 -0.2550 -0.9937
   33MOL    C7435978   5.982   4.253   5.154  0.1087 -0.5777  0.3855
   33MOL    C7535979   6.127   4.267   5.090 -0.6823  0.2462  0.5014
   33MOL    C7635980   6.131   4.359   4.970 -0.6966  0.2110 -0.0414
   33MOL    C7735981   6.062   4.305   4.843  0.7964 -0.7695  0.8191
   33MOL    C7835982   6.090   4.386   4.715 -0.5699  0.0032  0.5921
   33MOL    N7935983   6.055   4.322   4.591  0.1921  0.9891  0.1859
   33MOL    H8035984   6.336   2.934   5.692 -1.3053  1.7168 -1.0016
   33MOL    H8135985   6.283   2.858   5.541  0.1388 -2.4184 -0.1543
   33MOL    H8235986   6.575   2.885   5.630  0.6914 -2.5294 -1.0323
   33MOL    H8335987   6.528   2.852   5.467  1.2502 -1.3164  1.2863
   33MOL    H8435988   6.601   3.073   5.471  1.6430 -0.9404  2.3514
   33MOL    H8535989   6.521   3.119   5.616  1.2749  0.2582 -0.7438
   33MOL    H8635990   6.298   3.089   5.490  1.1064 -0.7639  1.2063
   33MOL    H8735991   6.393   3.056   5.344  0.6533 -1.2965  0.4298
   33MOL    H8835992   6.446   3.298   5.506  0.4183 -3.3043  1.0017
   33MOL    H8935993   6.489   3.286   5.353  1.1147 -3.0375  0.5539
   33MOL    H9035994   6.192   3.304   5.423 -0.4566  0.9505  0.2558
   33MOL    H9135995   6.264   3.331   5.258 -1.2863  1.9822 -0.0127
   33MOL    H9235996   6.370   3.519   5.297 -0.8057  1.8741  0.9698
   33MOL    H9335997   6.344   3.518   5.477 -0.7976  0.4178  1.4316
   33MOL    H9435998   6.128   3.548   5.281 -1.0207 -2.1863  0.5145
   33MOL    H9535999   6.109   3.552   5.441 -0.0043  0.0104  0.8612
   33MOL    H9636000   6.287   3.758   5.290 -0.5719  1.8014  0.8331
   33MOL    H9736001   6.250   3.775   5.462  1.3104 -1.5369  0.5071
   33MOL    H9836002   6.061   3.794   5.219  1.1132 -1.2428  0.1900
   33MOL    H9936003   6.009   3.780   5.384  0.8738 -2.3194  0.6561
   33MOL   H10036004   5.912   3.986   5.265 -0.1599 -0.8152  2.8810
   33MOL   H10136005   6.062   4.224   5.351 -0.2531  1.5004 -2.2667
   33MOL   H10236006   5.887   4.214   5.327 -0.6341  1.2010 -2.4483
   33MOL   H10336007   5.912   4.210   5.084 -0.0987  0.3612  0.0081
   33MOL   H10436008   5.954   4.358   5.163 -3.0698 -0.9007 -4.2838
   33MOL   H10536009   6.157   4.164   5.069 -3.3635 -0.2016 -1.5095
   33MOL   H10636010   6.196   4.302   5.166  2.2564 -1.0590 -1.4865
   33MOL   H10736011   6.083   4.454   4.993  0.5723  0.4187  1.9030
   33MOL   H10836012   6.234   4.377   4.937 -1.1056  0.5085 -1.1611
   33MOL   H10936013   5.954   4.294   4.857  0.4066  0.9056 -0.6957
   33MOL   H11036014   6.096   4.205   4.820  1.3655 -0.0462 -1.6515
   33MOL   H11136015   6.196   4.412   4.715 -0.3827 -0.7651  0.2102
   33MOL   H11236016   6.035   4.480   4.711  1.1618  1.0491  0.4206
   33MOL   H11336017   5.964   4.280   4.595 -1.1343  3.4588 -2.3656
   33MOL   C11436018   6.131   4.341   4.477  0.5012 -0.3198 -0.3522
   33MOL   O11536019   6.223   4.428   4.475  0.2006 -0.1370  0.2963
   33MOL   C11636020   6.100   4.264   4.350  0.5255 -0.4812 -0.4188
   33MOL   C11736021   6.151   4.333   4.216  0.3875  0.2611  0.1621
   33MOL   C11836022   6.091   4.248   4.096  0.5572 -0.6736  0.5545
   33MOL   C11936023   6.130   4.295   3.951 -0.2443 -0.1647 -0.2254
   33MOL   C12036024   6.059   4.424   3.896  0.4633 -0.3229  0.4952
   33MOL   C12136025   6.095   4.466   3.756 -0.7771  0.2725 -0.0236
   33MOL   C12236026   6.047   4.601   3.702 -0.0159  0.8938  0.3207
   33MOL   C12336027   5.896   4.610   3.718  0.0107 -0.0554 -0.9260
   33MOL   C12436028   5.828   4.750   3.693 -0.2331  0.1508  0.5928
   33MOL   C12536029   5.690   4.765   3.746  0.3330 -0.0671 -0.1511
   33MOL   C12636030   5.583   4.671   3.685 -0.9193  0.3707 -0.3398
   33MOL   O12736031   5.606   4.619   3.575 -0.0443  0.0369  0.1436
   33MOL   N12836032   5.468   4.645   3.748  0.4829 -0.3577  0.2377
   33MOL   C12936033   5.379   4.538   3.705  0.2177  0.4074 -0.3054
   33MOL   C13036034   5.288   4.498   3.820 -0.9691  0.0927  1.1731
   33MOL   C13136035   5.206   4.376   3.783  0.7557  0.2251  0.5296
   33MOL   C13236036   5.115   4.341   3.897 -0.0393  1.4018 -0.5464
   33MOL   C13336037   5.046   4.200   3.880 -0.5167 -0.2787 -0.5154
   33MOL   C13436038   4.945   4.174   3.995 -0.0685  0.8592 -0.1086
   33MOL   N13536039   4.824   4.098   3.940  0.4893  0.1060  0.1067
   33MOL   H13636040   6.138   4.163   4.363 -0.6170 -0.6559  1.7189
   33MOL   H13736041   5.994   4.242   4.353  0.4498 -0.2212 -1.0294
   33MOL   H13836042   6.258   4.335   4.198  0.1635 -1.7437 -1.6835
   33MOL   H13936043   6.115   4.436   4.217  0.1692  0.2104  3.2959
   33MOL   H14036044   6.121   4.144   4.107  2.0402 -0.2239  0.9046
   33MOL   H14136045   5.982   4.254   4.095  0.6414  1.4177 -0.7283
   33MOL   H14236046   6.238   4.310   3.953  0.3982 -4.2973  1.6079
   33MOL   H14336047   6.127   4.212   3.881  1.6131 -1.1351  0.8102
   33MOL   H14436048   5.952   4.405   3.893  0.3422  0.4892 -0.6675
   33MOL   H14536049   6.068   4.510   3.962  0.6058  0.8347 -1.0034
   33MOL   H14636050   6.058   4.390   3.687 -0.1306  0.6597 -0.8052
   33MOL   H14736051   6.203   4.472   3.753 -0.8325  0.8447 -2.3685
   33MOL   H14836052   6.095   4.675   3.766  0.9818  1.3509 -0.9440
   33MOL   H14936053   6.069   4.628   3.599 -2.1220 -0.4022 -0.5098
   33MOL   H15036054   5.868   4.591   3.822  2.7886 -0.3003 -0.1828
   33MOL   H15136055   5.859   4.524   3.662 -1.3879  1.4784 -2.4307
   33MOL   H15236056   5.830   4.768   3.585 -1.3707 -0.2216  0.5017
   33MOL   H15336057   5.896   4.825   3.732  0.0388  0.0648  0.2886
   33MOL   H15436058   5.660   4.869   3.732 -0.1828  0.1312  2.1945
   33MOL   H15536059   5.683   4.756   3.855  0.0005  0.0515 -0.1624
   33MOL   H15636060   5.446   4.702   3.829  1.2441 -1.1583  1.0089
   33MOL   H15736061   5.440   4.452   3.680  1.7670  1.5293 -0.5126
   33MOL   H15836062   5.317   4.578   3.625 -0.0285  0.9146  0.1292
   33MOL   H15936063   5.216   4.573   3.853 -0.2453  0.8965  0.9366
   33MOL   H16036064   5.339   4.467   3.912  0.3737 -2.9104 -0.5240
   33MOL   H16136065   5.144   4.390   3.694 -0.8439 -0.1852  1.5414
   33MOL   H16236066   5.273   4.293   3.760  0.7910 -0.4493  2.9026
   33MOL   H16336067   5.160   4.352   3.995 -3.3423 -0.9087  1.3062
   33MOL   H16436068   5.037   4.417   3.907 -1.5920 -0.4511  1.7938
   33MOL   H16536069   5.125   4.125   3.885  0.3483  0.5931 -0.9714
   33MOL   H16636070   4.986   4.195   3.789  1.0083 -2.3560 -1.4220
   33MOL   H16736071   4.989   4.114   4.074 -2.4911  1.2725  1.6115
   33MOL   H16836072   4.916   4.272   4.034  1.4658  1.2255  0.1169
   33MOL   H16936073   4.831   3.999   3.925 -1.7012  0.1892 -1.6277
   33MOL   C17036074   4.713   4.161   3.900  0.3467 -0.7449 -0.4376
   33MOL   O17136075   4.709   4.283   3.904  0.9550  0.4726  0.2984
   33MOL   C17236076   4.611   4.078   3.824 -0.0300  0.3629  0.3097
   33MOL   C17336077   4.662   4.038   3.687  0.0080 -0.1884  0.8986
   33MOL   C17436078   4.569   3.944   3.599 -0.1368  0.5055  0.3040
   33MOL   C17536079   4.604   3.946   3.447 -0.0480  0.3097  0.5988
   33MOL   C17636080   4.544   3.831   3.364 -0.8044  0.0073  0.4427
   33MOL   C17736081   4.553   3.850   3.215  0.0664 -0.1673 -0.4166
   33MOL   C17836082   4.460   3.767   3.131  0.3220  1.0142  0.0905
   33MOL   C17936083   4.308   3.787   3.145 -0.0365  0.2603  0.1358
   33MOL   C18036084   4.272   3.941   3.142 -0.2013  0.4564  0.1155
   33MOL   C18136085   4.124   3.950   3.111 -0.0980  0.8816  0.4108
   33MOL   C18236086   4.039   3.896   3.220 -0.0432 -0.7128 -0.1858
   33MOL   O18336087   3.988   3.783   3.202  0.3384 -0.3185  0.7093
   33MOL   N18436088   4.011   3.969   3.325 -0.0971  0.4217 -0.1895
   33MOL   C18536089   3.955   3.932   3.453  0.7297  0.5932  0.0549
   33MOL   C18636090   3.799   3.941   3.454  0.4904 -0.7871 -0.6835
   33MOL   C18736091   3.727   3.898   3.587 -0.8324 -0.2391  0.5931
   33MOL   C18836092   3.752   3.751   3.621 -0.2452 -0.1010  0.4972
   33MOL   C18936093   3.676   3.719   3.754  0.4711  0.2532 -0.1073
   33MOL   C19036094   3.664   3.571   3.788 -0.0294  0.1508 -0.1381
   33MOL   N19136095   3.610   3.554   3.924 -0.7098 -0.2776  0.7474
   33MOL   H19236096   4.597   3.989   3.885 -2.3779 -1.0938 -2.2128
   33MOL   H19336097   4.517   4.134   3.821 -0.2912 -0.1101 -0.5552
   33MOL   H19436098   4.757   3.987   3.699  0.5513  0.6663  0.3108
   33MOL   H19536099   4.686   4.128   3.631 -1.2353  0.2687  1.0583
   33MOL   H19636100   4.463   3.971   3.607 -0.3743 -0.6709  1.2169
   33MOL   H19736101   4.570   3.841   3.634 -0.0613  0.3562 -0.1378
   33MOL   H19836102   4.561   4.038   3.407 -1.3741  0.0462  1.3581
   33MOL   H19936103   4.711   3.949   3.428 -0.5288  2.8582 -2.0906
   33MOL   H20036104   4.585   3.736   3.398  0.9164  0.8095  0.6550
   33MOL   H20136105   4.439   3.832   3.393 -0.6999  1.7417  0.8042
   33MOL   H20236106   4.655   3.827   3.185  0.1249 -1.2177  0.5875
   33MOL   H20336107   4.542   3.956   3.192  1.5836  0.3283  1.0387
   33MOL   H20436108   4.484   3.786   3.027  0.3958  0.5707  0.0270
   33MOL   H20536109   4.491   3.664   3.150  0.1853  0.4401 -2.6467
   33MOL   H20636110   4.265   3.732   3.061 -0.5318 -0.0336  0.5778
   33MOL   H20736111   4.255   3.729   3.221 -3.2946 -0.6841 -2.7639
   33MOL   H20836112   4.335   4.013   3.090  1.6468 -1.2887 -0.1674
   33MOL   H20936113   4.278   3.977   3.244  1.4126  0.7396 -0.0672
   33MOL   H21036114   4.083   4.047   3.083 -0.3415  0.2672 -1.4749
   33MOL   H21136115   4.109   3.883   3.026  0.8287 -0.5440  1.3530
   33MOL   H21236116   4.028   4.068   3.312  0.8714  0.1815 -0.8077
   33MOL   H21336117   3.998   3.998   3.529  0.3346  2.3944 -1.2678
   33MOL   H21436118   3.977   3.825   3.460 -0.1571  0.4457  0.7451
   33MOL   H21536119   3.771   4.037   3.411 -1.6326 -0.8210  0.5660
   33MOL   H21636120   3.756   3.874   3.379  1.2664  0.2790 -2.0899
   33MOL   H21736121   3.750   3.970   3.666 -0.6939  0.1884  0.1644
   33MOL   H21836122   3.623   3.927   3.571 -0.6134  1.2540  1.7045
   33MOL   H21936123   3.859   3.733   3.620 -0.0910  0.7447 -1.5639
   33MOL   H22036124   3.708   3.683   3.547 -0.3355 -0.3464  0.7778
   33MOL   H22136125   3.575   3.760   3.745  0.3618 -0.2235 -1.1507
   33MOL   H22236126   3.721   3.764   3.842 -1.0448  1.3486  0.1282
   33MOL   H22336127   3.759   3.518   3.787 -1.0063 -1.6745  0.7521
   33MOL   H22436128   3.597   3.528   3.714 -2.3202  0.7590  1.5042
   33MOL   H22536129   3.668   3.577   4.004 -0.3513 -1.6567  0.9041
   33MOL   C22636130   3.482   3.513   3.946  0.5812 -0.0897  0.9498
   33MOL   O22736131   3.406   3.478   3.854  0.1576  0.4562  0.4440
   33MOL   C22836132   3.441   3.505   4.091 -0.2392 -0.5624  0.3658
   33MOL   C22936133   3.342   3.398   4.114  0.0290  0.3648 -0.8583
   33MOL   C23036134   3.395   3.254   4.084  0.7990 -0.3368 -0.3768
   33MOL   C23136135   3.285   3.152   4.108  0.2935 -0.3210  0.4566
   33MOL   C23236136   3.323   3.005   4.119  0.0261  0.5258 -0.2242
   33MOL   C23336137   3.379   2.954   3.982  0.4305 -0.4126  0.1845
   33MOL   C23436138   3.432   2.815   3.988  0.1962 -0.6732 -0.1752
   33MOL   C23536139   3.333   2.705   4.018  0.1687 -0.2410  0.6456
   33MOL   C23636140   3.414   2.569   4.032 -0.2198  0.6905 -0.2475
   33MOL   C23736141   3.336   2.441   4.060 -0.0378 -0.0364 -0.2355
   33MOL   C23836142   3.248   2.439   4.180  0.6662  0.0643  0.3486
   33MOL   O23936143   3.134   2.396   4.183  0.0772 -0.2343  0.5258
   33MOL   N24036144   3.307   2.475   4.299  0.3777 -0.0210 -0.2434
   33MOL   C24136145   3.229   2.492   4.428 -1.4544  0.8514  0.2703
   33MOL   C24236146   3.172   2.631   4.433 -0.4154 -0.1368  0.0523
   33MOL   C24336147   3.280   2.734   4.451  0.1759  0.0654 -0.0660
   33MOL   C24436148   3.224   2.872   4.450  0.3611 -0.2503 -0.0168
   33MOL   C24536149   3.145   2.917   4.580 -0.3280  0.3883  0.3632
   33MOL   C24636150   3.229   2.935   4.710 -0.5254 -0.0558  0.0475
   33MOL   N24736151   3.148   2.928   4.827 -0.0454 -0.2275  0.1139
   33MOL   H24836152   3.397   3.603   4.109  0.1616  0.1157 -2.1322
   33MOL   H24936153   3.522   3.489   4.162 -1.7795 -0.6837  2.1418
   33MOL   H25036154   3.301   3.410   4.214  1.6308 -0.1618 -0.1140
   33MOL   H25136155   3.256   3.422   4.052 -1.2416 -0.2469  0.6536
   33MOL   H25236156   3.429   3.245   3.980 -0.5816 -0.6645 -0.8009
   33MOL   H25336157   3.481   3.251   4.151 -0.4405 -0.7854  1.2157
   33MOL   H25436158   3.201   3.156   4.038 -0.0366  0.6574  0.9075
   33MOL   H25536159   3.233   3.177   4.200  0.0365  3.4604 -0.6109
   33MOL   H25636160   3.236   2.947   4.148  0.5794 -0.9201 -1.3591
   33MOL   H25736161   3.391   2.998   4.204  0.4658 -2.0064 -0.7369
   33MOL   H25836162   3.303   2.954   3.905 -0.3399 -0.1641  0.9362
   33MOL   H25936163   3.461   3.015   3.944 -0.0682 -0.7399 -1.4349
   33MOL   H26036164   3.514   2.812   4.060  0.7174 -0.9160 -0.7798
   33MOL   H26136165   3.474   2.789   3.891 -1.8704  4.7540 -2.7520
   33MOL   H26236166   3.268   2.721   4.103  0.5191 -2.2619  1.3215
   33MOL   H26336167   3.261   2.688   3.937  0.1751  0.0578  0.5770
   33MOL   H26436168   3.476   2.549   3.945  1.1301 -3.5535  1.5647
   33MOL   H26536169   3.485   2.577   4.114  1.2648  1.2457 -1.5544
   33MOL   H26636170   3.270   2.434   3.973  0.7831  4.3702 -1.3568
   33MOL   H26736171   3.404   2.355   4.055 -0.4874 -0.5226  1.8052
   33MOL   H26836172   3.407   2.489   4.312  0.6087 -0.2337 -1.7344
   33MOL   H26936173   3.303   2.479   4.507 -1.5763 -2.1134 -0.0439
   33MOL   H27036174   3.158   2.411   4.445 -0.4707 -0.0574  0.1410
   33MOL   H27136175   3.107   2.632   4.520 -0.8271  1.1235 -0.2435
   33MOL   H27236176   3.110   2.654   4.346 -1.1669 -0.2371  0.5652
   33MOL   H27336177   3.323   2.715   4.549  0.2023  0.6974  0.0472
   33MOL   H27436178   3.357   2.723   4.374  0.3974 -0.8787  0.2882
   33MOL   H27536179   3.161   2.900   4.366 -1.6867 -2.7731  0.6258
   33MOL   H27636180   3.311   2.938   4.437 -0.4688  0.9060  0.2061
   33MOL   H27736181   3.069   2.842   4.599 -0.1040  0.4980  1.6884
   33MOL   H27836182   3.091   3.010   4.563 -1.7578 -0.2859  1.1800
   33MOL   H27936183   3.270   3.036   4.707  0.6097 -0.4489  1.5062
   33MOL   H28036184   3.320   2.874   4.716 -1.3644 -1.5355 -1.7606
   33MOL   H28136185   3.059   2.974   4.819 -0.9548 -2.1707 -1.2722
   33MOL   C28236186   3.179   2.866   4.944  0.3182 -0.1806  0.1166
   33MOL   O28336187   3.273   2.791   4.954 -0.1015  0.1616  0.0822
   33MOL   C28436188   3.098   2.906   5.068  0.3615 -1.3586 -0.0927
   33MOL   C28536189   3.146   2.840   5.197 -0.2051  0.5692  0.1425
   33MOL   C28636190   3.038   2.864   5.304  0.7886 -0.3017 -0.6958
   33MOL   C28736191   3.069   2.795   5.437  0.1243 -0.7437 -0.3470
   33MOL   C28836192   3.193   2.849   5.511 -0.5225  0.4461  0.3437
   33MOL   C28936193   3.240   2.736   5.607 -0.5047  0.0696  0.1997
   33MOL   C29036194   3.336   2.784   5.718 -0.0758 -0.5729  0.0576
   33MOL   C29136195   3.371   2.675   5.833  0.1844 -0.2114  0.2588
   33MOL   C29236196   3.506   2.716   5.904  0.4286 -0.0995  0.3169
   33MOL   C29336197   3.560   2.608   5.984  0.0877  0.1767  0.5145
   33MOL   C29436198   3.697   2.644   6.034  0.0224  0.1905 -0.0023
   33MOL   O29536199   3.721   2.752   6.085  0.1420 -0.6676  0.0042
   33MOL   N29636200   3.796   2.553   6.023  0.5441 -0.0724 -0.0386
   33MOL   C29736201   3.927   2.553   6.090  0.8745 -0.1285  0.5768
   33MOL   C29836202   4.027   2.644   6.010 -0.1112 -0.0870 -0.9083
   33MOL   C29936203   4.157   2.660   6.085 -0.1964  0.6710 -0.4953
   33MOL   C30036204   4.233   2.786   6.033 -0.2805 -0.1441 -0.1999
   33MOL   C30136205   4.352   2.815   6.129 -0.0682 -0.3904  0.1508
   33MOL   C30236206   4.434   2.944   6.089  0.2798  0.4603 -0.6300
   33MOL   N30336207   4.568   2.937   6.133  0.9419  0.1586 -0.0300
   33MOL   H30436208   3.117   3.014   5.067 -0.5220 -1.1980 -0.9414
   33MOL   H30536209   2.992   2.889   5.049 -0.4155  2.9122 -0.1663
   33MOL   H30636210   3.231   2.896   5.235  0.3648  0.4652 -0.9680
   33MOL   H30736211   3.177   2.736   5.195 -1.0085  0.3223  0.2766
   33MOL   H30836212   3.026   2.969   5.330  3.0372 -0.3948  0.8496
   33MOL   H30936213   2.943   2.817   5.278  1.9493 -1.8885 -2.1989
   33MOL   H31036214   3.084   2.690   5.410  3.5692 -0.1310 -1.0865
   33MOL   H31136215   2.976   2.813   5.492  1.7357  0.4812  2.0684
   33MOL   H31236216   3.277   2.873   5.447  0.1741 -0.0237  1.0799
   33MOL   H31336217   3.162   2.942   5.559 -0.7662  1.8654 -2.4814
   33MOL   H31436218   3.161   2.689   5.667 -0.9291  1.1961  0.5470
   33MOL   H31536219   3.293   2.664   5.545  0.2840  1.1571 -0.4155
   33MOL   H31636220   3.280   2.868   5.760 -0.5452 -2.1058  2.5895
   33MOL   H31736221   3.428   2.824   5.675 -0.0677  0.4896  1.0439
   33MOL   H31836222   3.385   2.579   5.782  0.6942 -0.4837  0.9061
   33MOL   H31936223   3.305   2.661   5.919 -0.4278  1.1724  0.0191
   33MOL   H32036224   3.579   2.744   5.829  1.2449 -1.2894  0.6546
   33MOL   H32136225   3.502   2.802   5.971  5.8729  0.3511  0.3112
   33MOL   H32236226   3.494   2.569   6.062  1.9808 -1.5521  1.3089
   33MOL   H32336227   3.577   2.517   5.926  0.2603 -0.0919  0.9815
   33MOL   H32436228   3.773   2.457   6.002  1.9474 -0.2024 -1.0301
   33MOL   H32536229   3.971   2.454   6.098 -1.1171 -0.9075  2.5059
   33MOL   H32636230   3.905   2.588   6.191 -0.5523 -1.3914  0.7229
   33MOL   H32736231   3.982   2.743   6.004  0.2107  0.1597  0.4678
   33MOL   H32836232   4.040   2.605   5.909 -3.4429  2.2170 -2.3232
   33MOL   H32936233   4.225   2.575   6.089  0.0719  0.9082  0.1438
   33MOL   H33036234   4.135   2.674   6.191 -1.5953 -1.9820 -0.3838
   33MOL   H33136235   4.268   2.766   5.932 -0.9090  0.8330 -0.6187
   33MOL   H33236236   4.166   2.872   6.027 -3.5329 -2.4783  0.9336
   33MOL   H33336237   4.415   2.726   6.126  0.5246  0.0539 -0.8887
   33MOL   H33436238   4.305   2.823   6.227 -0.4404  2.7520 -0.2509
   33MOL   H33536239   4.413   2.975   5.987 -1.2376  1.7887  0.0629
   33MOL   H33636240   4.385   3.025   6.142 -0.5863  0.6520 -1.7055
   33MOL   H33736241   4.607   2.854   6.176  1.2270 -0.2591 -1.0863
   33MOL   C33836242   4.661   3.024   6.087  0.0994 -0.8729  1.2622
   33MOL   O33936243   4.637   3.111   6.003  0.8228 -0.1209  0.0689
   33MOL   C34036244   4.809   3.007   6.131  0.1978 -0.3234  0.3185
   33MOL   C34136245   4.831   3.018   6.281  0.8504  0.1188 -0.1738
   33MOL   C34236246   4.754   3.125   6.366  0.0827 -0.7215  0.2511
   33MOL   C34336247   4.800   3.146   6.513 -0.9594 -0.2045 -0.2797
   33MOL   C34436248   4.716   3.254   6.587  0.1409 -0.2406 -0.1798
   33MOL   C34536249   4.762   3.397   6.560  0.3628 -0.6239 -0.2705
   33MOL   C34636250   4.693   3.504   6.653 -0.4541 -0.2743  0.0006
   33MOL   C34736251   4.542   3.486   6.668  0.9502 -0.1608 -0.3180
   33MOL   C34836252   4.486   3.576   6.776  0.0185  0.1707 -0.1866
   33MOL   C34936253   4.331   3.548   6.786  0.5828  0.4867 -0.0931
   33MOL   C35036254   4.271   3.648   6.885  0.9541 -0.1101  0.1781
   33MOL   O35136255   4.343   3.695   6.975  0.2163  0.0559 -0.1470
   33MOL   N35236256   4.137   3.673   6.871  0.3670  0.1560 -0.4659
   33MOL   C35336257   4.057   3.755   6.964  0.1654  0.7945  0.0284
   33MOL   C35436258   4.037   3.895   6.906 -0.1954 -0.6589 -0.6003
   33MOL   C35536259   3.934   3.988   6.973  0.2464 -0.7433 -0.9721
   33MOL   C35636260   3.790   3.971   6.926  0.1466  0.0718  0.1128
   33MOL   C35736261   3.704   4.091   6.980  0.4071 -0.0130  0.3228
   33MOL   C35836262   3.564   4.087   6.906  0.2974 -0.3194  0.2802
   33MOL   N35936263   3.466   4.181   6.961 -0.7791 -0.1714 -0.3594
   33MOL   H36036264   4.862   3.094   6.094 -2.6605  0.8430 -1.2107
   33MOL   H36136265   4.845   2.916   6.082  0.1986  0.1601 -0.6019
   33MOL   H36236266   4.799   2.928   6.334  0.1138  1.6751  2.1283
   33MOL   H36336267   4.937   3.015   6.302  1.0669  1.1328 -1.0865
   33MOL   H36436268   4.649   3.108   6.345 -0.2802  1.6587  0.0757
   33MOL   H36536269   4.756   3.224   6.322  0.3284 -0.2013  1.3979
   33MOL   H36636270   4.801   3.049   6.564  0.6946  1.0015  2.0532
   33MOL   H36736271   4.902   3.182   6.522 -1.2311  0.2561  1.1103
   33MOL   H36836272   4.609   3.236   6.579  0.0123  0.6614 -0.5494
   33MOL   H36936273   4.745   3.223   6.688 -0.9226 -1.4280 -0.2312
   33MOL   H37036274   4.868   3.402   6.585 -0.0414  0.5425  1.2886
   33MOL   H37136275   4.749   3.431   6.457 -1.0483 -1.8867 -0.5183
   33MOL   H37236276   4.729   3.477   6.753  1.9401  0.0280 -0.7514
   33MOL   H37336277   4.721   3.606   6.628  1.2358 -1.1516 -1.7664
   33MOL   H37436278   4.505   3.520   6.571 -0.0983  0.4963  0.3088
   33MOL   H37536279   4.510   3.385   6.695 -1.6785  1.4010  2.8314
   33MOL   H37636280   4.498   3.678   6.741  2.6099 -0.1522 -0.3001
   33MOL   H37736281   4.538   3.558   6.870 -2.4140 -1.1701  0.9620
   33MOL   H37836282   4.275   3.549   6.692 -1.5294  1.1281  1.1457
   33MOL   H37936283   4.315   3.455   6.839  1.4187  2.5393  3.9358
   33MOL   H38036284   4.085   3.622   6.801  0.9246 -0.3134 -0.5439
   33MOL   H38136285   4.109   3.768   7.058 -0.0770 -2.4007  0.6407
   33MOL   H38236286   3.961   3.711   6.990  1.2651 -1.7937 -0.1863
   33MOL   H38336287   4.024   3.887   6.798  1.3844 -0.8957 -0.7843
   33MOL   H38436288   4.134   3.944   6.898 -1.9146  2.6341 -2.4625
   33MOL   H38536289   3.931   3.981   7.082  1.7587  2.1433 -0.6958
   33MOL   H38636290   3.965   4.087   6.940  0.6666 -0.5488 -0.0039
   33MOL   H38736291   3.790   3.994   6.819  2.0922  3.4194  0.7668
   33MOL   H38836292   3.749   3.872   6.947 -0.6052  0.6284  1.3228
   33MOL   H38936293   3.744   4.192   6.975  0.9066 -0.2657 -1.0945
   33MOL   H39036294   3.691   4.058   7.083 -0.0522  0.5846  0.4565
   33MOL   H39136295   3.581   4.095   6.798 -1.4943 -2.5424 -0.2036
   33MOL   H39236296   3.514   3.990   6.910 -1.4052  0.5092 -0.6979
   33MOL   H39336297   3.419   4.154   7.046 -0.5293  1.9024  0.4581
   33MOL   C39436298   3.437   4.298   6.908  0.5870  1.2472 -0.4011
   33MOL   O39536299   3.501   4.346   6.818 -0.5454  0.2029 -0.3920
   33MOL   C39636300   3.303   4.364   6.949 -0.6336 -0.3029  0.5705
   33MOL   C39736301   3.206   4.287   7.045 -0.1251  0.8390  0.0695
   33MOL   C39836302   3.234   4.301   7.195 -0.0597  0.1570  0.6534
   33MOL   C39936303   3.144   4.220   7.297  0.6593 -0.0026  0.3167
   33MOL   C40036304   3.156   4.251   7.452  0.6922  0.0761  0.1774
   33MOL   C40136305   3.284   4.190   7.515  0.5836  0.4005  0.1025
   33MOL   C40236306   3.319   4.243   7.652 -0.4316  0.5299  0.1264
   33MOL   C40336307   3.453   4.185   0.012  0.0698 -0.2795 -0.2132
   33MOL   C40436308   3.492   4.241   0.155 -0.3056 -0.0621  0.1018
   33MOL   C40536309   3.620   4.178   0.210 -0.0676  0.8849  0.1228
   33MOL   C40636310   3.597   4.043   0.279  0.6447 -0.3190  0.1065
   33MOL   O40736311   3.483   4.019   0.322 -0.3649 -0.4098  0.2990
   33MOL   N40836312   3.709   3.975   0.300  0.2314  0.0912 -0.3143
   33MOL   C40936313   3.717   3.839   0.337  0.3948 -0.1837  0.0611
   33MOL   C41036314   3.716   3.830   0.491  0.2015  0.7859  0.1503
   33MOL   C41136315   3.683   3.688   0.528 -0.6416 -0.6042  0.6076
   33MOL   C41236316   3.665   3.653   0.679  0.0212  0.3404 -0.2564
   33MOL   C41336317   3.603   3.516   0.697  0.1700  0.3643 -0.0274
   33MOL   C41436318   3.600   3.460   0.839 -0.0415  0.3728  0.1209
   33MOL   N41536319   3.724   3.469   0.915 -0.2050 -0.1972 -0.2924
   33MOL   H41636320   3.246   4.389   6.859  0.0510 -0.0871  0.1918
   33MOL   H41736321   3.317   4.457   7.005  2.0867 -1.3073  1.5958
   33MOL   H41836322   3.187   4.187   7.008  1.4386  0.3729  0.4750
   33MOL   H41936323   3.112   4.338   7.023 -0.8454  0.9724  3.2018
   33MOL   H42036324   3.245   4.406   7.219 -2.6087  1.2018 -2.4704
   33MOL   H42136325   3.335   4.261   7.205  0.8391  2.0419 -0.6188
   33MOL   H42236326   3.175   4.116   7.283 -0.8305 -0.1055 -2.6191
   33MOL   H42336327   3.043   4.218   7.258  0.6500  0.9277  0.2995
   33MOL   H42436328   3.155   4.360   7.454  1.8439  0.1337 -1.4618
   33MOL   H42536329   3.063   4.221   7.500 -0.5886  0.8566 -1.7561
   33MOL   H42636330   3.256   4.085   7.524 -2.8108  1.2567  0.2546
   33MOL   H42736331   3.367   4.198   7.445 -0.5848  3.3837 -1.0124
   33MOL   H42836332   3.331   4.351   7.655 -0.8067  0.6451 -1.8188
   33MOL   H42936333   3.236   4.230   0.030 -0.3296 -2.0717 -0.1667
   33MOL   H43036334   3.441   4.077   0.020 -0.1760 -0.4539 -2.4868
   33MOL   H43136335   3.535   4.208   7.635 -0.6051  0.8807 -0.6458
   33MOL   H43236336   3.404   4.231   0.219 -0.0417  0.5794  0.5667
   33MOL   H43336337   3.503   4.350   0.154 -1.7693  0.1014 -0.5763
   33MOL   H43436338   3.682   4.149   0.125  0.1761  1.0537  0.2419
   33MOL   H43536339   3.669   4.256   0.268  2.0107  0.3817 -0.9135
   33MOL   H43636340   3.794   4.025   0.277  0.5557 -0.2499  0.1197
   33MOL   H43736341   3.801   3.789   0.290  0.1897  0.6817 -1.2435
   33MOL   H43836342   3.633   3.787   0.291  1.6036 -1.2239 -1.0038
   33MOL   H43936343   3.635   3.893   0.526  0.1926  0.4295  0.7691
   33MOL   H44036344   3.809   3.871   0.531 -0.1020 -0.8442  2.5920
   33MOL   H44136345   3.598   3.651   0.471 -1.7499  0.7639  1.3579
   33MOL   H44236346   3.765   3.637   0.477 -1.4966  0.4847 -1.9568
   33MOL   H44336347   3.763   3.648   0.728  0.2065 -0.2476 -0.6899
   33MOL   H44436348   3.600   3.725   0.730 -3.8956 -3.8550  0.9576
   33MOL   H44536349   3.504   3.524   0.652  0.1673 -0.8531 -0.2471
   33MOL   H44636350   3.651   3.437   0.640  0.6703  0.0140  0.8664
   33MOL   H44736351   3.521   3.512   0.894  0.0310  0.9236 -0.2947
   33MOL   H44836352   3.558   3.360   0.839  0.8323 -0.0544 -3.2821
   33MOL   H44936353   3.743   3.561   0.953 -0.6718 -0.4322  0.4999
   33MOL   C45036354   3.798   3.360   0.950 -0.0450 -0.5992  0.8184
   33MOL   O45136355   3.778   3.248   0.908 -0.1966  0.5223 -0.1128
   33MOL   C45236356   3.920   3.390   1.050  0.5180 -0.9767  0.6689
   33MOL   C45336357   4.033   3.300   1.020 -0.2958 -0.7313 -0.9339
   33MOL   C45436358   4.149   3.313   1.123  0.6722 -0.1605  0.6010
   33MOL   C45536359   4.200   3.462   1.127  1.0012  0.3748  0.2787
   33MOL   C45636360   4.330   3.480   1.196 -0.0041 -0.0442 -0.8500
   33MOL   C45736361   4.367   3.624   1.200 -0.6121 -0.3011 -0.1147
   33MOL   C45836362   4.506   3.642   1.275 -0.4491  0.3651  0.3953
   33MOL   C45936363   4.554   3.782   1.243  0.3659 -0.1380  0.2021
   33MOL   C46036364   4.692   3.815   1.304  0.3668 -0.2475 -0.3364
   33MOL   C46136365   4.762   3.936   1.259  0.4187  0.2678 -0.7333
   33MOL   C46236366   4.829   3.925   1.129 -0.6724 -0.8588  0.5818
   33MOL   O46336367   4.801   3.842   1.042  0.3308 -0.6618 -0.4423
   33MOL   N46436368   4.934   4.008   1.110  0.2860 -0.0999 -0.1830
   33MOL   C46536369   5.021   4.003   0.997  1.2674  0.1759 -0.1845
   33MOL   C46636370   4.958   4.035   0.860 -0.1680  0.1709  0.4993
   33MOL   C46736371   5.049   4.097   0.761 -0.2289 -0.3896  0.4664
   33MOL   C46836372   4.981   4.166   0.642  0.6595 -0.8580 -0.1454
   33MOL   C46936373   5.082   4.254   0.559 -0.4100  0.1897  0.2669
   33MOL   C47036374   5.114   4.398   0.617 -0.2151  0.2267  0.1249
   33MOL   N47136375   5.219   4.472   0.548  0.0344 -0.3622  0.3837
   33MOL   H47236376   3.947   3.495   1.044 -1.5834 -0.4106  0.5176
   33MOL   H47336377   3.870   3.360   1.143  0.5236 -2.3527  0.2414
   33MOL   H47436378   4.070   3.325   0.921 -1.2473  0.1769 -1.0629
   33MOL   H47536379   4.004   3.195   1.020 -0.2024 -0.7607  0.2034
   33MOL   H47636380   4.232   3.243   1.111  0.0378 -1.1191  1.6315
   33MOL   H47736381   4.116   3.284   1.222  1.0033  0.9115  1.0303
   33MOL   H47836382   4.134   3.526   1.185 -1.5779 -0.9719 -1.0691
   33MOL   H47936383   4.214   3.508   1.029 -0.2060  0.7323  0.2719
   33MOL   H48036384   4.411   3.425   1.148  0.3464  1.0419 -1.5447
   33MOL   H48136385   4.337   3.442   1.298  1.0864 -2.2169 -1.7094
   33MOL   H48236386   4.305   3.692   1.259  1.2560 -1.1491  2.8842
   33MOL   H48336387   4.379   3.660   1.097 -1.0115 -1.1228 -0.4576
   33MOL   H48436388   4.478   3.636   1.380  0.7471 -0.9761  0.6594
   33MOL   H48536389   4.578   3.564   1.249 -2.0918 -0.2680 -2.5358
   33MOL   H48636390   4.569   3.787   1.135  3.0254 -0.0172  0.5387
   33MOL   H48736391   4.483   3.862   1.267 -0.7877 -0.6872 -1.3118
   33MOL   H48836392   4.760   3.732   1.288  3.0183  1.5083  1.4382
   33MOL   H48936393   4.679   3.814   1.412 -1.1068 -2.1508 -0.4914
   33MOL   H49036394   4.682   4.009   1.249 -0.1289  0.0897  1.8971
   33MOL   H49136395   4.830   3.969   1.337  1.0309 -1.5040 -0.5025
   33MOL   H49236396   4.945   4.072   1.188 -2.8174 -2.8295  2.6471
   33MOL   H49336397   5.066   3.904   0.994 -0.8038 -0.7657 -1.3900
   33MOL   H49436398   5.110   4.065   1.008  1.6661 -0.5923  0.9521
   33MOL   H49536399   4.918   3.939   0.826  1.9447  0.4086 -2.8746
   33MOL   H49636400   4.876   4.106   0.875 -1.6545 -1.8484  2.3591
   33MOL   H49736401   5.122   4.023   0.726  2.1637  1.2146  1.9522
   33MOL   H49836402   5.106   4.173   0.814 -0.5001 -0.5691  1.0171
   33MOL   H49936403   4.907   4.238   0.677 -0.9054 -1.1898 -2.6844
   33MOL   H50036404   4.926   4.090   0.587 -0.2564  1.3810 -2.4008
   33MOL   H50136405   5.179   4.206   0.555  0.0174  0.9661  0.9514
   33MOL   H50236406   5.049   4.265   0.456 -1.8382  0.6420  0.7554
   33MOL   H50336407   5.026   4.460   0.601 -0.9890 -0.0339  3.1249
   33MOL   H50436408   5.126   4.401   0.725 -0.5776 -0.5606  0.1888
   33MOL   H50536409   5.212   4.488   0.449  0.7523 -1.3052  0.1854
   33MOL   C50636410   5.327   4.529   0.602  0.1225  0.7669 -0.1022
   33MOL   O50736411   5.354   4.521   0.721  0.1316  0.3680  0.0720
   33MOL   C50836412   5.424   4.609   0.520  0.5652 -0.3541  0.2635
   33MOL   C50936413   5.552   4.532   0.502 -0.2264 -0.1807 -0.2738
   33MOL   C51036414   5.668   4.628   0.462  0.0321  0.2720 -0.5802
   33MOL   C51136415   5.784   4.541   0.396 -0.6241  0.7665 -0.6958
   33MOL   C51236416   5.904   4.637   0.356  0.1474  0.1445 -0.2266
   33MOL   C51336417   5.881   4.740   0.241 -0.9333  0.0237  0.0584
   33MOL   C51436418   5.890   4.668   0.100 -0.6047  0.3955  0.4781
   33MOL   C51536419   5.861   4.768   7.675 -0.1468  0.2260  0.2873
   33MOL   C51636420   5.889   4.719   7.530 -0.3865  0.7611 -0.7434
   33MOL   C51736421   5.899   4.831   7.424 -0.2832  0.0576 -0.0814
   33MOL   C51836422   5.773   4.917   7.390 -0.0450  0.4365  0.1449
   33MOL   O51936423   5.672   4.904   7.457  0.1675  0.1288 -0.7914
   33MOL   N52036424   5.771   4.985   7.277 -0.0528  0.3447  0.3242
   33MOL   C52136425   5.656   5.055   7.216 -0.2050  0.1187 -0.7668
   33MOL   C52236426   5.678   5.093   7.072  0.0707  0.0009 -0.1121
   33MOL   C52336427   5.548   5.168   7.014  0.0060  0.2851 -0.6515
   33MOL   C52436428   5.554   5.187   6.866  0.1311  0.1888  0.1033
   33MOL   C52536429   5.588   5.326   6.816  0.9467 -0.6445  0.2630
   33MOL   C52636430   5.478   5.432   6.812 -0.2099  0.1969 -0.6788
   33MOL   N52736431   5.521   5.557   6.749  0.1747  0.1951  0.4151
   33MOL   H52836432   5.443   4.703   0.572 -0.8271  0.4730 -0.7182
   33MOL   H52936433   5.379   4.645   0.428  0.3278  1.5129  1.0844
   33MOL   H53036434   5.528   4.467   0.418 -4.2201  1.2264 -0.3448
   33MOL   H53136435   5.587   4.472   0.586  1.2701 -0.1713 -0.8779
   33MOL   H53236436   5.701   4.690   0.545 -0.8321 -0.1720  0.1044
   33MOL   H53336437   5.637   4.690   0.379 -0.0009  0.2901 -0.5545
   33MOL   H53436438   5.816   4.461   0.463  4.1206  0.4496 -3.0669
   33MOL   H53536439   5.753   4.493   0.303  0.3248 -1.2353  0.0007
   33MOL   H53636440   5.946   4.691   0.441  0.8213  0.1849 -0.5764
   33MOL   H53736441   5.992   4.577   0.334  0.9563  1.3223 -0.2566
   33MOL   H53836442   5.788   4.793   0.261 -0.9154  0.5222 -1.1501
   33MOL   H53936443   5.963   4.811   0.237 -0.1213 -0.9374 -0.4983
   33MOL   H54036444   5.995   4.637   0.092 -0.5476  0.7051  0.0016
   33MOL   H54136445   5.832   4.576   0.093 -0.3168  0.2471 -0.0394
   33MOL   H54236446   5.760   4.810   7.681  0.4818  1.6203  1.5239
   33MOL   H54336447   5.925   4.849   0.019  1.0191 -1.3672  1.8961
   33MOL   H54436448   5.816   4.648   7.490 -0.8813  1.3798 -0.9532
   33MOL   H54536449   5.986   4.668   7.529 -0.2114  1.0944 -0.5612
   33MOL   H54636450   5.957   4.910   7.472  1.0669 -2.2047  2.1286
   33MOL   H54736451   5.958   4.791   7.341 -0.0768 -0.9338  0.5292
   33MOL   H54836452   5.852   4.991   7.216 -2.0327  0.9630 -2.3579
   33MOL   H54936453   5.635   5.143   7.277 -0.3712  0.5357 -1.4160
   33MOL   H55036454   5.568   4.991   7.228 -0.3771 -0.0562 -2.8202
   33MOL   H55136455   5.689   5.001   7.014  0.3815  0.9199 -1.5457
   33MOL   H55236456   5.768   5.153   7.063  1.0975 -1.8173 -2.5039
   33MOL   H55336457   5.534   5.264   7.064  3.9653  0.7823 -0.3179
   33MOL   H55436458   5.460   5.112   7.044 -0.8463  1.9191 -0.0475
   33MOL   H55536459   5.465   5.165   6.807  0.6197 -2.7538  0.3970
   33MOL   H55636460   5.629   5.115   6.834 -0.4597  0.0227 -0.9381
   33MOL   H55736461   5.673   5.364   6.871  1.3583  2.5603 -2.4013
   33MOL   H55836462   5.615   5.306   6.712  1.5386 -2.3208  0.7307
   33MOL   H55936463   5.388   5.398   6.760 -0.3630 -0.3387 -0.0686
   33MOL   H56036464   5.443   5.460   6.911  0.0012 -1.8877  0.0032
   33MOL   H56136465   5.541   5.555   6.650  0.1628  0.2378  0.4116
   33MOL   C56236466   5.542   5.669   6.816 -0.5759 -0.1666  0.1518
   33MOL   O56336467   5.540   5.682   6.939  0.0595 -1.0316  0.4665
   33MOL   C56436468   5.578   5.788   6.730 -0.4744 -0.3429 -0.9334
   33MOL   C56536469   5.714   5.854   6.770 -0.2063  0.0641  0.2432
   33MOL   C56636470   5.699   5.966   6.876  0.7842 -0.1476 -0.0153
   33MOL   C56736471   5.822   6.030   6.949  0.4136 -0.4690 -0.3286
   33MOL   C56836472   5.886   5.941   7.055 -0.2118 -0.0637 -0.1976
   33MOL   C56936473   6.003   6.018   7.134 -0.5329  0.2696  0.4350
   33MOL   C57036474   6.078   5.934   7.236  0.6212 -0.2326 -0.0632
   33MOL   C57136475   6.203   6.008   7.291 -0.3005 -0.7602 -0.2293
   33MOL   C57236476   6.279   5.913   7.377 -0.1140  0.1955 -0.1490
   33MOL   C57336477   6.417   5.965   7.419  0.2780 -0.6602  0.2623
   33MOL   C57436478   6.492   5.873   7.502 -0.4607  0.2623  0.4595
   33MOL   O57536479   6.560   5.789   7.444 -0.4163 -0.2860 -0.4225
   33MOL   N57636480   6.485   5.880   7.632  1.0220  0.6391  0.7726
   33MOL   C57736481   6.540   5.798   0.046  0.8025  0.5052  0.2252
   33MOL   C57836482   6.653   5.877   0.118 -0.0488 -0.5820  0.6174
   33MOL   C57936483   6.740   5.785   0.209 -0.1097  0.7987 -0.0552
   33MOL   C58036484   6.863   5.859   0.276 -0.3344  0.5048  0.4574
   33MOL   C58136485   6.924   5.783   0.395  0.0423  0.0436  0.7380
   33MOL   C58236486   7.065   5.832   0.431 -0.6675 -0.5233  0.5628
   33MOL   N58336487   7.072   5.975   0.455  0.1179 -0.1232 -1.0036
   33MOL   H58436488   5.577   5.759   6.625  0.8974 -0.4148 -0.9371
   33MOL   H58536489   5.497   5.861   6.738  0.3987  0.6462 -1.0303
   33MOL   H58636490   5.792   5.784   6.801  0.5445  0.7654 -0.0583
   33MOL   H58736491   5.759   5.905   6.685 -0.5368  2.3495  1.4056
   33MOL   H58836492   5.638   5.935   6.961 -1.9097  1.5438 -1.2588
   33MOL   H58936493   5.633   6.040   6.830  1.6613  0.9574  0.4953
   33MOL   H59036494   5.891   6.047   6.867  0.6783  0.2720  0.0462
   33MOL   H59136495   5.786   6.116   7.005 -1.0090 -1.1072 -0.2421
   33MOL   H59236496   5.810   5.904   7.123 -1.8932 -1.0868 -2.5567
   33MOL   H59336497   5.930   5.853   7.008 -0.2028  0.2082 -0.7107
   33MOL   H59436498   6.076   6.057   7.063  1.5137 -1.5754  1.4846
   33MOL   H59536499   5.953   6.105   7.178 -1.2175 -0.4831  1.1645
   33MOL   H59636500   6.008   5.903   7.314  1.7268  0.2846  1.1422
   33MOL   H59736501   6.108   5.838   7.194 -1.1190 -1.0532  0.5006
   33MOL   H59836502   6.179   6.092   7.356  3.9530  1.1912 -0.9490
   33MOL   H59936503   6.270   6.048   7.214  1.2119 -0.1995  1.3432
   33MOL   H60036504   6.286   5.820   7.320  0.0067  1.4351 -2.2340
   33MOL   H60136505   6.220   5.893   7.466  0.3563  0.0285  0.1315
   33MOL   H60236506   6.472   5.995   7.330  1.0875 -0.0554  0.9610
   33MOL   H60336507   6.404   6.054   7.481  0.0157  0.5537 -1.4739
   33MOL   H60436508   6.431   5.958   7.667  0.5256  1.2437 -1.2832
   33MOL   H60536509   6.584   5.709   0.001  0.6543  0.9301 -0.7710
   33MOL   H60636510   6.459   5.769   0.114  1.0332 -2.6096 -0.7118
   33MOL   H60736511   6.606   5.960   0.171  0.0958  0.5366 -0.9709
   33MOL   H60836512   6.706   5.927   0.037 -0.0969  0.1381  1.0252
   33MOL   H60936513   6.765   5.693   0.156 -2.6361  1.0810 -1.8114
   33MOL   H61036514   6.667   5.753   0.283  1.4789  0.7831  1.5317
   33MOL   H61136515   6.946   5.871   0.208  0.3406  0.3139  1.2346
   33MOL   H61236516   6.838   5.960   0.310 -1.0644  0.3323  0.4378
   33MOL   H61336517   6.923   5.677   0.372  0.3334  0.7532 -2.6920
   33MOL   H61436518   6.863   5.806   0.484  0.7043  1.8386  0.7593
   33MOL   H61536519   7.106   5.775   0.515  0.2279 -0.1077  0.4099
   33MOL   H61636520   7.135   5.825   0.348 -0.1424  2.1911  0.7469
   33MOL   H61736521   6.987   6.019   0.486  0.7608 -1.0250  2.2656
   33MOL   C61836522   7.180   6.042   0.490  0.5628  0.2406  0.5631
   33MOL   O61936523   7.292   5.998   0.474 -0.4096  0.5174  0.6245
   33MOL   C62036524   7.157   6.170   0.565  0.0839 -0.1722  0.1147
   33MOL   C62136525   7.269   6.214   0.654 -0.0724  0.2539  0.0934
   33MOL   C62236526   7.254   6.169   0.803  0.4599 -0.1985  0.5107
   33MOL   C62336527   7.227   6.017   0.826 -0.2612 -0.3177  0.2468
   33MOL   C62436528   7.238   5.970   0.969  0.0500  0.9201 -0.1246
   33MOL   C62536529   7.374   5.979   1.029  0.8869  0.3271 -0.6675
   33MOL   C62636530   7.383   5.943   1.176  0.2221 -0.2965  0.5710
   33MOL   C62736531   7.517   5.979   1.247 -0.1467  0.3035  0.0027
   33MOL   C62836532   7.635   5.885   1.213  0.1474  0.6198 -0.6524
   33MOL   C62936533   0.032   5.932   1.092  0.5599  0.6692  0.9756
   33MOL   C63036534   0.152   5.837   1.060  0.3149  0.1215 -0.1193
   33MOL   O63136535   0.243   5.827   1.143  0.2946  0.6019  0.1079
   33MOL   N63236536   0.151   5.784   0.935  0.2662  0.0834 -0.3706
   33MOL   C63336537   0.261   5.686   0.888  0.0351 -0.4232  0.0801
   33MOL   C63436538   0.199   5.573   0.806 -0.3646  0.5793  0.9512
   33MOL   C63536539   0.321   5.496   0.751  0.2544  0.2038 -0.3501
   33MOL   C63636540   0.289   5.354   0.697 -0.2484  0.3988 -0.2165
   33MOL   C63736541   0.228   5.262   0.809  0.2952 -0.0932  0.0918
   33MOL   C63836542   0.258   5.112   0.769 -0.0867  0.0495 -0.1405
   33MOL   N63936543   0.401   5.081   0.774  0.0784 -0.0127 -0.2667
   33MOL   H64036544   7.071   6.159   0.631 -1.2321  0.3376 -1.4831
   33MOL   H64136545   7.128   6.240   0.487 -3.5170 -1.1925  0.4423
   33MOL   H64236546   7.283   6.320   0.633  1.0885  0.1054  0.1369
   33MOL   H64336547   7.366   6.172   0.627  0.5816  2.2182 -0.6494
   33MOL   H64436548   7.185   6.240   0.849  0.4217  1.6186 -2.2008
   33MOL   H64536549   7.351   6.191   0.847  2.2627 -1.9569 -2.4181
   33MOL   H64636550   7.130   5.985   0.789  0.3366 -0.0169 -1.6347
   33MOL   H64736551   7.289   5.964   0.754 -1.5205 -0.4161 -0.7830
   33MOL   H64836552   7.179   6.042   1.025  1.4643  2.0027 -0.0026
   33MOL   H64936553   7.188   5.873   0.977  0.0591  0.8654 -0.7239
   33MOL   H65036554   7.397   6.086   1.034  2.1454 -0.0131  2.1853
   33MOL   H65136555   7.448   5.924   0.972  2.3647 -0.7820  2.2058
   33MOL   H65236556   7.309   5.997   1.234  0.1496  2.0445 -1.6043
   33MOL   H65336557   7.351   5.840   1.187 -1.0284 -0.0102 -0.2656
   33MOL   H65436558   7.536   6.085   1.231  1.9823  0.1982  1.5636
   33MOL   H65536559   7.495   5.979   1.354  0.5671 -3.4319  0.2098
   33MOL   H65636560   7.588   5.788   1.199 -0.6564  1.0513 -0.9634
   33MOL   H65736561   0.014   5.875   1.296 -3.4912  3.0954  2.9231
   33MOL   H65836562   7.654   5.937   1.008 -1.1174  0.0303  2.3029
   33MOL   H65936563   0.074   6.032   1.102 -0.7048  1.2073  0.9564
   33MOL   H66036564   0.071   5.796   0.875  0.8743 -0.4299 -1.2958
   33MOL   H66136565   0.328   5.738   0.819 -1.2897 -0.5253 -1.3190
   33MOL   H66236566   0.320   5.643   0.968  0.6413 -1.3339 -0.8462
   33MOL   H66336567   0.138   5.611   0.723  1.7766 -2.7624 -2.3386
   33MOL   H66436568   0.134   5.518   0.873 -2.2127  2.4724  0.7929
   33MOL   H66536569   0.368   5.553   0.671  0.2105  1.0051  0.1840
   33MOL   H66636570   0.399   5.490   0.827  0.3745  1.4418 -0.3557
   33MOL   H66736571   0.382   5.316   0.654 -0.7253 -0.5675 -0.4174
   33MOL   H66836572   0.217   5.357   0.615  0.9621 -1.4055 -1.3898
   33MOL   H66936573   0.276   5.271   0.907 -1.9692 -0.8356  1.3100
   33MOL   H67036574   0.126   5.284   0.838  0.9279 -0.9818  3.2495
   33MOL   H67136575   0.204   5.048   0.839 -0.9305  0.9412  0.0478
   33MOL   H67236576   0.219   5.100   0.668 -0.5176  0.3711 -0.0167
   33MOL   H67336577   0.452   5.092   0.687  0.6383 -0.4561  0.0019
   33MOL   C67436578   0.475   5.028   0.873  0.5435 -1.0435 -0.0418
   33MOL   O67536579   0.429   4.991   0.982  0.2580 -0.1131 -0.0139
   33MOL   C67636580   0.628   5.015   0.844 -0.3488 -0.1293 -0.5026
   33MOL   C67736581   0.702   5.134   0.905  0.4709  0.2663 -0.0680
   33MOL   C67836582   0.683   5.274   0.834 -0.0016  0.3214  0.0239
   33MOL   C67936583   0.759   5.383   0.917 -0.6282 -0.7465 -0.4215
   33MOL   C68036584   0.719   5.524   0.884 -1.0309  0.3490  0.1799
   33MOL   C68136585   0.757   5.567   0.739  0.1708 -0.1415  0.1608
   33MOL   C68236586   0.757   5.714   0.724  0.0893 -0.3749 -0.0070
   33MOL   C68336587   0.893   5.775   0.699  0.6681 -0.2896  0.1217
   33MOL   C68436588   0.993   5.750   0.822 -0.3644 -0.7041 -0.6009
   33MOL   C68536589   1.118   5.848   0.825 -0.3949 -0.7668 -0.4419
   33MOL   C68636590   1.218   5.817   0.708  0.2877 -0.0191  0.0444
   33MOL   O68736591   1.204   5.874   0.597  0.2579  0.0604  0.0217
   33MOL   N68836592   1.318   5.730   0.722 -0.4054  0.1671 -0.2095
   33MOL   C68936593   1.398   5.666   0.619  0.6469 -0.7517 -0.2213
   33MOL   C69036594   1.517   5.742   0.564  0.2026  0.2928 -1.0195
   33MOL   C69136595   1.609   5.797   0.670  0.4793 -0.1260  0.3360
   33MOL   C69236596   1.748   5.835   0.613  0.1238  0.4442  0.0777
   33MOL   C69336597   1.847   5.872   0.730  0.3538 -0.2712  0.1066
   33MOL   C69436598   1.989   5.898   0.685  0.0950  0.1024  0.1729
   33MOL   N69536599   2.082   5.884   0.795  0.4106  0.4769  0.1238
   33MOL   H69636600   0.645   5.009   0.737 -1.9173 -0.1173 -0.7721
   33MOL   H69736601   0.663   4.921   0.886  0.9388  0.7957  0.5302
   33MOL   H69836602   0.808   5.109   0.911  0.6163  0.7428 -0.6008
   33MOL   H69936603   0.667   5.136   1.008 -0.5441  0.3406 -0.4143
   33MOL   H70036604   0.736   5.261   0.739  1.1183 -1.5604  0.8750
   33MOL   H70136605   0.580   5.297   0.808  0.7560  0.8412 -2.7669
   33MOL   H70236606   0.865   5.367   0.899 -0.7473 -0.0237 -1.8088
   33MOL   H70336607   0.747   5.371   1.025  1.1517 -1.1983 -0.2648
   33MOL   H70436608   0.782   5.583   0.950 -0.2896  0.2851 -0.4638
   33MOL   H70536609   0.614   5.539   0.906 -1.2391 -1.1876  0.3207
   33MOL   H70636610   0.847   5.520   0.698  0.8139  1.9562 -0.9370
   33MOL   H70736611   0.680   5.525   0.674  0.7253 -0.1814 -0.4749
   33MOL   H70836612   0.688   5.743   0.645  0.1068 -0.6669 -0.1293
   33MOL   H70936613   0.712   5.763   0.811  1.4443  1.6148 -0.3854
   33MOL   H71036614   0.927   5.756   0.598 -0.8588  0.2428 -0.5171
   33MOL   H71136615   0.867   5.881   0.704 -0.2499 -0.4484 -0.9888
   33MOL   H71236616   1.022   5.645   0.813  0.3875 -0.6618  1.1429
   33MOL   H71336617   0.943   5.770   0.917 -0.6425 -0.6211 -0.7636
   33MOL   H71436618   1.085   5.952   0.823 -1.4259 -1.1029 -2.9881
   33MOL   H71536619   1.175   5.836   0.917 -0.7326  0.2531 -0.0826
   33MOL   H71636620   1.335   5.692   0.814 -0.9641 -1.6850 -0.8537
   33MOL   H71736621   1.439   5.587   0.682  0.0576 -1.6204 -0.9075
   33MOL   H71836622   1.335   5.637   0.535 -0.2403 -1.0180  0.5209
   33MOL   H71936623   1.482   5.820   0.497  0.2053  0.0756 -1.2784
   33MOL   H72036624   1.583   5.677   0.506  1.9358  1.0342  0.0795
   33MOL   H72136625   1.564   5.885   0.716 -0.3057 -0.9458  1.1597
   33MOL   H72236626   1.615   5.720   0.747  2.8566 -0.8382 -0.5306
   33MOL   H72336627   1.737   5.921   0.547 -1.6657 -0.5055 -0.8901
   33MOL   H72436628   1.788   5.755   0.552 -1.3975  0.3924 -0.8715
   33MOL   H72536629   1.841   5.788   0.799  0.4143  0.7978  1.4265
   33MOL   H72636630   1.810   5.959   0.784 -2.2019 -1.6759  0.6732
   33MOL   H72736631   2.009   5.823   0.608  0.8242  1.2246 -0.7521
   33MOL   H72836632   2.009   5.991   0.632  3.1642 -1.3839 -1.3934
   33MOL   H72936633   2.054   5.924   0.883 -1.0545  1.5069 -0.7971
   33MOL   C73036634   2.201   5.822   0.785 -0.5993  0.3036  0.1705
   33MOL   O73136635   2.248   5.789   0.675  0.2512  0.2325  0.4744
   33MOL   C73236636   2.269   5.810   0.922 -0.3703  0.0958  0.0555
   33MOL   C73336637   2.386   5.711   0.912  0.2251 -0.2256  0.1242
   33MOL   C73436638   2.425   5.638   1.045 -0.3414 -0.3342 -0.6229
   33MOL   C73536639   2.560   5.565   1.033 -0.4341 -0.0975 -0.1283
   33MOL   C73636640   2.616   5.495   1.154 -0.1795 -0.3552 -0.8010
   33MOL   C73736641   2.628   5.588   1.279 -0.1658 -0.0728  0.6462
   33MOL   C73836642   2.710   5.515   1.374 -0.3183 -0.5254 -0.7607
   33MOL   C73936643   2.701   5.568   1.517 -0.0209 -0.4603 -0.4481
   33MOL   C74036644   2.815   5.522   1.609  0.1940 -0.2564  0.3263
   33MOL   C74136645   2.796   5.381   1.679  0.2011  0.1197  0.0068
   33MOL   C74236646   2.922   5.336   1.751  0.4070 -0.4296  0.4366
   33MOL   O74336647   2.989   5.414   1.816  0.0173 -0.3616 -0.1161
   33MOL   N74436648   2.973   5.211   1.738 -0.2452  0.0987  0.0746
   33MOL   C74536649   3.099   5.156   1.796  0.7002 -0.0575  0.2236
   33MOL   C74636650   3.149   5.031   1.716 -0.3825 -0.3500 -0.1115
   33MOL   C74736651   3.265   4.973   1.793  0.0274  0.5742 -0.6760
   33MOL   C74836652   3.341   4.874   1.705  0.1253 -0.2347 -0.1331
   33MOL   C74936653   3.424   4.957   1.595  0.2360  0.4569  0.6066
   33MOL   C75036654   3.508   4.862   1.504 -0.3096  0.1982  0.1416
   33MOL   N75136655   3.580   4.927   1.400  0.6208  0.0616  0.0186
   33MOL   H75236656   2.194   5.767   0.988  0.5980 -0.8113  0.5877
   33MOL   H75336657   2.299   5.900   0.976  2.1365 -1.7261  1.8302
   33MOL   H75436658   2.469   5.773   0.878 -0.5729 -0.1081 -1.6442
   33MOL   H75536659   2.368   5.639   0.832  0.7628 -0.4549  0.2064
   33MOL   H75636660   2.340   5.574   1.072 -0.0367 -0.0429  1.1283
   33MOL   H75736661   2.435   5.709   1.127  1.6154 -1.3281  0.0269
   33MOL   H75836662   2.637   5.637   1.002 -1.4468  1.1958  0.3148
   33MOL   H75936663   2.556   5.488   0.956  0.5963 -0.4098  0.1185
   33MOL   H76036664   2.713   5.460   1.120 -0.2876 -0.3479 -1.1211
   33MOL   H76136665   2.561   5.403   1.174  2.3925 -1.7014  0.3102
   33MOL   H76236666   2.677   5.679   1.247 -2.5890  1.3450  0.8312
   33MOL   H76336667   2.529   5.617   1.316 -0.6886  0.2301 -0.9217
   33MOL   H76436668   2.664   5.418   1.393 -1.4906  0.1977  0.1722
   33MOL   H76536669   2.809   5.500   1.332 -0.2253  0.0697 -0.7458
   33MOL   H76636670   2.695   5.677   1.511 -1.0999 -0.5720 -1.7846
   33MOL   H76736671   2.604   5.551   1.565  0.0903  1.7674  0.6388
   33MOL   H76836672   2.806   5.594   1.691  1.5972 -0.0372  0.2981
   33MOL   H76936673   2.908   5.523   1.552  0.5774 -1.0509  0.9311
   33MOL   H77036674   2.717   5.373   1.754 -0.3643 -0.8601 -0.6829
   33MOL   H77136675   2.774   5.303   1.606  1.0183  0.4154 -0.5583
   33MOL   H77236676   2.928   5.139   1.683 -1.4062  0.5232  0.4384
   33MOL   H77336677   3.074   5.126   1.898 -0.2698  1.6285  0.4968
   33MOL   H77436678   3.172   5.237   1.798  0.9148 -0.2083 -1.4156
   33MOL   H77536679   3.171   5.064   1.615 -0.7299 -0.2701 -0.1634
   33MOL   H77636680   3.068   4.958   1.715 -1.2697  0.6092 -0.4083
   33MOL   H77736681   3.227   4.932   1.887  1.6732 -0.4187 -0.4285
   33MOL   H77836682   3.345   5.042   1.821 -0.1268  0.4533  0.0729
   33MOL   H77936683   3.406   4.817   1.771  0.3820  0.8460  0.5609
   33MOL   H78036684   3.273   4.800   1.661 -0.1161 -0.7036  1.0034
   33MOL   H78136685   3.490   5.018   1.657  2.1302 -0.7567 -0.1383
   33MOL   H78236686   3.358   5.022   1.538  2.8030  2.0489 -0.6285
   33MOL   H78336687   3.588   4.817   1.563  0.9435 -0.6950 -2.1584
   33MOL   H78436688   3.443   4.784   1.463  1.6215 -1.3800 -0.0110
   33MOL   H78536689   3.677   4.938   1.426  1.5088 -2.1124 -2.2253
   33MOL   C78636690   3.548   4.934   1.271 -0.4052 -0.5132  0.6036
   33MOL   O78736691   3.448   4.876   1.229  0.0156 -0.4746 -0.1980
   33MOL   C78836692   3.623   5.032   1.189 -0.0616  0.0445 -0.0805
   33MOL   C78936693   3.539   5.153   1.138 -0.0863  0.2619 -0.9187
   33MOL   C79036694   3.626   5.236   1.051 -0.3046  0.0287  0.4903
   33MOL   C79136695   3.558   5.356   0.982 -0.0886  0.2391  0.1220
   33MOL   C79236696   3.648   5.437   0.902  0.4485 -0.1305 -0.7193
   33MOL   C79336697   3.574   5.563   0.845 -0.4111 -0.2707  0.9932
   33MOL   C79436698   3.656   5.693   0.832 -0.1813 -0.2938 -0.0856
   33MOL   C79536699   3.575   5.809   0.770 -0.5325 -0.0117  0.4096
   33MOL   C79636700   3.639   5.948   0.788 -0.2638 -0.4836  0.5844
   33MOL   C79736701   3.590   6.076   0.715 -0.2310  0.1899 -0.9898
   33MOL   C79836702   3.701   6.183   0.708  0.4024  0.3780 -0.4670
   33MOL   O79936703   3.738   6.229   0.816 -0.6469  0.8984  0.4429
   33MOL   N80036704   3.734   6.223   0.584 -0.2640 -0.2378  0.5880
   33MOL   C80136705   3.852   6.314   0.556  0.1711 -0.0666 -0.2905
   33MOL   C80236706   3.971   6.235   0.499 -0.6796 -0.4825 -0.6305
   33MOL   C80336707   4.077   6.327   0.445  0.0717 -0.2197 -0.5274
   33MOL   C80436708   4.203   6.251   0.393  0.4263  1.1063  0.3990
   33MOL   C80536709   4.321   6.335   0.332 -0.1458 -0.1768  0.2232
   33MOL   C80636710   4.435   6.252   0.289  0.3160 -0.2591 -0.4186
   33MOL   N80736711   4.492   6.164   0.387 -0.0726 -0.0134  0.0207
   33MOL   H80836712   3.665   4.981   1.103  1.7353  1.7109 -0.2374
   33MOL   H80936713   3.713   5.076   1.232  0.2108 -0.5068 -0.0905
   33MOL   H81036714   3.445   5.131   1.088  0.1615 -1.9185 -0.4715
   33MOL   H81136715   3.515   5.205   1.230  2.1597  0.9156 -0.6733
   33MOL   H81236716   3.656   5.172   0.968 -1.2765  1.5071 -1.0135
   33MOL   H81336717   3.720   5.261   1.101  0.6132  2.2117 -2.1768
   33MOL   H81436718   3.475   5.311   0.928  0.0573 -0.1144  0.1899
   33MOL   H81536719   3.500   5.416   1.052  1.1772  2.0402 -0.3570
   33MOL   H81636720   3.733   5.474   0.960  1.3633 -2.6782 -0.3369
   33MOL   H81736721   3.693   5.383   0.818  1.5325 -1.1024  0.4635
   33MOL   H81836722   3.533   5.529   0.750  1.6820  3.3840 -1.3461
   33MOL   H81936723   3.485   5.579   0.907 -2.8745 -0.7089 -2.2494
   33MOL   H82036724   3.701   5.726   0.925 -0.4912  0.4975 -0.2178
   33MOL   H82136725   3.730   5.672   0.755 -0.2819 -0.1078 -0.2342
   33MOL   H82236726   3.579   5.795   0.662  0.2834  1.9085  0.1654
   33MOL   H82336727   3.475   5.822   0.811 -0.7650 -1.0122  0.1610
   33MOL   H82436728   3.743   5.936   0.760 -0.4851 -0.1398 -0.3878
   33MOL   H82536729   3.635   5.972   0.895  0.2394 -3.1420  1.2476
   33MOL   H82636730   3.540   6.052   0.621 -0.9961  0.3166 -0.6104
   33MOL   H82736731   3.510   6.122   0.771 -0.4566 -1.0982 -0.2414
   33MOL   H82836732   3.692   6.175   0.506  0.7323  0.2018 -0.2343
   33MOL   H82936733   3.880   6.384   0.635 -1.0750  0.4998 -0.3429
   33MOL   H83036734   3.818   6.376   0.473 -0.3952 -0.2925 -0.2307
   33MOL   H83136735   3.945   6.167   0.418 -1.1046 -0.5286 -0.4565
   33MOL   H83236736   4.013   6.163   0.570  0.0635  0.2241 -0.3448
   33MOL   H83336737   4.028   6.387   0.368  0.1155  1.4355  0.7174
   33MOL   H83436738   4.104   6.399   0.522 -2.6835 -0.0169  0.3044
   33MOL   H83536739   4.170   6.189   0.308  1.6108  1.2476 -0.1747
   33MOL   H83636740   4.237   6.184   0.472  2.2019  0.0591 -1.1866
   33MOL   H83736741   4.351   6.402   0.412  0.3956 -1.7714  1.3647
   33MOL   H83836742   4.280   6.407   0.261 -1.2772 -1.9223 -0.9112
   33MOL   H83936743   4.515   6.307   0.238 -0.4359 -0.0046 -1.3484
   33MOL   H84036744   4.405   6.200   0.198 -1.7400  0.4427 -0.1478
   33MOL   H84136745   4.465   6.067   0.382  1.3686 -0.5109  1.3174
   33MOL   C84236746   4.562   6.212   0.490 -0.2802 -0.3545 -0.0605
   33MOL   O84336747   4.613   6.322   0.482 -0.2725 -0.1693  0.4403
   33MOL   C84436748   4.565   6.132   0.611  0.1127 -0.6199  0.4086
   33MOL   C84536749   4.706   6.114   0.660  0.1044 -0.6543 -0.5856
   33MOL   C84636750   4.703   5.995   0.754 -0.5180 -0.7456 -0.0693
   33MOL   C84736751   4.839   5.979   0.835  0.2253 -0.0972  0.0153
   33MOL   C84836752   4.834   5.883   0.959  0.6802  0.0624  0.3408
   33MOL   C84936753   4.863   5.736   0.926 -0.7479 -0.0196 -0.0791
   33MOL   C85036754   4.792   5.633   1.015  0.3745  0.0294 -0.9946
   33MOL   C85136755   4.827   5.628   1.167  0.4646 -0.5278 -0.5825
   33MOL   C85236756   4.973   5.576   1.195  0.4756  0.7136  0.1973
   33MOL   C85336757   5.018   5.531   1.332 -0.7727  0.0065  0.4323
   33MOL   C85436758   4.952   5.398   1.379 -0.2563 -0.1657 -0.0541
   33MOL   O85536759   4.977   5.299   1.317 -0.1714 -0.1137  0.1188
   33MOL   N85636760   4.878   5.409   1.493  0.0116 -0.4941  0.3015
   33MOL   C85736761   4.818   5.300   1.565 -0.1473  0.2872 -0.0245
   33MOL   C85836762   4.735   5.367   1.672 -0.1872  0.1924 -0.0080
   33MOL   C85936763   4.637   5.480   1.634 -0.4945  0.0264 -0.4590
   33MOL   C86036764   4.511   5.424   1.568 -0.5583 -0.2240 -0.3445
   33MOL   C86136765   4.411   5.536   1.523  0.2242 -0.6117 -0.5342
   33MOL   C86236766   4.302   5.473   1.434  0.3573  0.0852  0.1892
   33MOL   N86336767   4.348   5.417   1.303  0.4601  0.7703  1.1250
   33MOL   H86436768   4.511   6.038   0.596 -1.6309  0.2117  1.3111
   33MOL   H86536769   4.506   6.192   0.681  1.3105  2.4005 -1.0780
   33MOL   H86636770   4.742   6.208   0.704 -0.7686 -0.8046  0.4656
   33MOL   H86736771   4.767   6.083   0.575 -0.7147 -2.5953 -0.4789
   33MOL   H86836772   4.629   6.023   0.829 -1.4995  2.5491 -2.1587
   33MOL   H86936773   4.680   5.911   0.689 -1.0862 -0.3692 -0.3564
   33MOL   H87036774   4.874   6.073   0.878  1.4930 -0.3702 -0.4127
   33MOL   H87136775   4.918   5.946   0.768 -0.7926 -0.5504 -0.9915
   33MOL   H87236776   4.913   5.915   1.026 -0.3765  1.0667  1.1208
   33MOL   H87336777   4.746   5.890   1.023  0.8798 -0.3527  0.6620
   33MOL   H87436778   4.818   5.707   0.832  0.0817 -1.0839 -0.1643
   33MOL   H87536779   4.969   5.712   0.934 -0.6301  0.2685 -0.7640
   33MOL   H87636780   4.688   5.662   1.003  0.3494  0.0541 -0.7217
   33MOL   H87736781   4.797   5.530   0.979  1.1719 -1.0167  1.9080
   33MOL   H87836782   4.750   5.572   1.219 -0.4175  0.4131 -0.8702
   33MOL   H87936783   4.813   5.724   1.216  1.3544 -0.8328  0.2901
   33MOL   H88036784   5.035   5.664   1.179  0.7385  0.1925 -1.8945
   33MOL   H88136785   4.995   5.503   1.117 -0.3173  1.0993 -0.3931
   33MOL   H88236786   5.126   5.518   1.325 -0.8057  0.6193 -1.2755
   33MOL   H88336787   4.996   5.618   1.394  2.2888  1.9589 -1.1116
   33MOL   H88436788   4.860   5.500   1.533 -1.9922 -0.4615 -0.5961
   33MOL   H88536789   4.900   5.244   1.611  2.1469  3.2540 -0.3036
   33MOL   H88636790   4.755   5.239   1.501 -0.6876  2.2761 -1.4285
   33MOL   H88736791   4.789   5.415   1.754 -0.7212  1.7751 -0.5499
   33MOL   H88836792   4.682   5.286   1.722  1.5218 -0.2499  1.1415
   33MOL   H88936793   4.684   5.563   1.582  0.0358  0.5363  0.8069
   33MOL   H89036794   4.602   5.527   1.726  1.7065 -0.2791  0.5761
   33MOL   H89136795   4.462   5.346   1.626  0.0898 -1.2612 -1.1995
   33MOL   H89236796   4.549   5.382   1.475  1.3843  0.7119 -0.0118
   33MOL   H89336797   4.366   5.574   1.615  2.7987  0.5491  0.2957
   33MOL   H89436798   4.463   5.625   1.488  0.7573 -0.6978  0.0184
   33MOL   H89536799   4.238   5.410   1.496 -0.1329  0.9977  0.6100
   33MOL   H89636800   4.229   5.547   1.403  0.4574  0.4981  0.9214
   33MOL   H89736801   4.387   5.479   1.234  0.8728 -0.4144  0.2624
   33MOL   C89836802   4.372   5.288   1.274 -0.3583  0.4537  0.4923
   33MOL   O89936803   4.350   5.201   1.354 -0.2061 -0.5080  0.7360
   33MOL   C90036804   4.445   5.247   1.146  0.0697  0.5405 -0.2085
   33MOL   C90136805   4.596   5.205   1.169  0.8543 -0.6603  0.2076
   33MOL   C90236806   4.624   5.065   1.234  0.1278  0.1790  0.1988
   33MOL   C90336807   4.767   5.009   1.205 -0.1127 -0.0995  0.5324
   33MOL   C90436808   4.801   4.880   1.273  0.1046 -0.7186  0.0472
   33MOL   C90536809   4.938   4.826   1.228  0.9125  0.9923 -0.0333
   33MOL   C90636810   4.957   4.673   1.256  0.0321  0.0412  0.4262
   33MOL   C90736811   5.073   4.620   1.179 -1.2078  0.3393  0.6675
   33MOL   C90836812   5.096   4.470   1.183 -0.2098  0.2175  0.1219
   33MOL   C90936813   5.195   4.422   1.079  0.1701 -0.3640  0.1994
   33MOL   C91036814   5.343   4.459   1.104  0.1108  0.5638  0.2726
   33MOL   O91136815   5.365   4.508   1.212  0.2128 -0.2564 -0.6572
   33MOL   N91236816   5.435   4.442   1.006  0.2526 -0.1070 -0.0152
   33MOL   C91336817   5.568   4.499   1.022  0.6394  0.1203 -0.1254
   33MOL   C91436818   5.670   4.395   1.061  0.4464  0.8441  0.7923
   33MOL   C91536819   5.813   4.447   1.048 -0.5640  0.7733  0.7179
   33MOL   C91636820   5.858   4.437   0.899 -0.5848 -0.7604  0.3797
   33MOL   C91736821   5.970   4.534   0.865  0.2463  0.1536 -0.1582
   33MOL   C91836822   5.983   4.546   0.715  0.5248 -0.3807 -0.1752
   33MOL   N91936823   6.088   4.638   0.681  0.1141  0.1046  0.2117
   33MOL   H92036824   4.383   5.164   1.111 -0.7847  1.4434 -0.8792
   33MOL   H92136825   4.436   5.331   1.077 -0.7914  0.9612  0.4152
   33MOL   H92236826   4.644   5.272   1.240  2.1548 -1.4167  0.0673
   33MOL   H92336827   4.647   5.214   1.073  0.3071 -1.4320 -0.1670
   33MOL   H92436828   4.559   4.991   1.186  1.1671 -0.1253 -0.7862
   33MOL   H92536829   4.602   5.070   1.340  3.1388 -3.5292  1.1330
   33MOL   H92636830   4.760   4.984   1.099  0.4234  2.1545 -0.0476
   33MOL   H92736831   4.837   5.089   1.228  0.6657 -1.2239  2.2097
   33MOL   H92836832   4.722   4.811   1.242  1.1224 -1.4411 -0.9900
   33MOL   H92936833   4.787   4.898   1.380  2.0664 -0.0518  0.2077
   33MOL   H93036834   4.958   4.854   1.125  2.5552  0.4092  0.1220
   33MOL   H93136835   5.022   4.877   1.274  0.9505  0.3628  0.6140
   33MOL   H93236836   4.861   4.631   1.227 -0.4928  0.5848  1.3719
   33MOL   H93336837   4.978   4.653   1.361 -1.5655 -1.4751  0.4788
   33MOL   H93436838   5.161   4.664   1.226 -0.0601  0.3827 -1.4536
   33MOL   H93536839   5.070   4.651   1.075 -1.9490 -1.7836  0.0279
   33MOL   H93636840   5.118   4.431   1.282  0.3628 -0.8869 -0.4306
   33MOL   H93736841   5.000   4.426   1.157 -0.6405  0.1032  1.8572
   33MOL   H93836842   5.186   4.317   1.052 -1.9209  0.2683 -1.7904
   33MOL   H93936843   5.165   4.475   0.988  2.3396 -1.9704 -1.4900
   33MOL   H94036844   5.408   4.408   0.916 -1.3812  1.3220 -0.0871
   33MOL   H94136845   5.579   4.591   1.079  2.5575 -2.4955  3.9763
   33MOL   H94236846   5.583   4.527   0.917 -0.2486  1.7831  0.1776
   33MOL   H94336847   5.643   4.374   1.165  1.3172 -1.3543  0.6035
   33MOL   H94436848   5.656   4.302   1.005  1.5519  1.2456 -0.1637
   33MOL   H94536849   5.833   4.547   1.087  0.3988  1.0536 -0.4872
   33MOL   H94636850   5.892   4.384   1.089 -0.9480  0.1027  0.4364
   33MOL   H94736851   5.771   4.447   0.835 -2.3798 -1.4561  2.6575
   33MOL   H94836852   5.902   4.338   0.893 -0.0419 -0.4788 -0.3694
   33MOL   H94936853   5.944   4.635   0.894  2.4568 -0.2459  3.5854
   33MOL   H95036854   6.062   4.504   0.915  1.1670  1.2016 -1.2017
   33MOL   H95136855   5.887   4.581   0.675 -0.4580 -1.7853  0.8982
   33MOL   H95236856   5.999   4.446   0.675 -1.5703  0.0363 -2.2275
   33MOL   H95336857   6.086   4.728   0.725 -2.8937 -0.6104  1.6814
   33MOL   C95436858   6.186   4.615   0.597 -0.2466  0.3313 -0.1307
   33MOL   O95536859   6.206   4.506   0.552  0.0479 -0.1112  0.4047
   33MOL   C95636860   6.284   4.727   0.578  0.3595 -0.5675  0.4528
   33MOL   C95736861   6.271   4.778   0.433 -0.1672 -0.2028  0.3643
   33MOL   C95836862   6.353   4.904   0.406 -0.3857  0.4562  0.5296
   33MOL   C95936863   6.376   4.947   0.259 -0.4058  0.7383  0.0569
   33MOL   C96036864   6.258   4.956   0.164 -1.1083  0.0367 -0.0869
   33MOL   C96136865   6.317   4.990   0.025  0.0421 -0.3774  0.0201
   33MOL   C96236866   6.205   5.048   7.624 -0.0194 -0.0271  0.3839
   33MOL   C96336867   6.249   5.077   7.477  0.0993  0.6540  0.8500
   33MOL   C96436868   6.174   5.204   7.424 -0.0771 -0.7817  0.2104
   33MOL   C96536869   6.189   5.232   7.271 -0.4991 -0.4549 -0.0521
   33MOL   C96636870   6.131   5.130   7.175  0.5236 -0.5725  0.4919
   33MOL   O96736871   6.017   5.082   7.188 -0.2089 -0.8126  0.0201
   33MOL   N96836872   6.214   5.087   7.084 -0.3001 -0.6837 -0.3817
   33MOL   C96936873   6.196   4.980   6.986 -0.0854 -0.2529 -0.2323
   33MOL   C97036874   6.253   4.850   7.040  0.4733  0.0966 -1.0156
   33MOL   C97136875   6.213   4.725   6.959  0.2385  0.5553 -0.2918
   33MOL   C97236876   6.279   4.602   7.033  0.2896  0.5953 -0.3116
   33MOL   C97336877   6.272   4.472   6.951 -1.1156 -0.2482 -0.5373
   33MOL   C97436878   6.297   4.486   6.800  0.5204 -0.6653  0.7376
   33MOL   N97536879   6.172   4.489   6.724 -0.0154  0.3262 -0.7032
   33MOL   H97636880   6.280   4.802   0.657 -0.9538 -0.5822  0.4117
   33MOL   H97736881   6.387   4.692   0.589  0.4227  0.3387  3.2910
   33MOL   H97836882   6.172   4.798   0.393 -0.3221  3.3057  2.2950
   33MOL   H97936883   6.306   4.696   0.369  2.2577 -1.0260  2.6516
   33MOL   H98036884   6.299   4.979   0.463 -3.1178  0.2564 -1.6842
   33MOL   H98136885   6.452   4.892   0.451 -0.4161  2.9117  1.3027
   33MOL   H98236886   6.431   5.041   0.262  0.4505  0.2389  0.5204
   33MOL   H98336887   6.447   4.875   0.218 -0.4846  1.8202 -2.0205
   33MOL   H98436888   6.203   4.862   0.169 -1.9698  0.6321  2.5040
   33MOL   H98536889   6.200   5.029   0.221  1.0449  0.3711  1.7508
   33MOL   H98636890   6.397   5.064   0.034 -1.2552  0.9049  1.4068
   33MOL   H98736891   6.364   4.898   7.684  0.4875 -0.8502  1.9308
   33MOL   H98836892   6.109   4.997   7.618 -1.0288  1.8823  0.1112
   33MOL   H98936893   6.174   5.137   7.677  1.2492  0.3079  0.5858
   33MOL   H99036894   6.355   5.102   7.485 -0.4888  3.1245  1.4403
   33MOL   H99136895   6.253   4.990   7.412  3.5947  0.8781  0.6867
   33MOL   H99236896   6.196   5.300   7.472  0.0357  0.2735 -1.8842
   33MOL   H99336897   6.071   5.189   7.456 -1.1189  1.2598 -2.0341
   33MOL   H99436898   6.148   5.330   7.245  1.6028  0.6227  0.5871
   33MOL   H99536899   6.294   5.247   7.248 -0.3702 -0.1666  0.7209
   33MOL   H99636900   6.302   5.135   7.079  0.2208 -1.2119  2.6014
   33MOL   H99736901   6.232   5.017   6.890  2.0386  2.9575  1.7094
   33MOL   H99836902   6.089   4.962   6.980 -0.2619 -0.1021  2.0244
   33MOL   H99936903   6.249   4.833   7.148  1.3704  1.1545 -0.8109
   33MOL     H136904   6.361   4.866   7.040  0.3318  1.3235  1.3318
   33MOL     H236905   6.246   4.731   6.855 -0.5924 -0.0926 -0.6018
   33MOL     H336906   6.104   4.716   6.951  0.3243 -0.6804 -0.0604
   33MOL     H436907   6.382   4.633   7.052  0.3131  1.1846 -1.3752
   33MOL     H536908   6.234   4.584   7.131 -0.5412 -0.1755 -0.8224
   33MOL     H636909   6.186   4.411   6.980 -1.3193  2.0063  4.1327
   33MOL     H736910   6.348   4.403   6.990 -0.5174  2.5460  3.6124
   33MOL     H836911   6.364   4.570   6.779  0.0750 -0.2580  0.9593
   33MOL     H936912   6.341   4.389   6.776 -0.0785 -1.2792  2.0717
   33MOL    H1036913   6.083   4.474   6.769 -0.7675  0.8754 -1.9829
   33MOL    C1136914   6.162   4.553   6.605 -0.6674  0.0143 -0.2441
   33MOL    O1236915   6.259   4.575   6.528 -0.6592  0.2022  0.6665
   33MOL    C1336916   6.022   4.605   6.562  0.0327 -0.6714 -0.0541
   33MOL    C1436917   5.952   4.701   6.663 -0.2953  0.3915  0.4841
   33MOL    C1536918   5.829   4.645   6.735 -0.5276 -0.0705 -0.6144
   33MOL    C1636919   5.765   4.729   6.844  0.6783 -0.1287  0.0569
   33MOL    C1736920   5.635   4.661   6.895 -0.1162 -0.9594  1.1657
   33MOL    C1836921   5.569   4.747   6.999  0.2897  1.1867 -0.8407
   33MOL    C1936922   5.462   4.675   7.081  0.4622 -0.0308  0.0211
   33MOL    C2036923   5.399   4.750   7.197 -0.0660 -0.1021  0.3935
   33MOL    C2136924   5.307   4.662   7.275  0.4106  0.3553 -0.4914
   33MOL    C2236925   5.197   4.735   7.356  0.3032 -0.2166 -0.8567
   33MOL    C2336926   5.100   4.634   7.422 -0.1214 -0.1468 -0.8266
   33MOL    O2436927   5.142   4.536   7.484  0.2152 -0.4776  0.0490
   33MOL    N2536928   4.975   4.654   7.401  0.0240  0.1220  0.3920
   33MOL    C2636929   4.863   4.573   7.448  0.5410  0.4545  0.2589
   33MOL    C2736930   4.850   4.585   7.604  0.2453  0.2703 -0.2568
   33MOL    C2836931   4.754   4.485   7.672  0.1910  0.7926 -0.0292
   33MOL    C2936932   4.734   4.495   0.131 -0.6492 -0.8050 -0.3778
   33MOL    C3036933   4.678   4.369   0.202 -0.1528  0.0264 -0.2238
   33MOL    C3136934   4.650   4.405   0.345  0.0595  0.1191  0.1918
   33MOL    N3236935   4.606   4.285   0.409 -0.1743  0.3889  0.0088
   33MOL    H3336936   5.950   4.529   6.531 -1.4817  1.8227 -2.9853
   33MOL    H3436937   6.050   4.671   6.480  1.3418 -0.7420  0.3185
   33MOL    H3536938   5.915   4.784   6.602 -1.9940 -1.4173 -0.9991
   33MOL    H3636939   6.019   4.745   6.737  1.7184  0.2356 -1.2062
   33MOL    H3736940   5.848   4.549   6.782  0.6615  0.6073  0.3003
   33MOL    H3836941   5.749   4.627   6.662 -1.4451 -1.2821  0.6774
   33MOL    H3936942   5.828   4.715   6.932 -0.2520  0.1129  0.7727
   33MOL    H4036943   5.770   4.835   6.817 -1.6252 -0.3393 -1.3332
   33MOL    H4136944   5.567   4.634   6.815 -0.8095 -0.4435  1.5755
   33MOL    H4236945   5.670   4.571   6.945  0.1283 -0.2491  2.2970
   33MOL    H4336946   5.644   4.781   7.071  1.0321 -0.1008 -1.0030
   33MOL    H4436947   5.529   4.836   6.950 -0.4945  1.3789  0.1237
   33MOL    H4536948   5.383   4.636   7.016 -0.1735 -2.4420  2.1607
   33MOL    H4636949   5.512   4.590   7.127 -1.3289 -1.2728 -0.2681
   33MOL    H4736950   5.469   4.806   7.258  0.6961  1.4160 -1.8109
   33MOL    H4836951   5.340   4.834   7.160  0.8013 -1.0418 -3.3334
   33MOL    H4936952   5.364   4.593   7.338 -0.5526  0.6594  0.7364
   33MOL    H5036953   5.258   4.592   7.208  0.4541 -2.5274  2.3491
   33MOL    H5136954   5.249   4.781   7.439  0.5557 -2.0827  0.0354
   33MOL    H5236955   5.148   4.814   7.299  1.1907  2.6212  2.1474
   33MOL    H5336956   4.952   4.712   7.322  0.7490  1.1155  0.9035
   33MOL    H5436957   4.873   4.472   7.408  1.5379 -0.3079  2.3574
   33MOL    H5536958   4.773   4.610   7.400  0.8534  0.1977 -0.5284
   33MOL    H5636959   4.802   4.681   7.626 -0.2710 -0.2505  0.9761
   33MOL    H5736960   4.946   4.579   7.656 -0.5415  0.4666  1.2720
   33MOL    H5836961   4.791   4.386   7.645  0.4932  1.9015 -4.0055
   33MOL    H5936962   4.660   4.482   7.618 -0.1150  0.7954  0.4963
   33MOL    H6036963   4.668   4.574   0.166 -1.6255 -2.6178  1.9800
   33MOL    H6136964   4.838   4.514   0.156 -0.5078  1.0337 -2.1701
   33MOL    H6236965   4.763   4.303   0.215 -1.0464 -0.7616  1.7962
   33MOL    H6336966   4.597   4.322   0.147 -0.5910 -0.5439  0.8979
   33MOL    H6436967   4.576   4.485   0.355  0.6883  0.7097  0.1228
   33MOL    H6536968   4.745   4.432   0.390  0.2586  1.9139 -1.2394
   33MOL    H6636969   4.594   4.205   0.348 -0.7303  1.1373 -0.8656
   33MOL    C6736970   4.595   4.262   0.537  0.2286 -0.1170  0.4120
   33MOL    O6836971   4.607   4.344   0.628  0.1533  0.8460 -0.1743
   33MOL    C6936972   4.561   4.120   0.575  0.4282  0.8483  0.0293
   33MOL    C7036973   4.648   4.057   0.685 -0.5734 -0.1679 -0.0527
   33MOL    C7136974   4.578   3.949   0.763 -0.3728  0.2894 -0.8346
   33MOL    C7236975   4.505   3.836   0.684 -0.2455  0.0332 -0.2476
   33MOL    C7336976   4.599   3.741   0.595 -0.5456 -0.5907 -0.4152
   33MOL    C7436977   4.509   3.654   0.504 -0.0228  0.2835 -0.2267
   33MOL    C7536978   4.588   3.547   0.429 -0.3239  0.0591 -0.1873
   33MOL    C7636979   4.677   3.610   0.327 -0.2919 -0.6102  0.5484
   33MOL    C7736980   4.765   3.510   0.252  0.3136  0.4675 -0.4869
   33MOL    C7836981   4.856   3.587   0.156 -0.8392 -0.3672 -0.3425
   33MOL    C7936982   4.949   3.499   0.068  0.6799  0.0062  0.1991
   33MOL    O8036983   4.917   3.480   7.640 -0.3541  0.0144  0.0799
   33MOL    N8136984   5.063   3.446   0.117  0.3507  0.2538  0.3195
   33MOL    C8236985   5.174   3.394   0.041 -0.8651  0.3782  0.5294
   33MOL    C8336986   5.313   3.411   0.101 -0.1811  0.6246  0.0426
   33MOL    C8436987   5.435   3.401   0.002  0.1529 -0.0861  0.9920
   33MOL    C8536988   5.559   3.346   0.066  0.7525  0.1225  0.0429
   33MOL    C8636989   5.680   3.372   7.664 -0.8098  0.2739  0.2518
   33MOL    C8736990   5.808   3.302   0.028 -0.1211 -0.6930 -0.2674
   33MOL    N8836991   5.901   3.276   7.611  0.2366  0.2223  0.0707
   33MOL    H8936992   4.569   4.055   0.488 -1.7378  1.5080 -0.6998
   33MOL    H9036993   4.459   4.145   0.605  0.1109 -0.4446  0.0625
   33MOL    H9136994   4.725   4.004   0.628 -1.5822 -2.5925  0.7535
   33MOL    H9236995   4.698   4.139   0.737 -1.1494 -0.0192  0.2719
   33MOL    H9336996   4.654   3.892   0.815 -0.2083  1.6818  0.4813
   33MOL    H9436997   4.509   3.991   0.837 -2.3042 -2.5184 -0.9574
   33MOL    H9536998   4.444   3.775   0.750  1.3377 -1.0663  0.2297
   33MOL    H9636999   4.431   3.881   0.617  0.5976  1.5150 -0.2175
   33MOL    H9737000   4.671   3.798   0.536 -0.0490 -1.7580 -0.9689
   33MOL    H9837001   4.656   3.681   0.666  0.4593  1.1666  0.2685
   33MOL    H9937002   4.420   3.608   0.548  0.7021 -3.4694 -2.3968
   33MOL   H10037003   4.471   3.715   0.422  0.1158 -0.7097 -1.0429
   33MOL   H10137004   4.514   3.488   0.375 -1.8094 -0.4870  2.3775
   33MOL   H10237005   4.632   3.481   0.503 -2.2292  0.6115  1.4812
   33MOL   H10337006   4.630   3.663   0.244 -0.1537  1.1341  1.5753
   33MOL   H10437007   4.732   3.685   0.382 -3.4232  0.9059  1.7592
   33MOL   H10537008   4.710   3.427   0.207  2.2014 -0.4422 -1.1685
   33MOL   H10637009   4.823   3.454   0.326  0.3074  1.2032  0.0825
   33MOL   H10737010   4.789   3.642   0.089 -0.5834  0.5306  0.1326
   33MOL   H10837011   4.899   3.669   0.213 -0.2506  0.2077 -1.5952
   33MOL   H10937012   5.068   3.453   0.218 -1.4885 -0.8782  0.5263
   33MOL   H11037013   5.185   3.452   7.641  0.7902 -0.0398  0.4650
   33MOL   H11137014   5.158   3.293   0.004 -1.3830  1.4011 -2.1457
   33MOL   H11237015   5.333   3.333   0.174  1.2841  1.1166  0.1895
   33MOL   H11337016   5.315   3.503   0.159 -0.6680  0.9644 -0.4697
   33MOL   H11437017   5.452   3.488   7.630 -0.6910 -0.5076  0.1736
   33MOL   H11537018   5.398   3.328   7.622 -0.0130  1.4926 -0.5846
   33MOL   H11637019   5.584   3.390   0.162 -1.7725  0.5911  0.5241
   33MOL   H11737020   5.534   3.243   0.090 -1.1150  0.4967 -0.2343
   33MOL   H11837021   5.661   3.351   7.558  0.1180 -2.9786  0.6745
   33MOL   H11937022   5.717   3.474   7.659  1.2205 -0.4437 -0.1059
   33MOL   H12037023   5.849   3.369   0.104 -1.1179 -2.0978  1.5586
   33MOL   H12137024   5.785   3.202   0.065 -0.0709 -0.2709  0.9150
   33MOL   H12237025   5.941   3.360   7.572  0.8506 -0.5802 -1.0372
   33MOL   H12337026   5.851   3.232   7.535  1.1758  0.0014 -0.4215
   34MOL     C137027   4.539   4.552   6.939 -0.5320  0.5440 -0.8289
   34MOL     O237028   4.579   4.466   6.863 -0.3320  0.1109  0.3467
   34MOL     C337029   4.570   4.697   6.916 -0.5176  0.0362  0.3572
   34MOL     C437030   4.698   4.732   6.823  0.1032 -0.3251 -0.4679
   34MOL     C537031   4.717   4.889   6.817  0.6428  0.2749  0.2205
   34MOL     C637032   4.599   4.968   6.757  0.1310 -0.1406  0.3302
   34MOL     C737033   4.618   5.111   6.788  1.0210  0.4671 -0.0479
   34MOL     C837034   4.547   5.159   6.916  0.5178 -1.0357 -0.6253
   34MOL     C937035   4.599   5.304   6.949 -0.9359 -0.0928 -0.3868
   34MOL    C1037036   4.554   5.348   7.087  0.6926  0.1195  0.3154
   34MOL    C1137037   4.575   5.492   7.131  0.2765  0.0639  0.4560
   34MOL    C1237038   4.550   5.506   7.280 -0.9573 -0.3107 -0.5300
   34MOL    C1337039   4.663   5.450   7.373  0.1120 -0.3800 -0.0509
   34MOL    O1437040   4.719   5.345   7.357  0.3912 -0.6260  0.1282
   34MOL    N1537041   4.693   5.532   7.478  0.4655 -0.5029  0.8324
   34MOL    C1637042   4.776   5.495   7.586 -0.2334 -0.4181  0.6678
   34MOL    C1737043   4.914   5.533   7.560 -0.2070  0.0279  0.4472
   34MOL    C1837044   5.019   5.518   7.669  0.1796  0.8390  0.6229
   34MOL    C1937045   5.161   5.561   7.629 -0.1992 -0.1410  0.3709
   34MOL    C2037046   5.270   5.531   0.045  0.1335  0.0529  0.6961
   34MOL    C2137047   5.414   5.559   0.009 -0.2512 -0.1432 -0.3598
   34MOL    N2237048   5.513   5.530   0.112  0.2241 -0.2234  0.6635
   34MOL    H2337049   4.570   4.739   7.017 -2.7484  2.1504 -0.4687
   34MOL    H2437050   4.476   4.740   6.882 -1.2649 -2.1307 -0.3404
   34MOL    H2537051   4.679   4.697   6.722 -1.4931 -0.3826 -0.1595
   34MOL    H2637052   4.789   4.684   6.859  1.2219  0.7753 -1.8273
   34MOL    H2737053   4.807   4.908   6.757  2.0499  0.8274  2.4577
   34MOL    H2837054   4.739   4.930   6.915 -1.5623  0.3701  0.6863
   34MOL    H2937055   4.590   4.957   6.649  0.7359  0.6894  0.1904
   34MOL    H3037056   4.506   4.933   6.802  2.0149 -2.9351  2.2781
   34MOL    H3137057   4.560   5.162   6.712 -0.8848 -1.6409 -0.0744
   34MOL    H3237058   4.722   5.144   6.784  1.1147 -0.0475 -3.0192
   34MOL    H3337059   4.441   5.150   6.896  0.5637  0.6049 -1.6587
   34MOL    H3437060   4.564   5.090   6.999 -0.5924 -3.4281 -2.3398
   34MOL    H3537061   4.707   5.312   6.948 -0.8515 -0.8577  1.0671
   34MOL    H3637062   4.558   5.379   6.882 -4.8407  0.7744  2.7480
   34MOL    H3737063   4.452   5.323   7.114  0.4676  0.3468 -0.3166
   34MOL    H3837064   4.607   5.276   7.149  2.1303  1.6243  0.8865
   34MOL    H3937065   4.512   5.559   7.073 -0.4007 -2.1630 -1.4530
   34MOL    H4037066   4.678   5.525   7.120  0.1565  0.0341 -0.7890
   34MOL    H4137067   4.536   5.611   7.309 -0.8823 -0.2971 -0.5417
   34MOL    H4237068   4.462   5.454   7.318 -0.1518 -2.2745 -1.3237
   34MOL    H4337069   4.644   5.620   7.477  0.4734 -0.5059 -0.0534
   34MOL    H4437070   4.761   5.388   7.602  0.3250 -0.4833  0.7604
   34MOL    H4537071   4.746   5.549   7.676 -2.5602  0.7202 -0.7288
   34MOL    H4637072   4.909   5.639   7.533 -0.2954  0.0337  0.4893
   34MOL    H4737073   4.947   5.483   7.469 -0.5040  2.1295 -0.8690
   34MOL    H4837074   4.985   5.579   0.061 -1.1497  1.3776 -0.2981
   34MOL    H4937075   5.019   5.414   0.012 -2.0258  0.2817 -0.9455
   34MOL    H5037076   5.175   5.663   7.592  0.3374 -0.0454  0.8392
   34MOL    H5137077   5.180   5.488   7.550 -0.8463  0.9678 -0.8368
   34MOL    H5237078   5.242   5.587   0.134 -1.0461  1.2277 -0.3767
   34MOL    H5337079   5.265   5.423   0.060 -0.3559 -0.3112 -1.8938
   34MOL    H5437080   5.436   5.498   7.613  1.6230 -0.3260  0.2242
   34MOL    H5537081   5.407   5.661   7.663 -1.0501 -0.7488 -1.9101
   34MOL    H5637082   5.552   5.437   0.120 -0.0602 -0.3488  0.6195
   34MOL    H5737083   4.461   4.546   7.015  0.9738 -2.0517  0.6004
   34MOL    C5837084   5.569   5.621   0.194 -0.7352  0.3685 -0.1460
   34MOL    O5937085   5.539   5.739   0.187  0.1299 -0.3383 -0.0316
   34MOL    C6037086   5.685   5.560   0.286  0.9835 -0.4829  0.5263
   34MOL    C6137087   5.724   5.658   0.404 -0.0585 -0.1128 -0.5179
   34MOL    C6237088   5.815   5.597   0.513 -0.3838 -0.1790  0.7162
   34MOL    C6337089   5.737   5.479   0.587 -0.4211  0.0631  0.5303
   34MOL    C6437090   5.632   5.522   0.687  0.3547 -0.3568  0.4445
   34MOL    C6537091   5.532   5.405   0.738 -0.1043 -0.4588  0.3435
   34MOL    C6637092   5.407   5.468   0.803 -0.2697 -0.1224  0.3109
   34MOL    C6737093   5.315   5.361   0.852 -0.2261 -0.6095  0.1466
   34MOL    C6837094   5.165   5.403   0.859  0.0046 -0.1007  0.5381
   34MOL    C6937095   5.078   5.295   0.923  0.5629  0.1385 -0.1719
   34MOL    C7037096   5.017   5.186   0.831  0.5737  0.1336 -0.3942
   34MOL    O7137097   4.933   5.219   0.749  0.1220  0.1175  0.1703
   34MOL    N7237098   5.051   5.057   0.846 -0.1461 -0.0308 -0.0599
   34MOL    C7337099   4.999   4.954   0.759 -0.0231  0.5506  0.4886
   34MOL    C7437100   5.059   4.946   0.619 -0.1991 -0.6180  0.4299
   34MOL    C7537101   5.000   4.834   0.533  1.0268 -0.6146  0.5022
   34MOL    C7637102   5.075   4.815   0.401  0.4637 -0.2311  0.1623
   34MOL    C7737103   5.013   4.916   0.307  0.8708  0.4650 -1.0861
   34MOL    C7837104   4.875   4.875   0.256  0.0164 -0.4332  0.7085
   34MOL    N7937105   4.824   4.975   0.163 -0.3113 -0.0127  0.3506
   34MOL    H8037106   5.774   5.546   0.224  0.3221  0.4194 -0.6400
   34MOL    H8137107   5.657   5.461   0.321  0.3347 -0.1767  0.8855
   34MOL    H8237108   5.749   5.756   0.364 -0.3071  0.5514  0.9282
   34MOL    H8337109   5.636   5.679   0.466 -1.0745  0.9645 -2.2887
   34MOL    H8437110   5.843   5.674   0.585 -0.4271 -0.2909  0.8534
   34MOL    H8537111   5.907   5.568   0.463 -0.6709  0.2277 -0.0732
   34MOL    H8637112   5.814   5.439   0.653 -1.8127 -1.6689  1.1528
   34MOL    H8737113   5.703   5.401   0.519 -0.5600  2.0849 -1.7899
   34MOL    H8837114   5.674   5.564   0.779  0.7252  0.1957  0.0246
   34MOL    H8937115   5.566   5.599   0.648  1.8071 -0.6811 -2.7557
   34MOL    H9037116   5.589   5.343   0.808  2.2868  2.7454  1.3167
   34MOL    H9137117   5.502   5.341   0.655  0.2837  1.5022 -1.3301
   34MOL    H9237118   5.362   5.540   0.733 -0.1593  0.8118  1.1938
   34MOL    H9337119   5.434   5.536   0.884 -0.3224 -1.5728  1.5519
   34MOL    H9437120   5.319   5.275   0.785  3.2451 -0.6716  0.3738
   34MOL    H9537121   5.355   5.321   0.945 -2.5006  0.0422  1.4573
   34MOL    H9637122   5.127   5.425   0.759 -0.6955 -1.3839  0.5011
   34MOL    H9737123   5.144   5.496   0.911 -3.3445  0.7646 -2.1921
   34MOL    H9837124   5.135   5.254   1.006 -0.9398  1.1814  1.4210
   34MOL    H9937125   4.991   5.352   0.957  0.4485  0.8371 -1.5592
   34MOL   H10037126   5.121   5.031   0.915  1.2666  2.1398 -0.6015
   34MOL   H10137127   4.891   4.969   0.768 -0.0456  0.4839  0.3320
   34MOL   H10237128   5.015   4.855   0.804 -3.0651  1.0625  2.9099
   34MOL   H10337129   5.066   5.049   0.583 -1.8961 -0.3313  0.8602
   34MOL   H10437130   5.163   4.921   0.639  0.6651  0.6599 -2.2693
   34MOL   H10537131   4.891   4.834   0.530  0.9785 -1.5716  1.9385
   34MOL   H10637132   5.018   4.745   0.593  2.3776  1.3061  3.0690
   34MOL   H10737133   5.183   4.827   0.412  0.1785 -0.4568  3.5453
   34MOL   H10837134   5.063   4.718   0.352  2.3957 -0.8411  0.8609
   34MOL   H10937135   5.083   4.930   0.225  1.5799  0.8978 -0.4140
   34MOL   H11037136   5.007   5.014   0.355  0.3128 -1.3296  2.7436
   34MOL   H11137137   4.809   4.877   0.343  1.0783 -1.3348  1.5565
   34MOL   H11237138   4.873   4.773   0.218 -0.8879  0.8141 -2.7916
   34MOL   H11337139   4.843   5.073   0.178  1.2090 -0.1331 -0.6221
   34MOL   C11437140   4.726   4.954   0.075  0.5647 -0.4817 -0.5021
   34MOL   O11537141   4.667   4.849   0.074  0.5495 -0.4414  0.2822
   34MOL   C11637142   4.702   5.066   7.667 -0.4166 -0.4190  0.2402
   34MOL   C11737143   4.563   5.133   7.649  1.1198 -0.1770  0.3296
   34MOL   C11837144   4.528   5.237   0.059 -0.3049  0.7280  0.4082
   34MOL   C11937145   4.387   5.295   0.036  0.7447 -0.5556  0.1888
   34MOL   C12037146   4.345   5.359   0.170  0.8514 -0.1476  0.1401
   34MOL   C12137147   4.220   5.450   0.153  0.7348  0.2579 -0.6296
   34MOL   C12237148   4.242   5.575   0.076  0.1938 -0.2817 -0.5587
   34MOL   C12337149   4.122   5.623   7.686  0.2345 -0.4478 -0.3657
   34MOL   C12437150   4.004   5.664   0.085 -0.0540  0.3723  0.3621
   34MOL   C12537151   3.876   5.677   0.007  0.8596  0.4572  0.5777
   34MOL   C12637152   3.820   5.545   7.652  0.1153 -0.3717 -0.0016
   34MOL   O12737153   3.837   5.446   0.033  0.0340 -0.7577  0.3383
   34MOL   N12837154   3.755   5.539   7.534 -0.2387  0.1032 -0.1184
   34MOL   C12937155   3.681   5.417   7.493 -0.4464  0.5506 -0.6860
   34MOL   C13037156   3.563   5.445   7.387 -1.3429  0.5049  0.1087
   34MOL   C13137157   3.476   5.322   7.369 -0.4249  0.4597 -0.7801
   34MOL   C13237158   3.380   5.340   7.256  0.3223 -0.3521  0.1871
   34MOL   C13337159   3.284   5.231   7.235 -0.2927  0.3284 -0.4344
   34MOL   C13437160   3.211   5.253   7.101  0.3204  0.1656  0.1152
   34MOL   N13537161   3.104   5.156   7.101  0.0881  0.3488  0.1012
   34MOL   H13637162   4.776   5.144   7.682 -0.5905 -0.5762  1.9236
   34MOL   H13737163   4.727   5.012   7.575  0.9807  0.5045  0.0739
   34MOL   H13837164   4.483   5.060   7.651 -0.5668  1.6396  0.4107
   34MOL   H13937165   4.569   5.181   7.552  0.5613 -0.4197  0.1781
   34MOL   H14037166   4.533   5.191   0.157 -1.0570 -0.4628 -0.0956
   34MOL   H14137167   4.607   5.312   0.069 -0.3944  0.7007  1.2987
   34MOL   H14237168   4.375   5.360   7.641  0.0969 -3.1346 -1.7161
   34MOL   H14337169   4.312   5.216   0.026 -0.8111  0.7643  1.1814
   34MOL   H14437170   4.330   5.285   0.249  1.1943  0.9092  1.2008
   34MOL   H14537171   4.432   5.416   0.201  1.5587  0.0023 -2.0362
   34MOL   H14637172   4.167   5.464   0.247  2.2867 -2.0446  0.6344
   34MOL   H14737173   4.154   5.390   0.090  3.0807 -2.5812 -0.5260
   34MOL   H14837174   4.278   5.654   0.141  2.0681  0.5636 -2.5745
   34MOL   H14937175   4.328   5.562   0.011  1.1246 -0.7722  0.7439
   34MOL   H15037176   4.100   5.559   7.600  0.4627  1.8443 -2.1876
   34MOL   H15137177   4.159   5.711   7.634  0.1502 -0.1929  0.0093
   34MOL   H15237178   4.015   5.763   0.131 -1.4074  0.5604  0.2944
   34MOL   H15337179   3.977   5.601   0.169  0.3802 -0.5676 -0.2026
   34MOL   H15437180   3.877   5.737   7.607 -2.0597 -1.5493 -0.8575
   34MOL   H15537181   3.797   5.721   0.067  1.4674  0.9302  1.0336
   34MOL   H15637182   3.766   5.606   7.460 -0.7073 -1.4267 -1.6088
   34MOL   H15737183   3.646   5.361   7.580  1.7521  2.8942  1.8252
   34MOL   H15837184   3.753   5.351   7.447  0.9066  1.1132  0.5957
   34MOL   H15937185   3.608   5.458   7.289 -2.0935  0.6785 -0.2165
   34MOL   H16037186   3.498   5.529   7.413 -0.5984  1.5118 -1.1977
   34MOL   H16137187   3.549   5.245   7.343  0.6143  0.7267  1.2190
   34MOL   H16237188   3.421   5.294   7.459  2.5774 -1.0607  0.6649
   34MOL   H16337189   3.325   5.432   7.273  2.0615  1.0150 -1.2756
   34MOL   H16437190   3.434   5.358   7.163 -0.7873  0.2584 -0.3503
   34MOL   H16537191   3.213   5.226   7.318 -0.3162  1.4240 -0.3816
   34MOL   H16637192   3.338   5.137   7.228 -0.1244  0.0317  3.6407
   34MOL   H16737193   3.170   5.354   7.110  0.1918  0.0962  0.3217
   34MOL   H16837194   3.275   5.242   7.014 -0.8217  0.5102 -0.7765
   34MOL   H16937195   3.050   5.150   7.186  0.7162  3.5841  0.7955
   34MOL   C17037196   3.047   5.097   6.992  0.3690  0.1713  0.5499
   34MOL   O17137197   3.099   5.107   6.885  0.0437  0.3342 -0.0032
   34MOL   C17237198   2.911   5.039   7.006  0.4331  0.7417 -0.1756
   34MOL   C17337199   2.862   4.952   6.894  0.1199 -0.0560 -0.2815
   34MOL   C17437200   2.711   4.918   6.902 -0.4761  0.2707 -0.2731
   34MOL   C17537201   2.616   5.015   6.837  0.7294 -0.5794  0.4984
   34MOL   C17637202   2.467   4.986   6.859 -0.7242  0.0961  0.0043
   34MOL   C17737203   2.367   5.093   6.812 -0.4160 -0.2265 -0.1565
   34MOL   C17837204   2.223   5.064   6.854 -0.3271 -0.4092 -0.5611
   34MOL   C17937205   2.155   4.932   6.797 -0.3980  0.1687 -0.1642
   34MOL   C18037206   2.137   4.929   6.645 -0.0313 -0.7580  0.1102
   34MOL   C18137207   2.053   5.040   6.580 -0.3163 -0.2425  0.1581
   34MOL   C18237208   2.147   5.150   6.536 -0.7578 -0.2727  0.0725
   34MOL   O18337209   2.238   5.124   6.458  0.4183 -0.6773  0.1636
   34MOL   N18437210   2.139   5.274   6.591 -0.6676 -0.2210  0.2705
   34MOL   C18537211   2.209   5.399   6.560 -0.3112  0.7572  0.0805
   34MOL   C18637212   2.310   5.441   6.667 -0.0515 -0.1286  0.1138
   34MOL   C18737213   2.363   5.588   6.651  0.2351  0.1917  0.3868
   34MOL   C18837214   2.509   5.594   6.699  1.3441  0.1457 -0.3615
   34MOL   C18937215   2.563   5.735   6.698  0.0536  0.5413  0.2003
   34MOL   C19037216   2.707   5.737   6.767 -0.3678  0.8817  0.0559
   34MOL   N19137217   2.744   5.856   6.833 -0.3343 -0.1429  0.0899
   34MOL   H19237218   2.905   4.985   7.101  0.0612 -0.8576 -1.0946
   34MOL   H19337219   2.849   5.128   7.014 -1.6711 -0.7980  1.3232
   34MOL   H19437220   2.919   4.859   6.891 -1.4689 -1.1280  1.5495
   34MOL   H19537221   2.873   5.000   6.797 -0.9414 -0.5124 -0.6402
   34MOL   H19637222   2.684   4.909   7.008 -2.4970 -1.1078 -0.8629
   34MOL   H19737223   2.686   4.819   6.863 -0.5176 -0.0795  0.6212
   34MOL   H19837224   2.627   5.118   6.870  0.8528  0.3821 -2.4318
   34MOL   H19937225   2.640   5.007   6.731  0.3838  2.4777  0.1531
   34MOL   H20037226   2.435   4.885   6.834  1.4187 -1.4182  3.0663
   34MOL   H20137227   2.460   4.986   6.968 -0.7367 -2.0723  0.0192
   34MOL   H20237228   2.381   5.120   6.708  2.5300 -1.8355 -0.2244
   34MOL   H20337229   2.397   5.180   6.870  0.2207 -2.4131  2.9246
   34MOL   H20437230   2.222   5.041   6.961  1.9582 -1.7326 -0.7917
   34MOL   H20537231   2.162   5.150   6.825 -0.5290 -0.0230  0.9764
   34MOL   H20637232   2.216   4.845   6.823 -0.8322  0.4880  2.0762
   34MOL   H20737233   2.060   4.922   6.849  0.9409 -1.9668  2.0220
   34MOL   H20837234   2.091   4.837   6.609 -0.6148  0.6171 -2.8817
   34MOL   H20937235   2.233   4.923   6.594 -0.6575  0.6654 -1.3097
   34MOL   H21037236   2.000   5.015   6.487  0.4706 -1.1873 -0.0466
   34MOL   H21137237   1.985   5.085   6.652 -0.5279 -1.1017  0.5018
   34MOL   H21237238   2.061   5.293   6.653 -0.6419 -0.2965  0.3249
   34MOL   H21337239   2.124   5.467   6.551  0.6380  1.3734 -5.3736
   34MOL   H21437240   2.244   5.393   6.458 -0.0149 -1.0734  0.2880
   34MOL   H21537241   2.270   5.429   6.768  0.6736 -0.8218  0.3187
   34MOL   H21637242   2.381   5.359   6.663 -0.4907 -0.4718 -0.7844
   34MOL   H21737243   2.373   5.609   6.545  1.3734 -2.9166 -0.1438
   34MOL   H21837244   2.305   5.655   6.715 -1.1894 -0.9221  0.2658
   34MOL   H21937245   2.572   5.524   6.645  1.3614 -1.1047  1.2425
   34MOL   H22037246   2.505   5.556   6.801  0.9172 -1.1732 -0.8618
   34MOL   H22137247   2.492   5.796   6.754 -0.7244  2.7492 -3.0341
   34MOL   H22237248   2.567   5.774   6.596  0.1847 -0.3043 -0.1201
   34MOL   H22337249   2.786   5.716   6.694  1.1310  4.4023  0.5501
   34MOL   H22437250   2.711   5.655   6.838 -0.2479 -0.0330 -0.9876
   34MOL   H22537251   2.728   5.860   6.932 -0.6604 -1.7344  0.1171
   34MOL   C22637252   2.745   5.977   6.784  1.1212 -0.9555  0.5866
   34MOL   O22737253   2.737   6.006   6.666  0.8179 -0.5531  0.9753
   34MOL   C22837254   2.756   6.092   6.889  0.3405 -0.0503 -0.2006
   34MOL   C22937255   2.666   6.217   6.860  0.2120  0.5312  0.0642
   34MOL   C23037256   2.519   6.193   6.911  0.8209 -0.8620  0.1706
   34MOL   C23137257   2.419   6.298   6.859 -0.3160  0.2576  0.0159
   34MOL   C23237258   2.273   6.250   6.882 -0.2419 -0.3404  0.1238
   34MOL   C23337259   2.165   6.347   6.847  0.9880 -0.3983 -0.2682
   34MOL   C23437260   2.021   6.297   6.893 -0.7629  0.9522  0.8440
   34MOL   C23537261   1.920   6.397   6.848 -0.0429 -0.4131 -0.4563
   34MOL   C23637262   1.785   6.357   6.906 -0.1968 -0.1104 -0.7471
   34MOL   C23737263   1.677   6.462   6.906  0.4031 -0.1634  0.4292
   34MOL   C23837264   1.595   6.467   6.770 -0.2501  0.3769 -0.3786
   34MOL   O23937265   1.592   6.372   6.696  0.2121  0.3052  0.3676
   34MOL   N24037266   1.527   6.580   6.747 -0.1390  0.1285  0.0652
   34MOL   C24137267   1.441   6.610   6.636 -0.8562 -0.6967 -0.7497
   34MOL   C24237268   1.293   6.603   6.671 -0.3116  0.7290 -0.2794
   34MOL   C24337269   1.243   6.466   6.718 -0.1879  0.2510 -0.0924
   34MOL   C24437270   1.208   6.359   6.614  0.0656  0.4647 -0.3558
   34MOL   C24537271   1.131   6.235   6.657  0.1716  0.8945  0.4174
   34MOL   C24637272   1.105   6.125   6.547  0.1328  0.1174 -0.0700
   34MOL   N24737273   1.035   6.017   6.604  0.2205  0.4038  0.0387
   34MOL   H24837274   2.858   6.131   6.888  1.7160 -3.4645 -0.4604
   34MOL   H24937275   2.746   6.057   6.992  0.5603  4.0576  1.2819
   34MOL   H25037276   2.722   6.294   6.914  1.4204 -0.4005  0.1755
   34MOL   H25137277   2.670   6.237   6.753 -0.1899  0.7101  0.0846
   34MOL   H25237278   2.493   6.088   6.901  2.5900 -1.3403  0.5117
   34MOL   H25337279   2.521   6.190   7.020  0.1119  0.0828  0.2152
   34MOL   H25437280   2.427   6.320   6.753 -2.8395  1.9681  0.1372
   34MOL   H25537281   2.430   6.385   6.923 -1.1224 -0.1590  0.7360
   34MOL   H25637282   2.267   6.242   6.990  1.3832 -0.4169  0.2228
   34MOL   H25737283   2.257   6.151   6.841 -3.4382 -0.4238  1.4436
   34MOL   H25837284   2.194   6.444   6.889 -1.4484  0.6128 -0.8577
   34MOL   H25937285   2.171   6.378   6.743  0.9986 -0.9162 -0.4217
   34MOL   H26037286   2.016   6.269   6.998 -0.5826 -0.2792  0.5284
   34MOL   H26137287   1.995   6.202   6.847  1.5589  2.0936 -3.0822
   34MOL   H26237288   1.946   6.491   6.897 -0.0275 -0.7985  0.2848
   34MOL   H26337289   1.914   6.404   6.740  0.6129  0.1806 -0.4598
   34MOL   H26437290   1.769   6.265   6.850  0.4839 -0.0855 -0.9788
   34MOL   H26537291   1.787   6.322   7.010  1.2292  1.6229 -0.1774
   34MOL   H26637292   1.606   6.452   6.988 -0.9731  0.6381 -0.6582
   34MOL   H26737293   1.723   6.560   6.916  1.2287 -0.3409 -1.4002
   34MOL   H26837294   1.531   6.651   6.819  2.2890 -0.2827  0.3999
   34MOL   H26937295   1.463   6.553   6.546 -1.7641 -2.3912  0.0718
   34MOL   H27037296   1.467   6.711   6.604 -1.0739 -0.5527 -0.4802
   34MOL   H27137297   1.231   6.648   6.593 -3.0041  0.5631  1.6623
   34MOL   H27237298   1.276   6.677   6.749  0.9277 -0.3444  1.0271
   34MOL   H27337299   1.311   6.403   6.776  1.9564  0.0801 -2.6900
   34MOL   H27437300   1.149   6.480   6.771  0.0127 -0.3994  0.4612
   34MOL   H27537301   1.300   6.330   6.564  1.0716  2.1126  0.5165
   34MOL   H27637302   1.151   6.401   6.531  0.6479  0.9235 -0.5248
   34MOL   H27737303   1.034   6.270   6.694  0.5849  0.0817  2.3399
   34MOL   H27837304   1.183   6.187   6.740  1.4718 -2.2388 -2.1352
   34MOL   H27937305   1.195   6.086   6.501  1.3197 -0.0524  2.2975
   34MOL   H28037306   1.046   6.163   6.464  1.1508 -0.7260 -1.1870
   34MOL   H28137307   1.088   5.932   6.617 -0.6810 -0.4383 -1.5949
   34MOL   C28237308   0.907   6.025   6.630  0.1600 -0.1053  0.6173
   34MOL   O28337309   0.838   6.120   6.591 -0.8142 -0.0419  0.1836
   34MOL   C28437310   0.846   5.918   6.717 -0.1490 -0.3280  0.5519
   34MOL   C28537311   0.767   5.980   6.834 -0.3006  0.5278  0.5281
   34MOL   C28637312   0.845   6.073   6.928 -0.6016  1.1617  0.7095
   34MOL   C28737313   0.784   6.091   7.064  0.1194  0.0593  0.7718
   34MOL   C28837314   0.645   6.172   7.055  0.2165 -0.4330  0.1228
   34MOL   C28937315   0.672   6.321   7.028  1.0939  0.7292 -0.2610
   34MOL   C29037316   0.557   6.413   7.034 -0.8053 -0.0228  0.1936
   34MOL   C29137317   0.577   6.567   7.020  0.4157  0.0859  0.7569
   34MOL   C29237318   0.459   6.653   7.053  0.5413 -0.3981  0.2132
   34MOL   C29337319   0.482   6.795   7.081 -0.5676  0.3374  0.2947
   34MOL   C29437320   0.516   6.880   6.962  1.1960  0.1092  0.6788
   34MOL   O29537321   0.596   6.846   6.880 -0.0837 -0.0039  0.4953
   34MOL   N29637322   0.435   6.986   6.956  0.3107 -0.5348  0.0151
   34MOL   C29737323   0.447   7.097   6.860  0.3492  0.0236 -0.1458
   34MOL   C29837324   0.559   7.196   6.912  0.6552  0.3486 -0.0455
   34MOL   C29937325   0.556   7.232   7.064 -0.4833 -0.3787 -0.3997
   34MOL   C30037326   0.644   7.354   7.104  0.1479 -0.5093 -0.7011
   34MOL   C30137327   0.612   7.409   7.248  0.2143 -0.3674  0.3260
   34MOL   C30237328   0.717   7.520   7.282  0.8286 -0.0339 -0.0183
   34MOL   N30337329   0.714   7.540   7.428 -0.3489  0.3481 -0.2050
   34MOL   H30437330   0.791   5.855   6.648 -1.8148 -1.1820  2.6242
   34MOL   H30537331   0.928   5.860   6.759  1.6612  0.6027 -1.5398
   34MOL   H30637332   0.711   5.906   6.891 -0.2833 -0.0118 -0.1580
   34MOL   H30737333   0.688   6.032   6.781 -1.4199 -0.1202  1.5298
   34MOL   H30837334   0.947   6.033   6.932 -0.3744  1.5149 -1.0649
   34MOL   H30937335   0.852   6.170   6.878 -0.2060  1.3084  1.0498
   34MOL   H31037336   0.853   6.151   7.123 -1.2700  1.6663  0.8054
   34MOL   H31137337   0.767   5.993   7.109  2.4687 -0.7684 -0.0956
   34MOL   H31237338   0.581   6.133   6.976 -0.9226 -0.8755  1.2371
   34MOL   H31337339   0.596   6.167   7.152  0.3736  0.7583  0.2762
   34MOL   H31437340   0.749   6.353   7.098  0.8381  0.3032  0.2176
   34MOL   H31537341   0.711   6.321   6.926  0.0697 -2.1520 -0.6972
   34MOL   H31637342   0.516   6.399   7.134 -1.5820 -0.9848 -0.2500
   34MOL   H31737343   0.471   6.381   6.975 -1.0266 -0.0999  0.5570
   34MOL   H31837344   0.616   6.596   6.922 -0.7597 -0.1410  0.2023
   34MOL   H31937345   0.657   6.595   7.088  0.8036  2.5545 -0.6449
   34MOL   H32037346   0.394   6.649   6.966  0.8047  0.2211 -0.0139
   34MOL   H32137347   0.424   6.609   7.146 -2.6242  3.1978  0.8348
   34MOL   H32237348   0.394   6.833   7.133  0.9053  2.4541  1.3446
   34MOL   H32337349   0.572   6.805   7.143  0.7886 -1.5938 -1.2979
   34MOL   H32437350   0.367   7.001   7.029  1.4558  2.4773  0.5545
   34MOL   H32537351   0.350   7.147   6.850  0.1726 -0.1001  0.8838
   34MOL   H32637352   0.464   7.078   6.754 -2.5982  2.0250 -1.0474
   34MOL   H32737353   0.540   7.279   6.844 -0.8866  0.9660  1.1132
   34MOL   H32837354   0.657   7.159   6.882  0.5666  1.2174 -1.4856
   34MOL   H32937355   0.590   7.143   7.117  0.5292  0.3030  0.1054
   34MOL   H33037356   0.457   7.250   7.105 -0.3358  0.0479 -0.2301
   34MOL   H33137357   0.747   7.318   7.098  0.7164  1.1917 -1.5551
   34MOL   H33237358   0.645   7.438   7.035  0.6727 -2.2532 -2.8996
   34MOL   H33337359   0.627   7.324   7.314  0.5722 -0.4055  0.1943
   34MOL   H33437360   0.512   7.451   7.257  0.5671  0.4850  0.3397
   34MOL   H33537361   0.817   7.485   7.256 -0.2516 -1.3037 -2.6274
   34MOL   H33637362   0.697   7.613   7.230  1.2000 -0.5679 -1.1454
   34MOL   H33737363   0.762   7.462   7.470  1.4449  0.6111 -1.7011
   34MOL   C33837364   0.672   7.657   7.491  0.1749 -0.0600  1.1379
   34MOL   O33937365   0.618   0.057   7.428  0.4154 -0.2577 -0.1247
   34MOL   C34037366   0.694   7.665   7.639  0.4471 -0.1275  0.1783
   34MOL   C34137367   0.585   0.043   0.026 -0.2187  0.7541  0.5003
   34MOL   C34237368   0.622   0.188   0.049 -0.2410  0.0490  0.1173
   34MOL   C34337369   0.524   0.256   0.146  0.7976  0.8111 -0.3546
   34MOL   C34437370   0.584   0.391   0.199  0.1003 -0.2359 -0.3941
   34MOL   C34537371   0.611   0.502   0.094 -0.1979  0.0486  0.1788
   34MOL   C34637372   0.665   0.626   0.164  1.0803 -0.0433  0.5238
   34MOL   C34737373   0.695   0.742   0.068  0.1974 -0.9671  0.4352
   34MOL   C34837374   0.757   0.867   0.133 -0.0678  0.0299 -0.1057
   34MOL   C34937375   0.763   0.986   0.037  0.4279  0.3572 -0.7828
   34MOL   C35037376   0.891   1.071   0.026  0.7899  0.4367  0.2411
   34MOL   O35137377   0.942   1.114   0.131 -0.5836  0.1110 -0.2654
   34MOL   N35237378   0.932   1.097   7.591  0.4361 -0.0131 -0.0061
   34MOL   C35337379   1.047   1.176   7.552 -0.0708 -0.1757 -0.2252
   34MOL   C35437380   1.144   1.096   7.479  0.0147 -0.7232 -0.4044
   34MOL   C35537381   1.245   1.186   7.405 -0.2817  0.2521 -0.2965
   34MOL   C35637382   1.330   1.285   7.482 -0.6957  0.1670  0.0364
   34MOL   C35737383   1.283   1.436   7.481 -0.3919  1.0307  0.1956
   34MOL   C35837384   1.381   1.544   7.536  0.1317  0.1649  0.3321
   34MOL   N35937385   1.327   1.676   7.553  0.2987 -0.6055 -0.4179
   34MOL   H36037386   0.793   0.014   7.660 -0.5068  1.6357  1.4097
   34MOL   H36137387   0.702   7.565   7.682 -1.6810 -0.4539 -0.1076
   34MOL   H36237388   0.486   0.026   7.674 -0.6652  2.6751  0.7164
   34MOL   H36337389   0.573   7.691   0.124 -2.1323  1.2966  0.5329
   34MOL   H36437390   0.626   0.234   7.642  3.3181 -2.1595 -0.8545
   34MOL   H36537391   0.718   0.213   0.094 -0.8681 -0.2723  1.6448
   34MOL   H36637392   0.433   0.278   0.091 -0.2312 -1.6531  0.2702
   34MOL   H36737393   0.498   0.189   0.228 -2.6547  0.8515 -1.3282
   34MOL   H36837394   0.517   0.418   0.281  1.2645 -0.1882  0.5489
   34MOL   H36937395   0.677   0.376   0.254 -0.0991  0.0202  0.0181
   34MOL   H37037396   0.674   0.464   0.013 -1.4342  1.6982 -1.6128
   34MOL   H37137397   0.513   0.532   0.056 -0.5610 -2.1919 -0.7048
   34MOL   H37237398   0.597   0.660   0.242  0.0497  0.7031 -0.6933
   34MOL   H37337399   0.760   0.600   0.211  1.4038 -0.3625 -0.2967
   34MOL   H37437400   0.743   0.708   7.668  0.7138  0.1406  0.2815
   34MOL   H37537401   0.598   0.782   0.038  1.7582  1.4624 -1.6022
   34MOL   H37637402   0.851   0.851   0.185 -0.0200 -0.2580 -0.2772
   34MOL   H37737403   0.695   0.909   0.212 -1.6099 -2.3144 -0.0194
   34MOL   H37837404   0.744   0.952   7.627 -1.1238  0.9580 -0.7033
   34MOL   H37937405   0.680   1.055   0.054 -0.2972 -0.8478  0.6969
   34MOL   H38037406   0.878   1.054   7.518  0.9502 -0.9364  0.1490
   34MOL   H38137407   1.095   1.221   7.639  1.5478  1.9089 -2.1297
   34MOL   H38237408   1.011   1.260   7.492  2.7253  2.1412  1.2082
   34MOL   H38337409   1.094   1.038   7.402  2.8299 -3.3521 -0.3211
   34MOL   H38437410   1.193   1.030   7.551 -3.0823 -2.1879  0.4518
   34MOL   H38537411   1.307   1.118   7.346 -1.5744  0.1308 -1.5532
   34MOL   H38637412   1.184   1.241   7.333  0.7759  1.6885 -0.1212
   34MOL   H38737413   1.330   1.254   7.587 -1.6502 -1.8254 -0.5315
   34MOL   H38837414   1.433   1.287   7.447 -0.4327 -1.5373  0.6512
   34MOL   H38937415   1.189   1.446   7.535 -0.0399  1.9464  0.6485
   34MOL   H39037416   1.264   1.455   7.375  0.6423 -1.8692 -0.5469
   34MOL   H39137417   1.440   1.507   7.619 -0.3449 -1.9205 -0.2445
   34MOL   H39237418   1.449   1.559   7.453  0.1519 -0.7809  0.1725
   34MOL   H39337419   1.228   1.689   7.539  0.2172  0.9087  1.3150
   34MOL   C39437420   1.395   1.780   7.602  0.6870  0.4785 -0.2055
   34MOL   O39537421   1.510   1.767   7.621  0.1714  0.0959  0.5479
   34MOL   C39637422   1.321   1.914   7.611 -0.4711 -0.6419  0.7323
   34MOL   C39737423   1.408   2.032   7.655  0.2178 -0.1439 -0.3328
   34MOL   C39837424   1.484   2.035   0.098  1.0557 -0.6374  0.9704
   34MOL   C39937425   1.553   2.173   0.126 -0.0853 -0.0377 -0.0439
   34MOL   C40037426   1.692   2.194   0.047  0.5488 -0.0191  0.3751
   34MOL   C40137427   1.760   2.325   0.098 -0.0142  0.4280  0.1422
   34MOL   C40237428   1.869   2.329   0.207 -0.0526  0.4795 -0.0734
   34MOL   C40337429   1.888   2.472   0.270  0.4297 -0.1485 -0.4361
   34MOL   C40437430   1.956   2.568   0.181  1.1680 -0.2107  0.1152
   34MOL   C40537431   2.107   2.548   0.170 -0.2144 -0.0815 -0.2166
   34MOL   C40637432   2.182   2.679   0.136  0.7086 -0.1512 -0.2928
   34MOL   O40737433   2.140   2.764   0.058 -0.4353 -0.0729 -0.3371
   34MOL   N40837434   2.305   2.688   0.192  0.0515  0.0426 -0.6423
   34MOL   C40937435   2.397   2.803   0.173 -0.8578  0.0519 -0.4081
   34MOL   C41037436   2.534   2.777   0.221 -0.4830  0.0927 -0.3401
   34MOL   C41137437   2.634   2.893   0.201  0.0136  0.3263 -0.4407
   34MOL   C41237438   2.646   2.918   0.048  0.0559 -0.2359 -0.1929
   34MOL   C41337439   2.691   2.795   7.655  1.0613  0.2628  0.8530
   34MOL   C41437440   2.681   2.816   7.500 -0.3185  0.2901 -0.7554
   34MOL   N41537441   2.728   2.701   7.419 -0.2462 -0.0587 -0.1628
   34MOL   H41637442   1.242   1.889   7.683 -1.3872  0.6777  0.2069
   34MOL   H41737443   1.279   1.932   7.512  2.5026 -0.4596 -0.5354
   34MOL   H41837444   1.346   2.121   7.648  0.4213  0.0276  0.0805
   34MOL   H41937445   1.481   2.039   7.575  0.7208  0.7429  0.1984
   34MOL   H42037446   1.557   1.954   0.107 -0.3871 -2.0228  0.3770
   34MOL   H42137447   1.412   2.013   0.177  1.7363  2.5433  2.5579
   34MOL   H42237448   1.584   2.177   0.230  1.4948 -2.3802 -0.3858
   34MOL   H42337449   1.482   2.255   0.111  1.5335  1.4835  0.3387
   34MOL   H42437450   1.751   2.103   0.045 -0.8676 -1.0855  3.7425
   34MOL   H42537451   1.668   2.207   7.633  0.6560  0.2256  0.3817
   34MOL   H42637452   1.793   2.387   0.015 -0.1984  0.2919 -0.0342
   34MOL   H42737453   1.680   2.386   0.141  1.4127  1.5262  1.2829
   34MOL   H42837454   1.842   2.268   0.294 -1.7673 -0.8315 -1.4946
   34MOL   H42937455   1.965   2.284   0.182  0.5796  2.0338 -0.5199
   34MOL   H43037456   1.793   2.506   0.311  0.6257 -0.9338  0.7166
   34MOL   H43137457   1.947   2.455   0.360  1.4289 -2.6456 -1.5069
   34MOL   H43237458   1.932   2.669   0.217  2.4137 -0.9037  3.0122
   34MOL   H43337459   1.917   2.578   0.080  2.6401 -3.2527 -0.7943
   34MOL   H43437460   2.139   2.501   0.263  1.1249 -1.4590 -1.3421
   34MOL   H43537461   2.123   2.470   0.095 -0.3779  0.3590 -0.7129
   34MOL   H43637462   2.342   2.605   0.236  0.7964  0.3173 -0.7345
   34MOL   H43737463   2.353   2.876   0.240 -1.3123 -0.7239  0.1455
   34MOL   H43837464   2.396   2.839   0.070  0.2704 -2.1288 -1.2126
   34MOL   H43937465   2.567   2.680   0.182 -1.2448 -0.0077 -0.7451
   34MOL   H44037466   2.534   2.758   0.328  1.4484  1.1856 -0.1362
   34MOL   H44137467   2.602   2.981   0.256  0.0259 -1.1954  2.0716
   34MOL   H44237468   2.730   2.866   0.245 -0.1428  1.0172  0.3332
   34MOL   H44337469   2.552   2.952   0.005 -0.3221 -0.4332  0.4619
   34MOL   H44437470   2.710   3.005   0.033  0.6386 -0.3251  1.6953
   34MOL   H44537471   2.797   2.772   7.671  0.8981 -0.6330  0.6336
   34MOL   H44637472   2.638   2.705   7.685  0.0595 -0.7279 -3.5938
   34MOL   H44737473   2.578   2.842   7.476 -0.8263  0.2407  1.3247
   34MOL   H44837474   2.750   2.900   7.487  1.5968 -0.8862  1.4680
   34MOL   H44937475   2.804   2.734   7.362 -0.2891  1.3500  0.5646
   34MOL   C45037476   2.650   2.596   7.369  0.3343 -0.2260 -0.5527
   34MOL   O45137477   2.671   2.533   7.272 -0.0445 -0.2223 -0.0072
   34MOL   C45237478   2.527   2.559   7.451  0.1027  0.4673  0.0122
   34MOL   C45337479   2.411   2.480   7.382 -0.0519 -0.2821 -0.3045
   34MOL   C45437480   2.281   2.475   7.468 -0.3436  0.4106 -0.2575
   34MOL   C45537481   2.181   2.371   7.428 -0.3523 -0.3278 -0.5416
   34MOL   C45637482   2.068   2.350   7.527  0.3742 -0.0147  0.0458
   34MOL   C45737483   1.940   2.290   7.478  0.3634  0.4673  0.3519
   34MOL   C45837484   1.854   2.394   7.407 -0.4950 -0.4005 -0.5227
   34MOL   C45937485   1.724   2.335   7.343 -0.2213  0.0895  0.5729
   34MOL   C46037486   1.631   2.446   7.286  0.7538  0.4554 -0.2719
   34MOL   C46137487   1.695   2.533   7.168 -0.1108 -1.1026  0.3347
   34MOL   C46237488   1.601   2.589   7.064  0.5069  0.1696 -0.1313
   34MOL   O46337489   1.482   2.597   7.090 -0.1762 -0.2463 -0.0397
   34MOL   N46437490   1.652   2.628   6.948 -0.0401  0.7253  0.9227
   34MOL   C46537491   1.584   2.684   6.832  0.3788 -0.2111  0.3457
   34MOL   C46637492   1.629   2.827   6.809  0.0416  0.2042 -0.3011
   34MOL   C46737493   1.539   2.911   6.713  0.0350 -0.7119  0.2959
   34MOL   C46837494   1.573   3.058   6.709  0.2188 -0.4279 -0.0528
   34MOL   C46937495   1.724   3.084   6.675 -0.2761  0.0997  0.2533
   34MOL   C47037496   1.753   3.235   6.657  0.5666 -0.0601  0.1935
   34MOL   N47137497   1.709   3.291   6.534 -0.4278  0.2494  0.5636
   34MOL   H47237498   2.572   2.504   7.534  0.6385 -0.1911 -0.7089
   34MOL   H47337499   2.485   2.649   7.496 -0.5352  0.4491 -0.5356
   34MOL   H47437500   2.440   2.377   7.362 -0.7390 -0.1481 -2.0862
   34MOL   H47537501   2.392   2.524   7.285 -2.2495 -0.0299  0.2138
   34MOL   H47637502   2.231   2.572   7.463  2.6188  2.1441  2.0813
   34MOL   H47737503   2.310   2.463   7.573  0.1098 -0.9670 -0.5274
   34MOL   H47837504   2.229   2.275   7.407  0.0980 -0.4304  0.9366
   34MOL   H47937505   2.131   2.405   7.337 -1.0002  0.8190  0.2332
   34MOL   H48037506   2.050   2.448   7.570  3.5400 -0.3518  2.2737
   34MOL   H48137507   2.111   2.296   7.611  0.9513 -0.1950 -0.3545
   34MOL   H48237508   1.879   2.244   7.556 -1.6315  1.5567 -0.5319
   34MOL   H48337509   1.964   2.206   7.413 -1.2484 -0.0264  0.3678
   34MOL   H48437510   1.822   2.481   7.465 -0.5164 -1.5419  1.2145
   34MOL   H48537511   1.913   2.425   7.320  1.9848 -0.9784  0.9193
   34MOL   H48637512   1.754   2.264   7.266  0.2538  1.6083 -0.6477
   34MOL   H48737513   1.663   2.279   7.415  0.3334 -0.1202  0.8835
   34MOL   H48837514   1.590   2.512   7.362  2.2407 -1.1563  1.9906
   34MOL   H48937515   1.537   2.398   7.256  1.3312  0.0377 -1.4382
   34MOL   H49037516   1.760   2.614   7.200  2.0731 -1.1235 -3.7122
   34MOL   H49137517   1.761   2.467   7.112 -0.7965  0.2384 -2.1077
   34MOL   H49237518   1.750   2.604   6.939 -0.3378 -0.4007  0.6348
   34MOL   H49337519   1.476   2.682   6.834  0.3312  0.1322 -1.4369
   34MOL   H49437520   1.612   2.633   6.740  1.8569 -2.4575  1.9870
   34MOL   H49537521   1.624   2.887   6.900 -1.1262  0.8019 -0.7464
   34MOL   H49637522   1.735   2.838   6.785  0.4681 -1.3500  0.8294
   34MOL   H49737523   1.434   2.907   6.740  0.0367 -4.2208  0.0398
   34MOL   H49837524   1.541   2.874   6.610 -0.3188 -0.8763  0.3495
   34MOL   H49937525   1.554   3.109   6.804  1.1152 -1.2586  0.5856
   34MOL   H50037526   1.509   3.114   6.641 -1.2734 -1.6854  0.2974
   34MOL   H50137527   1.785   3.057   6.761  0.1697  0.5103  0.0653
   34MOL   H50237528   1.752   3.017   6.593  0.3680  1.5974 -0.7636
   34MOL   H50337529   1.727   3.295   6.745  0.1917 -0.6869  0.5172
   34MOL   H50437530   1.862   3.246   6.662  0.4190  1.8615 -0.5436
   34MOL   H50537531   1.637   3.246   6.480 -0.8484 -0.3237  1.5816
   34MOL   C50637532   1.741   3.411   6.494 -0.3263  0.6099  0.1752
   34MOL   O50737533   1.806   3.485   6.566 -0.5327  0.2810  0.2090
   34MOL   C50837534   1.712   3.447   6.347 -0.3979 -0.4878  0.0295
   34MOL   C50937535   1.792   3.568   6.295  0.8853  0.1128  0.1745
   34MOL   C51037536   1.736   3.700   6.341  0.4407  0.1682  0.3158
   34MOL   C51137537   1.809   3.831   6.306 -0.9069  1.0513  0.2832
   34MOL   C51237538   1.941   3.842   6.383 -0.5853 -0.2184  0.2760
   34MOL   C51337539   2.043   3.942   6.327 -0.4873  0.6109  0.3735
   34MOL   C51437540   1.991   4.089   6.342  0.3444 -0.5126  0.9978
   34MOL   C51537541   1.989   4.131   6.494 -0.5320 -0.7140 -0.1090
   34MOL   C51637542   1.987   4.283   6.520 -0.0095 -0.4912  0.0508
   34MOL   C51737543   1.969   4.318   6.666  0.2444  0.1729 -0.4299
   34MOL   C51837544   1.969   4.473   6.680  0.6548 -0.5812  0.3333
   34MOL   O51937545   2.025   4.544   6.597  0.3100 -0.2226 -0.4289
   34MOL   N52037546   1.903   4.522   6.790 -0.3808  0.5004 -0.1329
   34MOL   C52137547   1.897   4.656   6.835  0.4894  0.8782  0.5527
   34MOL   C52237548   1.780   4.742   6.787 -0.0040 -0.4464 -0.7639
   34MOL   C52337549   1.653   4.662   6.808  0.1885 -0.4982 -0.2673
   34MOL   C52437550   1.532   4.724   6.744  0.8059 -0.0675 -0.8158
   34MOL   C52537551   1.405   4.640   6.775  0.1926 -0.6385  0.1601
   34MOL   C52637552   1.298   4.699   6.696 -0.9973  0.0810  1.0385
   34MOL   N52737553   1.178   4.617   6.683 -0.1757 -0.3441 -0.5747
   34MOL   H52837554   1.606   3.461   6.329 -0.1191  1.5160 -0.1945
   34MOL   H52937555   1.739   3.356   6.293  2.3221  0.6047 -0.5687
   34MOL   H53037556   1.785   3.557   6.187  1.0950  0.0473  0.1672
   34MOL   H53137557   1.891   3.558   6.338 -0.9293 -2.0021  4.1237
   34MOL   H53237558   1.734   3.707   6.450  0.5762 -0.1616  0.3411
   34MOL   H53337559   1.632   3.716   6.309  0.5839 -0.6421 -0.5975
   34MOL   H53437560   1.815   3.848   6.198  2.3232 -1.3257  0.0220
   34MOL   H53537561   1.735   3.901   6.343 -0.8484 -0.4749  3.4278
   34MOL   H53637562   1.921   3.874   6.485  1.9944 -0.2131  0.8195
   34MOL   H53737563   1.992   3.747   6.394  0.1770  0.0221 -1.0696
   34MOL   H53837564   2.139   3.937   6.379 -0.3629 -1.7246 -0.0354
   34MOL   H53937565   2.084   3.926   6.227  0.6739 -0.3332  0.9788
   34MOL   H54037566   2.058   4.149   6.280 -1.0180 -1.2105 -1.1996
   34MOL   H54137567   1.889   4.102   6.306  0.2591 -0.3722  1.2852
   34MOL   H54237568   1.904   4.082   6.540 -1.3769  2.0000  1.3195
   34MOL   H54337569   2.079   4.092   6.540  2.1502  3.1770 -1.8129
   34MOL   H54437570   1.906   4.326   6.462  0.3020 -0.4401 -0.3472
   34MOL   H54537571   2.079   4.332   6.489 -0.2322  0.9411  1.5808
   34MOL   H54637572   1.877   4.273   6.703  0.3154 -0.0133 -0.4777
   34MOL   H54737573   2.045   4.290   6.739  0.5864 -1.2705 -1.3196
   34MOL   H54837574   1.851   4.451   6.839 -0.3874 -1.5236 -2.9513
   34MOL   H54937575   1.989   4.710   6.813  0.1042  1.2139 -0.2376
   34MOL   H55037576   1.883   4.645   6.943 -0.7822 -0.6871  0.2459
   34MOL   H55137577   1.787   4.758   6.680 -1.5647 -1.1196 -0.9843
   34MOL   H55237578   1.767   4.834   6.843 -1.5997  1.1037 -3.5682
   34MOL   H55337579   1.635   4.668   6.915  0.5487 -1.0784 -0.1757
   34MOL   H55437580   1.652   4.561   6.767  1.6436 -0.7412  0.2745
   34MOL   H55537581   1.556   4.720   6.637  0.8982 -1.1522 -0.7606
   34MOL   H55637582   1.520   4.830   6.767  0.4040  0.2232 -2.2832
   34MOL   H55737583   1.431   4.543   6.733  2.0338 -0.0920 -0.0176
   34MOL   H55837584   1.378   4.625   6.880 -0.2395  0.6895  0.2484
   34MOL   H55937585   1.264   4.783   6.757 -0.1393 -0.2204  1.9599
   34MOL   H56037586   1.339   4.735   6.602  1.3682 -1.2708  1.5039
   34MOL   H56137587   1.129   4.615   6.771  1.4432 -3.5679  0.3188
   34MOL   C56237588   1.147   4.544   6.575  0.6230  0.1090 -0.0290
   34MOL   O56337589   1.207   4.556   6.462  0.2173 -0.0568  0.3335
   34MOL   C56437590   1.031   4.443   6.600 -0.1713 -0.1429  0.3663
   34MOL   C56537591   0.971   4.389   6.466  0.6400  0.1168 -0.3322
   34MOL   C56637592   0.850   4.299   6.478  0.0178 -0.0912 -0.4661
   34MOL   C56737593   0.802   4.241   6.345  0.7283  0.2180  0.3102
   34MOL   C56837594   0.731   4.105   6.343  0.7898 -0.0735  0.2630
   34MOL   C56937595   0.671   4.054   6.216 -0.3034 -0.1645 -0.4084
   34MOL   C57037596   0.666   3.901   6.203 -0.2807  0.5229  0.4967
   34MOL   C57137597   0.799   3.838   6.195 -0.6867 -0.0743  0.2664
   34MOL   C57237598   0.782   3.691   6.168 -0.4430  0.1154 -0.1448
   34MOL   C57337599   0.915   3.619   6.178  0.7806 -0.1749 -0.0422
   34MOL   C57437600   0.899   3.473   6.200  0.1046 -0.3816 -0.4077
   34MOL   O57537601   0.790   3.421   6.224 -0.9439  0.1790 -0.1667
   34MOL   N57637602   1.010   3.400   6.178  0.1543 -0.6776  0.0203
   34MOL   C57737603   1.034   3.257   6.191 -0.5993  0.4371  0.6371
   34MOL   C57837604   0.974   3.170   6.074 -0.0342  0.2033 -0.0757
   34MOL   C57937605   1.001   3.020   6.100 -0.0458  0.1231  0.1897
   34MOL   C58037606   0.946   2.942   5.977  0.0254 -0.4306 -0.5327
   34MOL   C58137607   0.790   2.937   5.967  0.5871  0.6987  0.0349
   34MOL   C58237608   0.741   2.874   5.837  0.9490  0.3975 -0.1922
   34MOL   N58337609   0.787   2.741   5.820 -0.4065  0.2223  0.1661
   34MOL   H58437610   1.062   4.362   6.666 -3.2432 -0.7523  1.1439
   34MOL   H58537611   0.954   4.502   6.650  0.4946  2.2166 -1.2756
   34MOL   H58637612   0.943   4.468   6.396 -1.4229 -0.1100  0.1931
   34MOL   H58737613   1.047   4.320   6.432  3.2030  1.4591  2.4117
   34MOL   H58837614   0.774   4.368   6.514 -0.6298 -0.9499 -0.1941
   34MOL   H58937615   0.877   4.222   6.551 -1.9661  1.0532  1.5380
   34MOL   H59037616   0.748   4.316   6.286  1.2487 -1.1720 -2.0168
   34MOL   H59137617   0.889   4.234   6.279 -0.3069  0.9926 -1.1773
   34MOL   H59237618   0.794   4.028   6.388 -0.8310 -1.2495  0.5796
   34MOL   H59337619   0.654   4.103   6.420 -0.7603  1.2168 -1.2231
   34MOL   H59437620   0.571   4.094   6.202 -1.1894 -1.4774  1.9213
   34MOL   H59537621   0.728   4.092   6.131 -0.1642 -1.2973 -0.8365
   34MOL   H59637622   0.609   3.855   6.284 -0.2046 -2.5273 -1.1116
   34MOL   H59737623   0.618   3.872   6.110 -0.9266 -1.2723  1.3553
   34MOL   H59837624   0.848   3.845   6.292 -0.8001  0.7898  0.2599
   34MOL   H59937625   0.865   3.872   6.114  0.2384 -4.2708 -0.8810
   34MOL   H60037626   0.741   3.679   6.067  0.5940  0.8428 -0.6608
   34MOL   H60137627   0.707   3.647   6.234 -0.3986 -0.6563 -0.5959
   34MOL   H60237628   0.976   3.629   6.089  1.4089 -3.7024 -0.0468
   34MOL   H60337629   0.980   3.665   6.252  0.2373  3.2867 -1.6164
   34MOL   H60437630   1.082   3.464   6.146 -0.8640  0.3231 -0.2922
   34MOL   H60537631   0.999   3.229   6.290  1.2726  2.0148  1.7768
   34MOL   H60637632   1.141   3.238   6.182 -0.8038 -1.1994  1.5397
   34MOL   H60737633   1.030   3.198   5.985  0.9135 -3.2143 -0.6340
   34MOL   H60837634   0.867   3.188   6.060 -0.3421 -1.8741 -0.6025
   34MOL   H60937635   0.945   2.982   6.185 -0.5914  1.3949  0.4043
   34MOL   H61037636   1.105   2.998   6.125 -0.1427 -0.7354 -0.1380
   34MOL   H61137637   0.989   2.983   5.886 -1.0741 -1.0787 -1.3399
   34MOL   H61237638   0.982   2.840   5.968  2.9215  0.6245 -1.5640
   34MOL   H61337639   0.755   3.040   5.979  3.2489  1.4203  2.0766
   34MOL   H61437640   0.741   2.878   6.045  0.7673 -0.1844 -0.5223
   34MOL   H61537641   0.632   2.872   5.838  0.9501  0.1390  1.0810
   34MOL   H61637642   0.762   2.935   5.750  1.8528  0.5344  0.1092
   34MOL   H61737643   0.756   2.680   5.894 -0.1320  0.6036  0.6005
   34MOL   C61837644   0.861   2.698   5.723  0.1909  0.5137  0.6793
   34MOL   O61937645   0.877   2.759   5.616  0.0393  0.1311 -0.2979
   34MOL   C62037646   0.915   2.558   5.748 -0.5428 -0.2210  0.0874
   34MOL   C62137647   1.061   2.551   5.696 -0.3934  0.1083 -0.2220
   34MOL   C62237648   1.154   2.657   5.748  0.1901 -0.5799  0.1244
   34MOL   C62337649   1.197   2.633   5.891 -0.0196 -0.0097 -0.2607
   34MOL   C62437650   1.314   2.721   5.933 -0.0429  0.1997 -0.5328
   34MOL   C62537651   1.366   2.686   6.072 -0.0730  0.0130 -0.2487
   34MOL   C62637652   1.493   2.765   6.098  0.8500 -0.0132 -0.1712
   34MOL   C62737653   1.469   2.915   6.117  0.1456  0.0167  0.2707
   34MOL   C62837654   1.592   3.003   6.132  0.6973  0.1471  0.1812
   34MOL   C62937655   1.563   3.151   6.161  0.3919  0.3510 -0.4693
   34MOL   C63037656   1.493   3.170   6.293 -0.8662  0.3124  0.2072
   34MOL   O63137657   1.497   3.090   6.383  0.1041 -0.7223 -0.9431
   34MOL   N63237658   1.423   3.283   6.304 -0.6139  0.6957 -0.3088
   34MOL   C63337659   1.355   3.330   6.424  0.1332 -0.7164  0.6136
   34MOL   C63437660   1.316   3.477   6.422 -0.9006  0.3594 -0.4176
   34MOL   C63537661   1.235   3.518   6.543  0.4001 -0.3890  0.9043
   34MOL   C63637662   1.088   3.495   6.511  0.2510  0.3634 -0.2843
   34MOL   C63737663   0.990   3.516   6.624 -0.5147 -0.3333 -0.0503
   34MOL   C63837664   0.841   3.507   6.583  0.0365 -0.6140  0.1842
   34MOL   N63937665   0.802   3.384   6.526  0.6174  0.0331 -0.3716
   34MOL   H64037666   0.859   2.490   5.684 -0.8483 -1.1615  1.3379
   34MOL   H64137667   0.897   2.525   5.850 -1.8126  1.7813  0.5492
   34MOL   H64237668   1.051   2.558   5.588 -2.2582 -2.1423 -0.2401
   34MOL   H64337669   1.089   2.448   5.717 -1.9153 -0.8170 -2.5240
   34MOL   H64437670   1.108   2.756   5.746  0.0232 -0.6641 -0.4392
   34MOL   H64537671   1.247   2.661   5.690  0.2382  1.0537  0.2878
   34MOL   H64637672   1.115   2.658   5.958 -1.2470 -0.7506 -1.4613
   34MOL   H64737673   1.212   2.526   5.904  2.5463  0.2875 -0.3407
   34MOL   H64837674   1.391   2.711   5.857  0.8614  2.6252  0.0300
   34MOL   H64937675   1.292   2.828   5.931 -0.1244  0.1858 -4.3008
   34MOL   H65037676   1.384   2.579   6.083  0.3825  0.1456  0.3211
   34MOL   H65137677   1.303   2.711   6.157 -0.6059 -0.4826 -0.4956
   34MOL   H65237678   1.547   2.728   6.185  1.9796  0.6639 -0.5656
   34MOL   H65337679   1.562   2.736   6.019  1.2501 -1.9613  0.8666
   34MOL   H65437680   1.420   2.959   6.029 -0.2601 -0.8879  0.0360
   34MOL   H65537681   1.400   2.928   6.200  1.5112  1.1343  1.2628
   34MOL   H65637682   1.658   3.002   6.045  0.1437 -1.1738 -0.2309
   34MOL   H65737683   1.655   2.963   6.212 -1.4279  0.7823  2.2225
   34MOL   H65837684   1.653   3.212   6.156  1.5791 -1.0979  2.1326
   34MOL   H65937685   1.500   3.186   6.079 -0.5202 -1.8775 -0.7626
   34MOL   H66037686   1.394   3.325   6.217  0.8221  3.3278  0.4167
   34MOL   H66137687   1.261   3.274   6.428  0.2034 -0.8114  0.9190
   34MOL   H66237688   1.420   3.292   6.502 -3.1561 -0.8306  3.4085
   34MOL   H66337689   1.250   3.488   6.336 -2.0832  2.1061  0.6956
   34MOL   H66437690   1.394   3.550   6.402 -1.0251  0.6634  0.1995
   34MOL   H66537691   1.278   3.466   6.628  3.3968  1.3846  0.5506
   34MOL   H66637692   1.245   3.621   6.577  2.9179 -0.2785 -0.0393
   34MOL   H66737693   1.078   3.394   6.471  1.7156  0.6286 -1.3881
   34MOL   H66837694   1.054   3.561   6.431  0.1326  1.5649  0.7477
   34MOL   H66937695   1.011   3.446   6.706 -0.3787 -1.0430 -0.6820
   34MOL   H67037696   0.997   3.619   6.658  2.2013  0.1633 -1.9458
   34MOL   H67137697   0.776   3.531   6.667  0.8801 -2.6921  1.4813
   34MOL   H67237698   0.822   3.588   6.513 -0.4026  2.1386  3.3236
   34MOL   H67337699   0.781   3.388   6.427 -1.4262 -2.3328 -0.0828
   34MOL   C67437700   0.778   3.270   6.593  0.0158 -0.3834 -0.4668
   34MOL   O67537701   0.799   3.256   6.716 -0.1478 -0.3351 -0.1746
   34MOL   C67637702   0.741   3.147   6.506  0.1506 -0.5259  0.0760
   34MOL   C67737703   0.601   3.103   6.538  0.4450  0.9151  0.4400
   34MOL   C67837704   0.490   3.207   6.512  0.2071 -0.4136  0.3626
   34MOL   C67937705   0.484   3.262   6.366  0.8013 -0.4926  0.3869
   34MOL   C68037706   0.363   3.355   6.345  0.0408  0.0579 -0.3870
   34MOL   C68137707   0.396   3.505   6.354 -1.3780  0.3091 -0.0307
   34MOL   C68237708   0.280   3.607   6.367  0.0766  0.3005  1.0266
   34MOL   C68337709   0.333   3.749   6.370  0.0723  0.5879 -0.9721
   34MOL   C68437710   0.223   3.857   6.384 -0.2732 -0.1909  0.3650
   34MOL   C68537711   0.291   3.999   6.375  0.2238 -0.9295 -0.3717
   34MOL   C68637712   0.329   4.060   6.510 -0.6657  0.3804 -0.1374
   34MOL   O68737713   0.287   4.018   6.617  0.1837  0.1413 -0.6710
   34MOL   N68837714   0.408   4.161   6.501 -0.0473  0.7935 -0.8920
   34MOL   C68937715   0.464   4.245   6.606 -0.3286  0.7656 -0.6632
   34MOL   C69037716   0.360   4.323   6.692  0.7264 -0.7063 -0.3618
   34MOL   C69137717   0.327   4.451   6.619 -0.3714  0.0539  0.1141
   34MOL   C69237718   0.256   4.558   6.701 -0.0397 -0.3945  0.0551
   34MOL   C69337719   0.252   4.700   6.651  0.5221  0.0808 -0.2093
   34MOL   C69437720   0.137   4.784   6.713 -0.9143  0.1276  0.4679
   34MOL   N69537721   0.113   4.925   6.674 -0.0556 -0.0665 -0.1206
   34MOL   H69637722   0.812   3.066   6.527  0.7041  0.7520  3.4321
   34MOL   H69737723   0.761   3.165   6.400 -0.8323 -3.1278 -0.6149
   34MOL   H69837724   0.593   3.065   6.640  1.9486  0.1260  0.2688
   34MOL   H69937725   0.587   3.022   6.466  0.9792 -0.2668  1.6455
   34MOL   H70037726   0.393   3.174   6.550  0.5685 -1.4438  0.3866
   34MOL   H70137727   0.498   3.293   6.579  1.4488 -1.1257  1.1629
   34MOL   H70237728   0.475   3.186   6.287  0.0673  0.4104 -0.4117
   34MOL   H70337729   0.580   3.307   6.339 -0.5661  0.9769 -2.2118
   34MOL   H70437730   0.285   3.341   6.419  2.4297 -1.9102  1.8677
   34MOL   H70537731   0.322   3.340   6.245 -0.9752  2.0527 -0.2706
   34MOL   H70637732   0.462   3.528   6.438 -0.5496 -1.7389 -0.1067
   34MOL   H70737733   0.462   3.519   6.268  0.7724  0.2922  1.5709
   34MOL   H70837734   0.231   3.593   6.270 -2.3432  1.5400  2.0283
   34MOL   H70937735   0.210   3.583   6.447 -1.9727 -0.8542 -1.0481
   34MOL   H71037736   0.408   3.762   6.448 -0.2689  2.5564 -0.9536
   34MOL   H71137737   0.384   3.769   6.276 -2.2190 -1.5773 -2.7552
   34MOL   H71237738   0.148   3.853   6.463  0.1551  0.2048  0.7915
   34MOL   H71337739   0.155   3.843   6.300  2.4696 -2.8890 -1.5330
   34MOL   H71437740   0.389   3.991   6.328 -1.2409 -2.0363 -3.3571
   34MOL   H71537741   0.222   4.072   6.335  1.2266  0.6826  0.7679
   34MOL   H71637742   0.439   4.184   6.407  1.2095  1.6655 -0.2780
   34MOL   H71737743   0.534   4.195   6.672  0.9200  1.5184 -1.3983
   34MOL   H71837744   0.533   4.315   6.559 -0.6208  1.9958  0.6853
   34MOL   H71937745   0.404   4.349   6.788 -0.2602  1.8860 -0.5848
   34MOL   H72037746   0.263   4.274   6.707 -0.4501  2.4380  2.8592
   34MOL   H72137747   0.413   4.511   6.590 -1.6815  1.6546 -0.5309
   34MOL   H72237748   0.293   4.428   6.517  1.0903 -3.2069  0.2797
   34MOL   H72337749   0.299   4.573   6.800  3.1766  1.1935 -1.4997
   34MOL   H72437750   0.155   4.520   6.712  0.3998 -1.5014  0.3415
   34MOL   H72537751   0.236   4.707   6.543  0.8595 -0.6424 -0.3103
   34MOL   H72637752   0.345   4.750   6.678 -0.0472  1.0786 -0.0442
   34MOL   H72737753   0.044   4.730   6.698 -0.3394 -1.4435  2.4305
   34MOL   H72837754   0.150   4.793   6.821  1.9532  1.4771  0.0818
   34MOL   H72937755   0.165   4.990   6.732 -1.1861 -0.0189  0.8533
   34MOL   C73037756   0.057   4.973   6.565 -0.7803  0.0343  1.2534
   34MOL   O73137757   0.007   4.902   6.475  0.0441  0.5106 -0.4027
   34MOL   C73237758   0.055   5.121   6.560 -0.4003  0.1989  0.1878
   34MOL   C73337759   0.121   5.174   6.435 -0.8754  0.6705 -0.3638
   34MOL   C73437760   0.272   5.134   6.429 -0.7713 -0.1740 -0.2909
   34MOL   C73537761   0.355   5.248   6.360 -0.8498  0.6571 -0.5190
   34MOL   C73637762   0.507   5.234   6.354  0.0551  0.2057 -0.2608
   34MOL   C73737763   0.552   5.119   6.274  0.4517 -0.4582  0.1935
   34MOL   C73837764   0.556   5.150   6.123  0.1268 -0.1355 -0.0415
   34MOL   C73937765   0.591   5.029   6.036  0.2465  0.4830 -0.1248
   34MOL   C74037766   0.587   5.069   5.884 -0.1573  0.4142  0.4923
   34MOL   C74137767   0.625   4.965   5.779  0.2749 -0.3092  0.9464
   34MOL   C74237768   0.529   4.852   5.777 -0.0532 -0.0753 -0.3560
   34MOL   O74337769   0.532   4.764   5.861 -0.2235 -0.2680  0.1183
   34MOL   N74437770   0.450   4.846   5.669 -0.1620  0.9170  0.0655
   34MOL   C74537771   0.332   4.765   5.662 -0.5318  0.3019  0.2163
   34MOL   C74637772   0.352   4.624   5.599  1.3038  0.5761 -0.2612
   34MOL   C74737773   0.228   4.540   5.625 -0.2199  0.1041  0.0530
   34MOL   C74837774   0.242   4.398   5.589  0.2671 -0.2602  0.2569
   34MOL   C74937775   0.115   4.314   5.609  0.0370  0.4493  0.3713
   34MOL   C75037776   0.139   4.165   5.602  0.6822 -0.1023  0.2545
   34MOL   N75137777   0.025   4.087   5.630 -0.2179 -0.8027  0.9754
   34MOL   H75237778   0.096   5.166   6.650 -0.7915 -1.5428  1.2571
   34MOL   H75337779   7.643   5.152   6.550 -0.0379  1.5526  0.5044
   34MOL   H75437780   0.089   5.278   6.433  0.1422  0.9723 -1.0642
   34MOL   H75537781   0.068   5.120   6.356 -0.2594 -1.3180  0.5308
   34MOL   H75637782   0.283   5.040   6.375 -0.1580  0.1936 -0.8187
   34MOL   H75737783   0.308   5.124   6.531  1.1924 -2.4316 -1.1628
   34MOL   H75837784   0.330   5.349   6.391  0.7178  1.0409 -0.4632
   34MOL   H75937785   0.325   5.242   6.256  0.0057 -0.4442 -0.7116
   34MOL   H76037786   0.548   5.238   6.455 -1.3787  0.2329  0.3390
   34MOL   H76137787   0.546   5.326   6.313  0.9887 -0.2963 -0.5076
   34MOL   H76237788   0.658   5.099   6.290 -0.0797 -2.7463  1.0242
   34MOL   H76337789   0.495   5.027   6.287  1.0964 -0.9404 -0.3445
   34MOL   H76437790   0.453   5.172   6.096  0.6338 -0.5732 -2.4225
   34MOL   H76537791   0.625   5.229   6.092 -0.4705  1.2244  1.9699
   34MOL   H76637792   0.690   4.988   6.060 -0.0396 -0.5031 -0.6087
   34MOL   H76737793   0.522   4.948   6.058  1.4118 -0.5197 -0.1040
   34MOL   H76837794   0.666   5.143   5.873  0.7884 -0.8478 -1.3165
   34MOL   H76937795   0.486   5.100   5.857 -0.9143 -1.3597  1.1747
   34MOL   H77037796   0.611   5.022   5.687 -1.1188 -0.5813  0.9870
   34MOL   H77137797   0.723   4.918   5.783  1.4384  2.0420  0.7439
   34MOL   H77237798   0.468   4.908   5.591 -1.8676  0.3309 -0.8179
   34MOL   H77337799   0.252   4.809   5.603 -0.7726 -0.4812 -0.0397
   34MOL   H77437800   0.293   4.755   5.763  0.3233 -4.1853  0.2048
   34MOL   H77537801   0.437   4.575   5.645  1.8154  0.3882 -1.4034
   34MOL   H77637802   0.369   4.650   5.495  0.9313  0.0052 -0.4684
   34MOL   H77737803   0.140   4.577   5.572  0.3582  1.4406  0.0135
   34MOL   H77837804   0.210   4.533   5.732 -1.2305  0.0788 -0.1156
   34MOL   H77937805   0.277   4.388   5.486  1.5529  0.0514  0.6547
   34MOL   H78037806   0.322   4.363   5.654 -0.3262 -1.0229  0.5805
   34MOL   H78137807   0.040   4.351   5.539 -0.8886 -3.1525 -0.6345
   34MOL   H78237808   0.078   4.348   5.705  0.0023  1.7696 -0.0884
   34MOL   H78337809   0.168   4.131   5.503 -1.7278 -1.8718  0.0905
   34MOL   H78437810   0.210   4.139   5.680 -1.1747 -0.2928  1.9387
   34MOL   H78537811   7.630   4.136   5.613 -0.0964 -0.4938  1.2435
   34MOL   C78637812   0.030   3.951   5.632 -0.0675 -0.1053 -0.7138
   34MOL   O78737813   0.134   3.886   5.631  0.2865 -0.8518  0.5227
   34MOL   C78837814   7.585   3.879   5.639  0.0106 -0.4987 -0.9686
   34MOL   C78937815   7.583   3.729   5.659  0.0012 -0.3378  0.3670
   34MOL   C79037816   7.553   3.636   5.539 -0.2520  0.2671 -0.2915
   34MOL   C79137817   7.609   3.490   5.545 -0.0425 -0.1301  0.3830
   34MOL   C79237818   7.564   3.426   5.410 -0.1064 -0.0058  0.5228
   34MOL   C79337819   7.650   3.315   5.355 -0.4967 -0.2744 -0.3209
   34MOL   C79437820   7.673   3.196   5.454 -0.3179 -0.1958  0.6051
   34MOL   C79537821   0.083   3.094   5.398  0.1895  0.4936 -0.1031
   34MOL   C79637822   0.097   2.956   5.473  0.0294  0.6036 -0.0490
   34MOL   C79737823   0.121   2.970   5.625 -0.9534  0.4873  0.2434
   34MOL   C79837824   0.179   2.839   5.684  0.5260 -0.4658 -0.6327
   34MOL   O79937825   0.104   2.747   5.716  0.0281  0.2734  0.1224
   34MOL   N80037826   0.313   2.821   5.701  0.2462  0.0786  0.2647
   34MOL   C80137827   0.373   2.689   5.686 -0.0418  0.1166  0.1519
   34MOL   C80237828   0.495   2.690   5.592  0.0297  0.2920 -0.3565
   34MOL   C80337829   0.466   2.707   5.443 -0.5414  0.2067  0.3462
   34MOL   C80437830   0.592   2.693   5.356 -0.6065  0.1588 -0.6323
   34MOL   C80537831   0.662   2.823   5.351  0.0712 -0.7963  1.6570
   34MOL   C80637832   0.787   2.843   5.271 -0.5093 -0.5153  0.0021
   34MOL   N80737833   0.907   2.786   5.335 -0.8637 -0.0499  0.4103
   34MOL   H80837834   7.543   3.900   5.541 -1.0866  1.3368 -0.1359
   34MOL   H80937835   7.515   3.931   5.705  1.0372  0.1402 -0.3761
   34MOL   H81037836   7.668   3.688   5.713  1.4787  0.7033 -1.1279
   34MOL   H81137837   7.513   3.698   5.738  0.7242 -0.9033  0.7927
   34MOL   H81237838   7.603   3.683   5.454  1.9374 -0.8794  0.3359
   34MOL   H81337839   7.447   3.639   5.513 -0.2031  1.2238 -0.3965
   34MOL   H81437840   0.026   3.498   5.548  0.0213 -1.3134  1.4351
   34MOL   H81537841   7.569   3.434   5.630 -2.2039 -1.0306 -1.1888
   34MOL   H81637842   7.463   3.385   5.419  0.3147 -0.8115  1.6386
   34MOL   H81737843   7.546   3.499   5.331 -0.5274 -1.3653 -0.6467
   34MOL   H81837844   7.623   3.283   5.254  0.4069 -0.0052 -0.6623
   34MOL   H81937845   0.061   3.348   5.338 -0.5857  0.1637  0.0007
   34MOL   H82037846   0.004   3.234   5.554  0.9998  0.8824 -0.0843
   34MOL   H82137847   7.576   3.152   5.478 -0.8380  0.5800 -0.0372
   34MOL   H82237848   0.071   3.070   5.293  1.8608 -0.8618 -0.0035
   34MOL   H82337849   0.178   3.144   5.415 -0.7205  1.0786  3.6496
   34MOL   H82437850   0.187   2.905   5.440  0.9907  1.4999  1.1600
   34MOL   H82537851   0.017   2.883   5.454 -1.7048  2.6067 -0.6514
   34MOL   H82637852   0.194   3.047   5.647  0.1378 -0.2459 -0.7042
   34MOL   H82737853   0.038   3.002   5.687 -1.8770 -3.7285  1.3990
   34MOL   H82837854   0.366   2.905   5.687 -0.2960  0.5927  1.2005
   34MOL   H82937855   0.307   2.607   5.658  0.7671 -0.4264 -0.1677
   34MOL   H83037856   0.404   2.646   5.781 -0.7110  0.8404  0.7088
   34MOL   H83137857   0.555   2.601   5.615 -1.3525 -0.2780  1.1398
   34MOL   H83237858   0.556   2.770   5.635 -0.5476 -0.1634  1.3427
   34MOL   H83337859   0.400   2.627   5.411 -2.0516  1.0098  1.3713
   34MOL   H83437860   0.409   2.794   5.412 -1.8249 -0.5005  0.6910
   34MOL   H83537861   0.570   2.661   5.254  1.9233  1.7647 -1.7453
   34MOL   H83637862   0.661   2.616   5.390  0.7905  1.3331 -0.7073
   34MOL   H83737863   0.678   2.866   5.450 -1.6736  0.2024  1.5274
   34MOL   H83837864   0.583   2.884   5.307  0.6909 -1.2071 -0.0652
   34MOL   H83937865   0.796   2.952   5.277  0.8636 -0.5481 -1.3330
   34MOL   H84037866   0.773   2.811   5.168 -2.8243  1.0693 -0.2216
   34MOL   H84137867   0.909   2.775   5.436  1.9027 -0.6097  0.3453
   34MOL   C84237868   1.019   2.760   5.267 -0.3976  0.5642  0.4181
   34MOL   O84337869   1.032   2.764   5.147  0.5127 -0.4880  0.0737
   34MOL   C84437870   1.141   2.732   5.357  0.0167 -0.0972 -0.3701
   34MOL   C84537871   1.267   2.808   5.311  0.2806 -0.1234  0.1244
   34MOL   C84637872   1.282   2.964   5.278  0.3580 -0.5790 -1.6018
   34MOL   C84737873   1.259   3.065   5.399 -0.0128 -0.1886  0.5943
   34MOL   C84837874   1.104   3.065   5.426 -0.3663  0.8323  0.2231
   34MOL   C84937875   1.054   3.180   5.511  0.0296 -0.2667  0.1311
   34MOL   C85037876   0.899   3.201   5.501  0.3121 -0.0741  0.1332
   34MOL   C85137877   0.840   3.317   5.585 -0.0722 -0.6489 -0.9065
   34MOL   C85237878   0.821   3.285   5.733  0.1571  0.1324  0.4856
   34MOL   C85337879   0.772   3.401   5.822  0.9102 -0.1528  0.3223
   34MOL   C85437880   0.845   3.536   5.815  0.0261 -0.6899  0.4272
   34MOL   O85537881   0.968   3.540   5.812  0.3361 -0.5416  0.8985
   34MOL   N85637882   0.767   3.643   5.802 -0.3283 -0.3652 -0.4367
   34MOL   C85737883   0.816   3.778   5.789 -0.0692  0.3884  0.9881
   34MOL   C85837884   0.812   3.807   5.635 -0.6331 -0.3203 -0.0607
   34MOL   C85937885   0.872   3.942   5.593  0.3937 -0.3352 -1.2581
   34MOL   C86037886   0.849   3.976   5.436  0.4771  0.3209 -0.5200
   34MOL   C86137887   0.706   4.023   5.411 -0.3228  0.1573 -0.5428
   34MOL   C86237888   0.691   4.046   5.255  1.0516 -0.0149  0.2198
   34MOL   N86337889   0.551   4.028   5.202 -0.2945 -0.2997 -0.2508
   34MOL   H86437890   1.151   2.626   5.337 -2.4237 -0.2854 -0.8040
   34MOL   H86537891   1.123   2.755   5.462 -0.4050 -0.4347 -0.3672
   34MOL   H86637892   1.302   2.752   5.224 -1.7293 -1.3230  0.0495
   34MOL   H86737893   1.334   2.790   5.395 -0.0256  0.6613  0.5401
   34MOL   H86837894   1.388   2.967   5.254  0.4264  0.2046 -1.2181
   34MOL   H86937895   1.235   2.990   5.183  0.6853  1.0555 -1.3280
   34MOL   H87037896   1.286   3.164   5.361 -1.3281 -0.6844 -1.7497
   34MOL   H87137897   1.306   3.020   5.487 -1.7438 -0.3603  1.4382
   34MOL   H87237898   1.054   3.072   5.330  2.6139  2.1826 -1.3179
   34MOL   H87337899   1.077   2.969   5.470 -0.7827 -0.0272 -1.8717
   34MOL   H87437900   1.076   3.163   5.617  1.7474  1.3906  0.0671
   34MOL   H87537901   1.110   3.273   5.499 -2.0272  1.0465  0.3990
   34MOL   H87637902   0.868   3.216   5.397 -0.0151  0.2121  0.2733
   34MOL   H87737903   0.850   3.106   5.524 -1.7032  1.0823  0.7461
   34MOL   H87837904   0.744   3.348   5.544 -0.3887 -1.8833 -1.1012
   34MOL   H87937905   0.899   3.407   5.565  1.8286 -1.1665  1.9511
   34MOL   H88037906   0.918   3.246   5.766  1.6464  1.9906 -1.5561
   34MOL   H88137907   0.752   3.205   5.759  0.7777 -0.2562  0.9681
   34MOL   H88237908   0.665   3.416   5.803  1.1809  1.9269  0.3394
   34MOL   H88337909   0.782   3.363   5.924 -2.1264 -3.8107 -0.6219
   34MOL   H88437910   0.667   3.637   5.798 -0.4165  0.3152  0.6763
   34MOL   H88537911   0.920   3.783   5.822  0.4969 -3.3218  0.0542
   34MOL   H88637912   0.751   3.854   5.833  1.2826  2.8248 -1.0916
   34MOL   H88737913   0.708   3.823   5.607 -0.4273 -1.2491 -1.3993
   34MOL   H88837914   0.853   3.724   5.578 -1.2836 -0.1264 -0.8152
   34MOL   H88937915   0.977   3.939   5.625 -0.7747  0.4971  2.8905
   34MOL   H89037916   0.844   4.028   5.653 -0.6804 -0.8447 -1.0268
   34MOL   H89137917   0.862   3.889   5.371  0.7880 -1.6942  2.1512
   34MOL   H89237918   0.900   4.072   5.434 -3.2781  2.4285  0.3281
   34MOL   H89337919   0.638   3.946   5.448  0.5270  0.8101  2.5258
   34MOL   H89437920   0.682   4.117   5.459 -0.1300 -0.7776  1.4372
   34MOL   H89537921   0.717   4.149   5.231  0.4041 -0.0555 -0.6810
   34MOL   H89637922   0.757   3.986   5.192  1.5595 -0.6770  1.3735
   34MOL   H89737923   0.490   4.107   5.191  0.0664  0.5243  2.9772
   34MOL   C89837924   0.508   3.911   5.151  0.1046 -0.1532 -0.0708
   34MOL   O89937925   0.570   3.805   5.166 -0.2062  0.3395 -0.1847
   34MOL   C90037926   0.375   3.920   5.071  0.1877 -0.6218  0.0259
   34MOL   C90137927   0.367   3.835   4.946  0.2071  0.4483 -0.3241
   34MOL   C90237928   0.437   3.891   4.817 -0.1237  1.2306  0.1039
   34MOL   C90337929   0.403   3.800   4.691  0.0309  0.3327 -0.0040
   34MOL   C90437930   0.518   3.700   4.665 -0.0375  0.6295  0.2122
   34MOL   C90537931   0.624   3.758   4.569  0.5231  0.0171  0.3722
   34MOL   C90637932   0.734   3.666   4.518 -0.3377 -0.0925 -0.3972
   34MOL   C90737933   0.840   3.736   4.434 -0.2677  0.2175  0.6711
   34MOL   C90837934   0.957   3.640   4.386  0.5991  0.1559 -0.3662
   34MOL   C90937935   1.061   3.622   4.498  0.2052 -0.3448  0.5295
   34MOL   C91037936   1.157   3.513   4.466 -0.3492  0.5543  0.2895
   34MOL   O91137937   1.276   3.539   4.435 -0.0753 -0.2602 -0.3208
   34MOL   N91237938   1.113   3.390   4.472 -0.1621 -0.5437  0.0992
   34MOL   C91337939   1.191   3.271   4.435  0.4276  0.9283  0.4554
   34MOL   C91437940   1.218   3.193   4.568 -0.1389  0.2917 -0.7882
   34MOL   C91537941   1.311   3.070   4.532  0.4111  0.5190  0.0344
   34MOL   C91637942   1.232   2.947   4.473  0.2260 -0.9005 -0.1303
   34MOL   C91737943   1.316   2.834   4.425  0.4781  0.1882  0.6729
   34MOL   C91837944   1.228   2.714   4.378  0.1531 -0.4435  0.7422
   34MOL   N91937945   1.299   2.609   4.312 -0.2951  0.2831 -0.6325
   34MOL   H92037946   0.289   3.902   5.134  0.1623 -1.3292 -0.2102
   34MOL   H92137947   0.349   4.021   5.038 -1.5853 -1.3043 -0.7045
   34MOL   H92237948   0.260   3.824   4.933  0.1378 -0.0839  0.6346
   34MOL   H92337949   0.406   3.736   4.968 -0.3608  0.7453  2.1011
   34MOL   H92437950   0.545   3.895   4.833 -0.2604  0.9858  1.1501
   34MOL   H92537951   0.394   3.987   4.787 -1.3320 -0.1317 -2.7273
   34MOL   H92637952   0.304   3.753   4.693 -0.3068  1.0691  2.3348
   34MOL   H92737953   0.411   3.862   4.602  0.0629 -0.5195 -0.6016
   34MOL   H92837954   0.472   3.617   4.612 -0.7866 -0.3677  2.3757
   34MOL   H92937955   0.589   3.665   4.740  0.8361  4.1113  1.1113
   34MOL   H93037956   0.575   3.793   4.478 -0.8743  0.2517  1.1867
   34MOL   H93137957   0.674   3.847   4.608  0.0743  1.4222 -2.1225
   34MOL   H93237958   0.704   3.580   4.459 -0.3051 -0.8247  0.6539
   34MOL   H93337959   0.777   3.621   4.607  1.5192  1.0240 -0.6970
   34MOL   H93437960   0.880   3.819   4.492  0.6582 -1.0011  1.8118
   34MOL   H93537961   0.787   3.771   4.345 -0.5530  0.1756  0.8223
   34MOL   H93637962   0.903   3.548   4.365  1.5711 -0.2302 -1.2349
   34MOL   H93737963   1.007   3.662   4.291 -0.0068 -1.2814 -1.0396
   34MOL   H93837964   1.111   3.717   4.514  0.5644 -0.4306 -0.0912
   34MOL   H93937965   1.015   3.584   4.590  0.6684 -1.7784  0.1715
   34MOL   H94037966   1.016   3.378   4.499  0.1789  0.3195  1.7820
   34MOL   H94137967   1.285   3.304   4.391 -1.7672  4.6275 -1.7046
   34MOL   H94237968   1.133   3.207   4.369 -1.1960 -0.9589  3.5826
   34MOL   H94337969   1.258   3.265   4.638 -1.7423 -0.1750  0.6222
   34MOL   H94437970   1.123   3.145   4.592 -0.4052  1.2340  0.0222
   34MOL   H94537971   1.396   3.105   4.474 -0.0576 -0.4095 -1.2546
   34MOL   H94637972   1.352   3.037   4.627 -2.0961 -1.0862  0.6236
   34MOL   H94737973   1.182   3.000   4.392 -0.6970 -2.8736 -0.8867
   34MOL   H94837974   1.164   2.909   4.549  0.6556  0.0183  0.7353
   34MOL   H94937975   1.373   2.867   4.338  1.9631 -0.9829  1.1787
   34MOL   H95037976   1.392   2.815   4.500  2.4010  2.4284 -0.6468
   34MOL   H95137977   1.142   2.754   4.325  2.9766  0.8039 -3.1109
   34MOL   H95237978   1.190   2.678   4.474  1.1875  0.3607  1.4736
   34MOL   H95337979   1.396   2.629   4.293 -0.2241  0.2273 -0.3389
   34MOL   C95437980   1.251   2.485   4.297 -0.0756  0.0086  0.0562
   34MOL   O95537981   1.137   2.452   4.333  0.8905  0.4451  0.4122
   34MOL   C95637982   1.336   2.371   4.239  0.0749 -0.4963  0.1462
   34MOL   C95737983   1.268   2.267   4.150  0.0133  0.6314  0.3321
   34MOL   C95837984   1.173   2.168   4.212  0.1533 -0.1392  0.3697
   34MOL   C95937985   1.094   2.091   4.102 -0.1089  0.5684  0.1060
   34MOL   C96037986   1.018   1.973   4.154 -0.7915  0.1783  0.3910
   34MOL   C96137987   0.906   2.013   4.247  0.3682 -0.0211 -0.3312
   34MOL   C96237988   0.803   1.903   4.264 -0.0302  1.1124  0.5779
   34MOL   C96337989   0.704   1.940   4.374 -0.2887 -0.0304  0.3338
   34MOL   C96437990   0.573   1.868   4.391 -0.5713  0.6565 -0.0308
   34MOL   C96537991   0.499   1.905   4.527 -0.0311  0.0855  0.4698
   34MOL   C96637992   0.378   1.809   4.561 -0.3151 -1.0205  0.2446
   34MOL   O96737993   0.337   1.735   4.469  0.1473  0.0106 -0.1896
   34MOL   N96837994   0.330   1.810   4.684 -0.1041 -0.3052 -0.5047
   34MOL   C96937995   0.232   1.710   4.727  1.0641  0.3790  0.0821
   34MOL   C97037996   0.089   1.756   4.677 -0.1572  0.5359  0.5021
   34MOL   C97137997   0.058   1.900   4.711 -0.0338 -0.5540  1.0090
   34MOL   C97237998   7.593   1.921   4.714  1.0188 -0.2583 -0.0833
   34MOL   C97337999   7.518   1.949   4.585  0.1244  0.5562  0.1150
   34MOL   C97438000   7.562   2.064   4.499 -0.4841  0.5071  0.5259
   34MOL   N97538001   7.470   2.084   4.389 -0.4930  0.5657  0.0952
   34MOL   H97638002   1.419   2.418   4.187 -0.6034  0.6771  0.1204
   34MOL   H97738003   1.380   2.327   4.329  3.3995 -0.7989 -1.5403
   34MOL   H97838004   1.338   2.209   4.091 -0.7549  0.1882 -0.1522
   34MOL   H97938005   1.211   2.329   4.080  1.5405  1.0114 -0.5939
   34MOL   H98038006   1.219   2.092   4.276 -0.4126 -0.6921  0.1338
   34MOL   H98138007   1.104   2.220   4.279  1.2857  1.5880  0.2033
   34MOL   H98238008   1.019   2.158   4.059 -0.9010 -0.2558  0.1870
   34MOL   H98338009   1.158   2.055   4.021 -3.2541  0.5614 -2.5115
   34MOL   H98438010   0.979   1.909   4.075 -1.6554 -1.0905  1.8181
   34MOL   H98538011   1.088   1.902   4.198  1.6816  1.6408 -1.0536
   34MOL   H98638012   0.945   2.030   4.348  0.6219 -0.2787 -0.3865
   34MOL   H98738013   0.865   2.110   4.218  0.0591  0.3897  1.3887
   34MOL   H98838014   0.753   1.881   4.170 -1.5492 -0.3176  1.6973
   34MOL   H98938015   0.846   1.805   4.286 -2.8176  0.6741  4.4857
   34MOL   H99038016   0.760   1.924   4.466  0.3663 -0.3040 -0.1144
   34MOL   H99138017   0.696   2.049   4.373  1.6956  0.1158 -1.2859
   34MOL   H99238018   0.580   1.759   4.395 -0.1700  0.7078  1.0775
   34MOL   H99338019   0.511   1.881   4.303  1.3534  2.9119 -1.0895
   34MOL   H99438020   0.565   1.885   4.612  1.4665 -1.6193 -1.0526
   34MOL   H99538021   0.463   2.008   4.533 -1.9453 -0.5656  0.6769
   34MOL   H99638022   0.369   1.871   4.755 -1.1734 -1.3621  1.0390
   34MOL   H99738023   0.232   1.701   4.836  0.7348 -0.0567  0.0479
   34MOL   H99838024   0.249   1.616   4.675 -0.4925  0.6089 -0.8634
   34MOL   H99938025   0.018   1.686   4.722  1.3066 -1.0046  0.4694
   34MOL     H138026   0.081   1.737   4.570  0.0293 -1.6026  0.8347
   34MOL     H238027   0.102   1.974   4.643 -1.3995  1.9267  2.7174
   34MOL     H338028   0.105   1.917   4.807 -0.6690  0.6621  1.1209
   34MOL     H438029   7.544   1.840   4.768 -3.3849  1.1482 -1.7602
   34MOL     H538030   7.571   2.000   4.786  0.1240  0.9545 -1.6566
   34MOL     H638031   7.417   1.974   4.619 -0.8887 -0.8328 -1.7297
   34MOL     H738032   7.507   1.850   4.540  2.0533 -0.2278  1.3347
   34MOL     H838033   7.575   2.159   4.550 -2.0668  1.9015 -1.5833
   34MOL     H938034   7.662   2.048   4.458  0.5930  2.4346  2.3368
   34MOL    H1038035   7.438   1.996   4.352 -0.0972  0.3558  0.2515
   34MOL    C1138036   7.421   2.197   4.337  0.5171  0.3520  0.7785
   34MOL    O1238037   7.460   2.311   4.370 -0.1731 -0.4651 -0.2839
   34MOL    C1338038   7.319   2.178   4.223  0.0281 -0.3611  0.1246
   34MOL    C1438039   7.201   2.279   4.225 -0.0922 -0.4289 -0.3851
   34MOL    C1538040   7.121   2.288   4.093 -0.4956 -0.3164  0.0267
   34MOL    C1638041   7.026   2.412   4.101 -0.1592  0.2903  0.4500
   34MOL    C1738042   6.906   2.398   4.192  0.1855  0.0374 -0.0216
   34MOL    C1838043   6.803   2.515   4.177 -0.9597 -0.2698 -0.2561
   34MOL    C1938044   6.665   2.497   4.235  0.5152  0.7200 -0.3907
   34MOL    C2038045   6.644   2.538   4.379  0.0998 -0.0148 -0.8581
   34MOL    C2138046   6.495   2.519   4.417  0.3010 -0.1014 -0.8963
   34MOL    C2238047   6.400   2.608   4.342  0.2372  0.5269 -0.2346
   34MOL    C2338048   6.406   2.748   4.396  0.0762  0.1959  0.3745
   34MOL    O2438049   6.451   2.776   4.508  0.0015 -0.0914  0.2106
   34MOL    N2538050   6.357   2.840   4.312 -0.3045 -0.0410 -0.2569
   34MOL    C2638051   6.359   2.982   4.342 -0.4669 -0.5902 -0.9676
   34MOL    C2738052   6.233   3.029   4.419 -0.2882 -0.0930  0.2809
   34MOL    C2838053   6.236   3.163   4.491  0.0550  0.1577  0.1261
   34MOL    C2938054   6.107   3.205   4.560  0.0000  0.0719  0.4171
   34MOL    C3038055   6.120   3.334   4.635  0.0351  0.0744  0.4340
   34MOL    C3138056   5.986   3.359   4.704 -0.8248  0.6841 -0.5769
   34MOL    N3238057   6.002   3.457   4.811  0.3606 -0.1530 -0.1359
   34MOL    H3338058   7.291   2.073   4.216 -0.1192 -0.3411  0.4398
   34MOL    H3438059   7.372   2.190   4.128 -0.5281 -0.7985 -0.2475
   34MOL    H3538060   7.243   2.380   4.222 -4.0828  1.2944 -0.4383
   34MOL    H3638061   7.136   2.270   4.311 -0.7675  1.2902 -0.7094
   34MOL    H3738062   7.072   2.192   4.078  1.2050 -1.1010 -0.5989
   34MOL    H3838063   7.192   2.303   4.011  0.9562 -2.7278  0.8000
   34MOL    H3938064   7.078   2.505   4.126 -0.8390  0.7677  0.1236
   34MOL    H4038065   6.988   2.429   4.000 -0.9662 -2.2194  0.3133
   34MOL    H4138066   6.859   2.300   4.182 -0.5458  0.3902 -0.1057
   34MOL    H4238067   6.941   2.399   4.295 -1.8989 -1.2170  0.7370
   34MOL    H4338068   6.850   2.596   4.232 -0.0979 -0.2161 -1.0571
   34MOL    H4438069   6.793   2.541   4.072 -0.8048 -0.8659 -0.4188
   34MOL    H4538070   6.610   2.559   4.164 -0.2989 -0.5529 -0.8893
   34MOL    H4638071   6.632   2.396   4.210 -2.2641  1.1604  1.3843
   34MOL    H4738072   6.707   2.466   4.431  0.0261 -0.4224 -1.3306
   34MOL    H4838073   6.680   2.639   4.397 -1.6409  0.0885  2.3081
   34MOL    H4938074   6.484   2.533   4.525 -1.6602 -2.6956 -0.6949
   34MOL    H5038075   6.464   2.415   4.404 -1.5860  0.1586  1.1500
   34MOL    H5138076   6.404   2.586   4.235 -0.5875 -1.8256  0.1884
   34MOL    H5238077   6.307   2.566   4.380  0.8618 -0.8453 -0.2020
   34MOL    H5338078   6.294   2.817   4.236  0.3776  1.7025 -1.3868
   34MOL    H5438079   6.362   3.048   4.256 -2.1249  1.7041  0.6644
   34MOL    H5538080   6.453   3.002   4.394 -1.8376 -0.8107  1.7373
   34MOL    H5638081   6.204   2.952   4.490  1.5068  0.8813  2.1262
   34MOL    H5738082   6.150   3.032   4.348  0.7382  2.9245 -0.8725
   34MOL    H5838083   6.256   3.238   4.414 -0.7593  0.3765  0.1231
   34MOL    H5938084   6.316   3.164   4.564 -0.3048  0.4697  0.5176
   34MOL    H6038085   6.071   3.121   4.620 -1.5891 -0.5618 -1.3620
   34MOL    H6138086   6.038   3.219   4.477  1.8413 -0.5292 -1.2518
   34MOL    H6238087   6.134   3.411   4.560  1.3702 -0.4884  0.0841
   34MOL    H6338088   6.205   3.353   4.702  0.1349  0.9157  0.0768
   34MOL    H6438089   5.957   3.263   4.746  0.3479 -0.1494 -1.6259
   34MOL    H6538090   5.899   3.368   4.640 -1.0028  2.0680 -0.1524
   34MOL    H6638091   6.026   3.429   4.905 -0.1588 -1.4457 -0.3865
   34MOL    C6738092   5.990   3.593   4.797  0.8551  0.3194 -0.0913
   34MOL    O6838093   5.945   3.645   4.698 -0.1641  0.1668 -0.9226
   34MOL    C6938094   6.025   3.678   4.918 -0.6891  0.0518 -0.9038
   34MOL    C7038095   6.141   3.775   4.887 -0.3822  0.2996 -0.2436
   34MOL    C7138096   6.276   3.734   4.949 -0.6856  0.1505  0.5892
   34MOL    C7238097   6.333   3.606   4.888  0.3770  0.2410 -0.4272
   34MOL    C7338098   6.473   3.571   4.939 -0.4392 -0.2639 -0.0518
   34MOL    C7438099   6.526   3.433   4.896  0.7532  0.0434  0.5050
   34MOL    C7538100   6.451   3.312   4.958  0.1860 -0.1590 -0.5584
   34MOL    C7638101   6.485   3.180   4.879 -0.0858  0.1004  0.0950
   34MOL    C7738102   6.409   3.058   4.939 -0.2269 -0.5361  0.3374
   34MOL    C7838103   6.429   2.925   4.856  0.2750 -0.1259 -0.4422
   34MOL    C7938104   6.573   2.880   4.852  0.0758  0.2969 -0.1388
   34MOL    O8038105   6.647   2.889   4.951 -0.0876 -0.7353  0.2905
   34MOL    N8138106   6.618   2.821   4.740 -0.0573  0.6591 -0.3714
   34MOL    C8238107   6.749   2.750   4.717  0.3747  0.0959 -0.6456
   34MOL    C8338108   6.740   2.601   4.753 -0.0012 -0.3306 -0.0359
   34MOL    C8438109   6.884   2.529   4.754  0.1777  0.4999 -0.5242
   34MOL    C8538110   6.958   2.537   4.619  0.7504  0.3379  0.0313
   34MOL    C8638111   7.094   2.465   4.610  0.4356  0.0454 -0.4317
   34MOL    C8738112   7.079   2.309   4.610  0.0473  0.5027  0.6389
   34MOL    N8838113   7.213   2.256   4.610 -0.0603 -0.3258  0.4052
   34MOL    H8938114   6.051   3.615   5.003  0.9925 -0.3783 -1.7175
   34MOL    H9038115   5.943   3.741   4.952  0.6680  1.6033 -0.4774
   34MOL    H9138116   6.163   3.793   4.782  1.5228  0.2777  0.1450
   34MOL    H9238117   6.118   3.866   4.942  0.9383  2.0968 -2.5590
   34MOL    H9338118   6.358   3.804   4.938 -1.0765  0.4652 -0.3602
   34MOL    H9438119   6.274   3.717   5.057  2.4089  1.6383  0.9323
   34MOL    H9538120   6.261   3.533   4.924  1.4719 -0.2980  0.7202
   34MOL    H9638121   6.326   3.611   4.780  0.0912 -1.2204 -0.4820
   34MOL    H9738122   6.541   3.652   4.911 -0.9459  1.4124  3.3597
   34MOL    H9838123   6.471   3.581   5.048 -0.4062  1.2982 -0.1775
   34MOL    H9938124   6.504   3.433   4.789  0.7735 -0.6331  0.4977
   34MOL   H10038125   6.635   3.428   4.903  0.7650 -1.2690 -0.4158
   34MOL   H10138126   6.342   3.308   4.959  0.1556  0.5988 -0.0678
   34MOL   H10238127   6.483   3.298   5.061 -3.1059  1.5565  0.7636
   34MOL   H10338128   6.456   3.185   4.774  3.1579  0.3674 -0.8295
   34MOL   H10438129   6.591   3.152   4.881 -0.3388 -1.1510 -2.0664
   34MOL   H10538130   6.302   3.076   4.952 -0.2332 -0.1715 -0.2411
   34MOL   H10638131   6.465   3.046   5.033  1.2057 -1.5083 -0.6219
   34MOL   H10738132   6.375   2.838   4.894 -2.7575  2.3934  1.3059
   34MOL   H10838133   6.388   2.952   4.759 -0.2643 -2.3730 -0.8458
   34MOL   H10938134   6.558   2.832   4.660 -1.7906 -0.4159  0.7367
   34MOL   H11038135   6.821   2.810   4.772 -1.3086 -0.6081  2.4574
   34MOL   H11138136   6.767   2.755   4.610  2.9112 -1.7407 -0.3380
   34MOL   H11238137   6.666   2.561   4.684  0.1207  0.8030 -0.8471
   34MOL   H11338138   6.697   2.596   4.853  1.5323  0.4177  0.6692
   34MOL   H11438139   6.865   2.426   4.786  2.4368  0.6404  1.4188
   34MOL   H11538140   6.952   2.574   4.826  2.5560 -0.6531 -2.0149
   34MOL   H11638141   6.885   2.510   4.543 -2.2697 -0.6167  3.1166
   34MOL   H11738142   6.989   2.640   4.602  2.8595 -0.4298 -0.9283
   34MOL   H11838143   7.120   2.494   4.509  1.6080 -0.9847 -0.4367
   34MOL   H11938144   7.161   2.499   4.689 -2.0197  0.3411  1.5849
   34MOL   H12038145   7.011   2.277   4.690 -0.7106  0.6452  0.0620
   34MOL   H12138146   7.033   2.286   4.514 -0.7513  0.0917  1.1123
   34MOL   H12238147   7.206   2.155   4.600  0.6241 -0.3538  0.2197
   34MOL   H12338148   7.271   2.278   4.531  0.3996 -0.0412  0.8237
   35MOL     C138149   5.622   5.291   2.623  0.3235  0.0073 -0.3143
   35MOL     O238150   5.556   5.220   2.547 -0.2959  0.1028  0.0204
   35MOL     C338151   5.569   5.427   2.664 -0.0087  0.0798 -0.9228
   35MOL     C438152   5.543   5.517   2.552  0.4413  0.1255 -0.7419
   35MOL     C538153   5.563   5.666   2.577  0.3477 -0.6367  0.8946
   35MOL     C638154   5.710   5.700   2.581 -0.2750 -0.2384 -0.2248
   35MOL     C738155   5.738   5.845   2.617  0.2211 -0.0475 -0.1036
   35MOL     C838156   5.686   5.947   2.517 -0.7184 -0.0781  0.3089
   35MOL     C938157   5.746   6.085   2.533  0.3303  0.3975  0.3671
   35MOL    C1038158   5.710   6.174   2.413 -0.5908  0.1423 -0.4765
   35MOL    C1138159   5.757   6.319   2.444 -1.3153  0.1951  0.4341
   35MOL    C1238160   5.774   6.409   2.322  0.1359 -0.4151 -0.0290
   35MOL    C1338161   5.906   6.385   2.242 -0.4222  0.3636 -0.0418
   35MOL    O1438162   5.953   6.474   2.169  0.3028  0.8025 -0.1214
   35MOL    N1538163   5.959   6.263   2.245  1.0735  0.1665  0.1146
   35MOL    C1638164   6.089   6.231   2.195 -0.2999  0.2200 -0.1019
   35MOL    C1738165   6.101   6.073   2.186 -0.1149  0.2263  0.0443
   35MOL    C1838166   6.095   6.005   2.324 -0.0479 -0.5775 -0.9312
   35MOL    C1938167   6.043   5.869   2.339 -0.2207  0.4904  0.3442
   35MOL    C2038168   6.143   5.767   2.283 -0.3668 -0.2638 -0.1704
   35MOL    C2138169   6.091   5.621   2.296 -0.4177  0.2571  1.1813
   35MOL    N2238170   6.173   5.527   2.225 -0.2754  0.3205 -0.5770
   35MOL    H2338171   5.647   5.476   2.723 -0.7570 -0.7375  0.7672
   35MOL    H2438172   5.491   5.412   2.739 -0.3042  1.7540 -0.8541
   35MOL    H2538173   5.445   5.493   2.511  0.0012 -1.8217  1.3472
   35MOL    H2638174   5.612   5.493   2.471  0.9680  0.8173 -0.5072
   35MOL    H2738175   5.519   5.704   2.670  0.1188 -2.1854  1.4272
   35MOL    H2838176   5.516   5.703   2.486  1.7793 -1.1300 -0.0620
   35MOL    H2938177   5.759   5.654   2.666 -0.5459 -0.5858 -0.2555
   35MOL    H3038178   5.752   5.658   2.489  2.1497  1.7969 -0.0985
   35MOL    H3138179   5.846   5.858   2.619  0.2269 -0.1907  1.5044
   35MOL    H3238180   5.693   5.868   2.714  0.0203 -3.0551  0.5709
   35MOL    H3338181   5.694   5.910   2.415 -0.6515  0.4203  0.1320
   35MOL    H3438182   5.578   5.956   2.533 -0.4668  1.6388  1.1062
   35MOL    H3538183   5.716   6.135   2.625  0.5691 -0.8549  1.1336
   35MOL    H3638184   5.854   6.068   2.534  0.3563  0.4266 -1.1016
   35MOL    H3738185   5.765   6.132   2.329  0.7969 -1.0231  0.9816
   35MOL    H3838186   5.607   6.157   2.382 -0.0270 -1.7164 -1.3981
   35MOL    H3938187   5.849   6.324   2.503 -1.4842 -0.7656  0.7902
   35MOL    H4038188   5.678   6.356   2.509 -0.0999 -0.7700  2.5421
   35MOL    H4138189   5.695   6.405   2.247 -0.4565  2.4421  0.3817
   35MOL    H4238190   5.759   6.510   2.360 -1.5460 -0.3503 -0.7902
   35MOL    H4338191   5.918   6.193   2.306  0.5163  0.6551  0.3136
   35MOL    H4438192   6.173   6.259   2.259 -0.7098 -0.3786  0.7036
   35MOL    H4538193   6.104   6.269   2.094  1.4817 -1.3086 -0.4394
   35MOL    H4638194   6.183   6.048   2.119 -0.5501  0.0893 -0.4382
   35MOL    H4738195   6.024   6.032   2.120  2.5236 -2.5704 -1.4142
   35MOL    H4838196   6.184   6.003   2.388 -2.8156 -0.7951  3.1571
   35MOL    H4938197   6.020   6.051   2.389  1.0505 -0.6538  0.4130
   35MOL    H5038198   5.951   5.861   2.281  0.4209  2.5924 -1.0153
   35MOL    H5138199   6.035   5.856   2.447 -0.7069 -0.8286  0.1664
   35MOL    H5238200   6.164   5.785   2.178  1.2542 -0.5361  0.0942
   35MOL    H5338201   6.241   5.774   2.330 -0.8881 -1.0715  1.0567
   35MOL    H5438202   6.087   5.589   2.400 -2.3786 -0.4758  0.9107
   35MOL    H5538203   5.993   5.609   2.249  0.2005 -0.9659  0.1464
   35MOL    H5638204   6.130   5.475   2.149  0.8695 -2.0121  0.3002
   35MOL    H5738205   5.717   5.268   2.671 -0.0566  1.6997  1.2822
   35MOL    C5838206   6.289   5.469   2.273 -0.5597  0.3226  0.1602
   35MOL    O5938207   6.353   5.509   2.372  0.1222  0.2215 -0.1947
   35MOL    C6038208   6.345   5.351   2.188 -0.2214  0.1507 -0.0311
   35MOL    C6138209   6.501   5.330   2.200 -0.0047 -0.6236 -0.8539
   35MOL    C6238210   6.560   5.235   2.098 -0.4353 -0.0346  0.2743
   35MOL    C6338211   6.702   5.189   2.135  0.0075 -0.6510  0.3647
   35MOL    C6438212   6.780   5.094   2.040 -0.7925 -0.0389  0.0424
   35MOL    C6538213   6.815   5.168   1.910  0.1939 -0.8779 -0.3122
   35MOL    C6638214   6.936   5.272   1.920  0.5138  0.6481  0.0827
   35MOL    C6738215   6.927   5.390   1.815 -0.7913 -0.2624  0.2278
   35MOL    C6838216   6.965   5.353   1.672  0.2423  0.1974 -0.1542
   35MOL    C6938217   6.929   5.463   1.568  0.4229 -0.0008 -0.0195
   35MOL    C7038218   6.775   5.495   1.550  0.1488  0.1380 -0.0500
   35MOL    O7138219   6.694   5.409   1.579 -0.0731  0.1623 -0.0093
   35MOL    N7238220   6.757   5.611   1.493 -0.0985  0.0595 -0.0025
   35MOL    C7338221   6.635   5.677   1.470  0.5624 -0.0822  0.0710
   35MOL    C7438222   6.609   5.699   1.321  0.2955 -0.5667  0.4586
   35MOL    C7538223   6.486   5.795   1.298  0.5034 -0.9775  0.1700
   35MOL    C7638224   6.423   5.798   1.154 -0.3222 -0.4120 -0.0845
   35MOL    C7738225   6.378   5.938   1.113  0.6321 -0.1023 -0.4923
   35MOL    C7838226   6.298   5.935   0.972  0.3762  0.4169 -0.3902
   35MOL    N7938227   6.260   6.075   0.930 -0.6143 -0.8522  0.2344
   35MOL    H8038228   6.333   5.373   2.082  0.5508  2.0463  0.2595
   35MOL    H8138229   6.288   5.259   2.198 -1.6954  1.0079 -0.3628
   35MOL    H8238230   6.553   5.425   2.189 -1.4195  0.0148 -2.1746
   35MOL    H8338231   6.515   5.280   2.296  1.9869 -0.8509 -1.2273
   35MOL    H8438232   6.546   5.285   2.002 -3.1966 -1.6966 -0.2507
   35MOL    H8538233   6.493   5.152   2.074 -0.5217  0.7946 -2.6068
   35MOL    H8638234   6.685   5.133   2.227  1.5246 -2.5752 -0.4739
   35MOL    H8738235   6.774   5.268   2.153 -0.1722 -0.0696 -1.3316
   35MOL    H8838236   6.867   5.070   2.100 -0.3600 -0.4827 -0.7553
   35MOL    H8938237   6.726   5.001   2.024 -0.3465 -0.3525  0.3663
   35MOL    H9038238   6.733   5.235   1.883  0.3638 -0.8661 -0.8037
   35MOL    H9138239   6.847   5.106   1.826  1.7099  1.1421 -1.2667
   35MOL    H9238240   7.035   5.230   1.906 -0.0162 -0.2614 -0.9553
   35MOL    H9338241   6.949   5.312   2.021  0.9716  1.3863 -0.2634
   35MOL    H9438242   6.829   5.437   1.817  0.4439  2.3404  1.0738
   35MOL    H9538243   6.992   5.470   1.849 -0.8332  0.5337 -1.4961
   35MOL    H9638244   6.915   5.259   1.652  2.2788 -1.1098  0.6617
   35MOL    H9738245   7.070   5.326   1.664  0.0203  0.0713 -2.9601
   35MOL    H9838246   6.972   5.562   1.585 -1.2181  0.7468 -0.1563
   35MOL    H9938247   6.974   5.438   1.472  0.8148  1.0904 -0.1279
   35MOL   H10038248   6.836   5.669   1.468 -0.0222 -0.7125 -1.5706
   35MOL   H10138249   6.635   5.770   1.526 -1.3530  0.2277 -0.3944
   35MOL   H10238250   6.551   5.618   1.506 -0.2990  0.9069 -0.2772
   35MOL   H10338251   6.697   5.738   1.270  0.1278 -1.9084 -0.8865
   35MOL   H10438252   6.586   5.611   1.261  1.1391  0.4674 -1.4290
   35MOL   H10538253   6.522   5.895   1.324 -1.7435 -0.1266  0.1240
   35MOL   H10638254   6.406   5.756   1.360  0.6728 -2.0287 -0.2621
   35MOL   H10738255   6.491   5.752   1.082  2.4317  1.8611  0.9665
   35MOL   H10838256   6.338   5.731   1.172 -0.1551 -0.8263 -0.8234
   35MOL   H10938257   6.471   5.995   1.103  1.9800 -2.6262 -3.0844
   35MOL   H11038258   6.318   5.981   1.193 -0.0851 -1.9263 -0.0322
   35MOL   H11138259   6.201   5.886   0.971  0.0139  1.0878  1.0431
   35MOL   H11238260   6.370   5.887   0.905  0.9466  0.0048  0.4983
   35MOL   H11338261   6.187   6.113   0.988 -0.4592  0.1771 -0.2249
   35MOL   C11438262   6.327   6.151   0.846 -0.1359 -0.3073  0.2351
   35MOL   O11538263   6.435   6.112   0.799 -0.0746  0.8293 -0.2043
   35MOL   C11638264   6.271   6.292   0.813 -0.6195  0.6582 -0.1491
   35MOL   C11738265   6.308   6.335   0.669  0.0419  0.1685 -0.2349
   35MOL   C11838266   6.328   6.479   0.650  0.0713  0.9390 -0.5619
   35MOL   C11938267   6.441   6.543   0.731 -0.2490  0.4246  0.1548
   35MOL   C12038268   6.472   6.694   0.695  0.3101 -0.1076 -0.1087
   35MOL   C12138269   6.573   6.753   0.795 -0.3644  0.1947 -0.2654
   35MOL   C12238270   6.506   6.808   0.922  0.2707 -0.4368 -0.0091
   35MOL   C12338271   6.594   6.898   1.011  0.7800 -0.3808  0.1141
   35MOL   C12438272   6.518   6.951   1.132  0.0405 -0.2725 -0.2524
   35MOL   C12538273   6.583   7.069   1.204 -0.6721 -0.5545 -0.3151
   35MOL   C12638274   6.540   7.088   1.348 -0.4966 -0.5427 -0.0411
   35MOL   O12738275   6.557   6.993   1.430 -0.1374  0.0967 -0.4329
   35MOL   N12838276   6.490   7.208   1.380 -0.1982  0.1051 -0.0088
   35MOL   C12938277   6.469   7.255   1.521  0.0541  0.4059 -0.5877
   35MOL   C13038278   6.603   7.274   1.601  0.1510  0.0565 -0.1178
   35MOL   C13138279   6.701   7.371   1.541  0.3397 -0.1614  0.0069
   35MOL   C13238280   6.816   7.386   1.647 -0.0939  0.2770 -0.3927
   35MOL   C13338281   6.903   7.508   1.613 -0.3461  0.2023  0.1015
   35MOL   C13438282   7.019   7.535   1.710  0.3469 -0.7522  0.4360
   35MOL   N13538283   6.973   7.611   1.827 -0.7521 -0.6081 -0.0143
   35MOL   H13638284   6.164   6.307   0.827 -0.3427  3.6664 -0.9564
   35MOL   H13738285   6.315   6.360   0.887 -0.8262  1.0258 -0.3617
   35MOL   H13838286   6.226   6.294   0.611  1.2827  1.2571 -2.8259
   35MOL   H13938287   6.398   6.280   0.640 -2.0402 -3.0455 -0.8414
   35MOL   H14038288   6.337   6.499   0.544  1.8952 -2.4162 -1.1295
   35MOL   H14138289   6.227   6.514   0.672 -1.2514 -1.4497 -2.5740
   35MOL   H14238290   6.434   6.541   0.840  2.7058  0.6727  0.3746
   35MOL   H14338291   6.536   6.496   0.707  0.3372  2.5165 -1.7918
   35MOL   H14438292   6.494   6.701   0.588  2.2248  0.2321  0.2742
   35MOL   H14538293   6.378   6.748   0.693 -0.2266 -0.9469  2.0481
   35MOL   H14638294   6.616   6.840   0.746 -1.8205  0.5760 -0.9046
   35MOL   H14738295   6.658   6.691   0.821 -0.9292 -0.6969 -0.5096
   35MOL   H14838296   6.407   6.850   0.903 -0.1117 -1.5651 -0.5233
   35MOL   H14938297   6.476   6.714   0.968 -0.1778 -1.0175 -1.4909
   35MOL   H15038298   6.637   6.977   0.950  0.7073 -1.1088 -0.8972
   35MOL   H15138299   6.682   6.844   1.047  0.2141 -0.6815  1.0616
   35MOL   H15238300   6.500   6.870   1.203  1.5825  1.5374  2.2817
   35MOL   H15338301   6.423   6.997   1.103  1.4352  3.9939  1.5621
   35MOL   H15438302   6.578   7.162   1.148  0.5893 -0.0496  0.3872
   35MOL   H15538303   6.690   7.056   1.217 -0.5749  1.2160  0.8436
   35MOL   H15638304   6.462   7.277   1.312 -1.5826 -1.8232 -1.4377
   35MOL   H15738305   6.409   7.175   1.564  0.4965  0.5696  0.3314
   35MOL   H15838306   6.412   7.348   1.509  0.6001  0.7936 -0.1847
   35MOL   H15938307   6.649   7.177   1.620 -3.0023 -0.9691  2.6822
   35MOL   H16038308   6.575   7.309   1.700  1.5737  2.0694 -0.3993
   35MOL   H16138309   6.742   7.343   1.444  2.5923  2.1766  0.2531
   35MOL   H16238310   6.656   7.469   1.533 -0.5163 -0.4363  1.3483
   35MOL   H16338311   6.774   7.392   1.747 -0.4612 -2.3323 -0.3658
   35MOL   H16438312   6.869   7.291   1.634  2.9444  1.6703  1.1621
   35MOL   H16538313   6.855   7.606   1.609 -0.2298  0.2597  0.1192
   35MOL   H16638314   6.931   7.490   1.510 -0.6491  2.3948 -0.3849
   35MOL   H16738315   7.067   7.441   1.739  0.5389 -0.4993  0.9488
   35MOL   H16838316   7.078   7.596   1.643  0.8137 -0.3963  1.1700
   35MOL   H16938317   6.905   7.566   1.887  0.0096 -1.6456  0.0950
   35MOL   C17038318   7.004   0.051   1.848 -0.5028  0.2735  0.4505
   35MOL   O17138319   7.090   0.108   1.787  0.4135 -0.1306 -0.2319
   35MOL   C17238320   6.932   0.111   1.966 -0.4906 -0.0137 -0.5586
   35MOL   C17338321   7.006   0.236   2.036  0.6927  0.6379  0.2968
   35MOL   C17438322   7.081   0.203   2.163 -0.0697  0.5042 -0.1422
   35MOL   C17538323   6.997   0.172   2.286  1.1195  0.1956 -0.5736
   35MOL   C17638324   7.090   0.167   2.406  0.7253  0.2324 -0.0162
   35MOL   C17738325   7.025   0.133   2.539  0.5133 -0.8523 -0.0471
   35MOL   C17838326   6.960   7.686   2.536 -0.3954  0.0621  0.0128
   35MOL   C17938327   6.924   7.633   2.678 -0.2999 -0.0729  0.0092
   35MOL   C18038328   6.871   7.488   2.663  0.4200 -0.6145 -0.1403
   35MOL   C18138329   6.796   7.416   2.779 -0.2918  0.3159 -0.4667
   35MOL   C18238330   6.641   7.432   2.781 -0.1760 -0.8528  0.2542
   35MOL   O18338331   6.575   7.421   2.681 -0.2068  0.1760 -0.1489
   35MOL   N18438332   6.592   7.470   2.900 -0.1078 -0.1828 -0.4576
   35MOL   C18538333   6.449   7.485   2.933 -0.5529  0.0198  0.3646
   35MOL   C18638334   6.413   7.461   3.075 -0.4761  0.6089 -0.4559
   35MOL   C18738335   6.374   7.318   3.112  0.7249  0.1315 -0.0329
   35MOL   C18838336   6.370   7.313   3.263 -0.5078  0.2145 -0.1593
   35MOL   C18938337   6.508   7.266   3.317  0.5693 -0.6170 -0.2739
   35MOL   C19038338   6.501   7.253   3.473 -0.4061 -0.0659  0.1520
   35MOL   N19138339   6.405   7.151   3.505 -0.1818 -0.2904 -0.1312
   35MOL   H19238340   6.834   0.139   1.928 -0.6346 -1.6968 -1.5029
   35MOL   H19338341   6.922   0.026   2.034  1.0874  0.7571  0.6869
   35MOL   H19438342   6.936   0.316   2.063 -2.1098 -1.5995 -0.0303
   35MOL   H19538343   7.076   0.276   1.963 -0.4446 -2.6548 -2.7411
   35MOL   H19638344   7.148   0.286   2.184  0.1743  0.0726  0.7784
   35MOL   H19738345   7.150   0.119   2.150  0.2354  0.6830  0.3108
   35MOL   H19838346   6.915   0.241   2.309  0.2206 -0.6214 -1.2663
   35MOL   H19938347   6.945   0.077   2.275 -2.6271  1.9609  0.8269
   35MOL   H20038348   7.166   0.089   2.394 -0.2475 -0.8247  0.6024
   35MOL   H20138349   7.141   0.262   2.415  1.9444 -0.2056 -1.8833
   35MOL   H20238350   6.952   0.209   2.568 -0.1759 -0.9770 -1.3700
   35MOL   H20338351   7.113   0.134   2.603 -0.2637  0.2228  1.0402
   35MOL   H20438352   6.876   0.001   2.467 -0.2872  1.5321  0.0112
   35MOL   H20538353   7.025   7.612   2.490 -0.6773 -2.1487  3.0641
   35MOL   H20638354   7.014   7.620   2.738  0.1219  0.8509 -0.4254
   35MOL   H20738355   6.846   7.690   2.730  0.2296  0.0337  0.7005
   35MOL   H20838356   6.943   7.412   2.630  0.2654 -0.4375 -0.8992
   35MOL   H20938357   6.799   7.485   2.581 -0.3423 -0.7861  0.5347
   35MOL   H21038358   6.808   7.308   2.772 -0.8634  0.2907 -1.1406
   35MOL   H21138359   6.831   7.454   2.875 -2.0155 -0.2868  0.4171
   35MOL   H21238360   6.656   7.479   2.978  0.9798 -0.5604 -1.2982
   35MOL   H21338361   6.381   7.435   2.865 -1.1488  0.0878  0.9024
   35MOL   H21438362   6.442   7.593   2.920  1.4677  0.2124  0.7099
   35MOL   H21538363   6.500   7.491   3.134 -0.6950  2.2246 -0.9366
   35MOL   H21638364   6.327   7.519   3.110 -0.7995 -1.3736  2.2013
   35MOL   H21738365   6.273   7.302   3.073 -0.1957  1.2073  1.8327
   35MOL   H21838366   6.440   7.252   3.056 -1.4718 -0.6230 -1.8069
   35MOL   H21938367   6.301   7.231   3.282 -1.4196  0.4083 -2.4396
   35MOL   H22038368   6.334   7.404   3.311 -1.4996  0.6052 -1.5797
   35MOL   H22138369   6.590   7.336   3.297  1.3022 -1.1275  0.9095
   35MOL   H22238370   6.527   7.169   3.270 -0.3780 -0.7303 -0.4169
   35MOL   H22338371   6.475   7.352   3.511  0.9651 -0.0324  1.0734
   35MOL   H22438372   6.600   7.222   3.506  0.0792 -1.2143 -2.2562
   35MOL   H22538373   6.347   7.104   3.436  1.3634 -0.5813 -1.2467
   35MOL   C22638374   6.383   7.113   3.630  0.2623 -0.0968 -0.0712
   35MOL   O22738375   6.434   7.179   3.722 -0.3979 -0.3500 -0.1679
   35MOL   C22838376   6.315   6.978   3.657  0.1243  0.2010  0.2419
   35MOL   C22938377   6.304   6.933   3.806  0.2529  0.4056  0.4658
   35MOL   C23038378   6.174   6.987   3.877 -0.6295  0.0074 -0.4739
   35MOL   C23138379   6.048   6.920   3.834  0.4935  0.0752 -0.0807
   35MOL   C23238380   5.926   6.973   3.910 -0.0254  0.1668  0.0933
   35MOL   C23338381   5.798   6.896   3.880 -0.0336  0.8521 -0.1897
   35MOL   C23438382   5.675   6.936   3.964 -0.1318 -0.5121  0.8367
   35MOL   C23538383   5.535   6.885   3.913  0.6168  0.1164  0.4662
   35MOL   C23638384   5.492   6.980   3.799 -0.8064 -0.0080 -0.2442
   35MOL   C23738385   5.355   6.941   3.738 -0.6961  0.5817 -0.1630
   35MOL   C23838386   5.236   6.961   3.836 -0.1286  0.5253 -0.1874
   35MOL   O23938387   5.211   7.075   3.871 -0.2616 -0.0386  0.2752
   35MOL   N24038388   5.168   6.848   3.876 -0.3053 -0.1375  0.1154
   35MOL   C24138389   5.058   6.854   3.970 -0.0260 -0.0951 -0.4977
   35MOL   C24238390   5.105   6.835   4.114 -0.4082 -0.5333  0.2785
   35MOL   C24338391   5.182   6.952   4.177 -0.8840  0.8196  0.1715
   35MOL   C24438392   5.171   6.965   4.328  0.2477 -0.0353 -0.4717
   35MOL   C24538393   5.035   7.018   4.373 -0.7034 -0.0821  0.2104
   35MOL   C24638394   5.014   7.014   4.528 -0.6589  0.1633  0.4381
   35MOL   N24738395   4.944   7.128   4.574  0.4426 -0.0284 -0.4608
   35MOL   H24838396   6.357   6.900   3.594 -1.0161 -0.4048  0.2073
   35MOL   H24938397   6.211   6.964   3.624  0.0338  2.0586 -0.3426
   35MOL   H25038398   6.301   6.825   3.792  0.1649  0.7111 -2.2140
   35MOL   H25138399   6.393   6.960   3.863  0.7699  0.9085 -0.5471
   35MOL   H25238400   6.192   6.970   3.983 -1.3369  1.9417 -0.0345
   35MOL   H25338401   6.159   7.093   3.857 -1.1559  0.0460  0.1213
   35MOL   H25438402   6.057   6.815   3.863 -0.7074 -0.5969 -2.0439
   35MOL   H25538403   6.039   6.925   3.726  0.0649 -1.4087 -0.1195
   35MOL   H25638404   5.902   7.077   3.884  1.2573  0.3380 -0.4757
   35MOL   H25738405   5.957   6.979   4.014  1.6806 -0.1694 -0.3791
   35MOL   H25838406   5.766   6.910   3.777  0.5283  1.4910 -0.2776
   35MOL   H25938407   5.817   6.789   3.885  0.7038  1.0022  0.1748
   35MOL   H26038408   5.680   7.044   3.982  0.2628 -0.1568 -1.2354
   35MOL   H26138409   5.690   6.889   4.061  1.9750  0.2589  0.9018
   35MOL   H26238410   5.548   6.783   3.875 -0.1797  0.6448 -1.3208
   35MOL   H26338411   5.465   6.891   3.996  0.9433 -2.4365  0.9750
   35MOL   H26438412   5.480   7.085   3.825 -1.5840  0.2867 -1.7326
   35MOL   H26538413   5.543   6.966   3.704 -1.1047 -1.6492 -0.1878
   35MOL   H26638414   5.348   6.991   3.641 -1.1290  0.1790 -0.3463
   35MOL   H26738415   5.379   6.838   3.709 -0.5585  0.3657  0.7221
   35MOL   H26838416   5.184   6.764   3.821 -3.6724  0.4825 -1.9731
   35MOL   H26938417   4.990   6.777   3.932 -1.7124  1.7316 -1.2629
   35MOL   H27038418   5.007   6.950   3.961  0.8805  0.5066  0.6913
   35MOL   H27138419   5.154   6.739   4.125 -0.9770 -0.7798  0.7299
   35MOL   H27238420   5.005   6.836   4.157  0.5780 -1.3013  2.6719
   35MOL   H27338421   5.286   6.949   4.142 -0.7248 -0.0946  0.7138
   35MOL   H27438422   5.147   7.045   4.133  0.7055  0.9993 -0.7736
   35MOL   H27538423   5.252   7.023   4.373 -1.9192  0.2008  3.2508
   35MOL   H27638424   5.181   6.867   4.373  0.7364 -0.0610 -0.6301
   35MOL   H27738425   4.952   6.967   4.325 -0.9743  0.4380  0.1269
   35MOL   H27838426   5.032   7.121   4.337  1.1545 -0.0696  0.0486
   35MOL   H27938427   5.102   7.005   4.591 -0.9124 -3.2999  0.3998
   35MOL   H28038428   4.945   6.933   4.555 -0.0459  0.3021  2.4100
   35MOL   H28138429   4.996   7.194   4.631 -2.9713  0.1773  2.6128
   35MOL   C28238430   4.819   7.166   4.549  0.3266 -1.1510  0.2956
   35MOL   O28338431   4.742   7.098   4.480  0.0634  0.6495  0.5246
   35MOL   C28438432   4.756   7.293   4.607 -0.9730  0.3059  0.7073
   35MOL   C28538433   4.650   7.260   4.713  0.4399 -0.3830  0.4913
   35MOL   C28638434   4.679   7.161   4.820 -0.3299 -0.5685 -0.0039
   35MOL   C28738435   4.779   7.211   4.925  0.2118 -0.0029  0.3759
   35MOL   C28838436   4.918   7.149   4.924 -0.2241  1.0417  0.0398
   35MOL   C28938437   5.017   7.237   4.996 -0.2250  0.2407 -0.0107
   35MOL   C29038438   5.165   7.205   4.968 -0.0990 -0.3007  0.4825
   35MOL   C29138439   5.202   7.215   4.823 -0.2105 -0.0040  0.1950
   35MOL   C29238440   5.201   7.347   4.752  0.8377  0.0081 -0.1093
   35MOL   C29338441   5.275   7.366   4.621 -0.7409 -0.2081  0.5454
   35MOL   C29438442   5.346   7.502   4.604 -0.0451 -0.3735  0.0475
   35MOL   O29538443   5.454   7.526   4.661 -0.1516  0.6720  0.4281
   35MOL   N29638444   5.299   7.585   4.511 -0.1012 -0.0839  0.0318
   35MOL   C29738445   5.346   0.027   4.485  0.0303  0.3523 -0.4911
   35MOL   C29838446   5.238   0.110   4.418 -0.4997 -0.1459  0.6088
   35MOL   C29938447   5.291   0.255   4.391  0.1653  0.0872 -0.3220
   35MOL   C30038448   5.194   0.342   4.302 -0.1099  0.0731 -0.0030
   35MOL   C30138449   5.243   0.490   4.295  0.4346 -0.9886  0.7902
   35MOL   C30238450   5.154   0.571   4.201  0.2227  0.5870 -0.1778
   35MOL   N30338451   5.012   0.548   4.228 -0.3732 -0.2188  0.1938
   35MOL   H30438452   4.834   7.364   4.635 -0.8495  0.5935 -0.3367
   35MOL   H30538453   4.707   7.341   4.522 -0.2163  2.7036  1.5879
   35MOL   H30638454   4.554   7.237   4.666 -1.7264  0.9962  3.9861
   35MOL   H30738455   4.632   7.360   4.753  1.0562 -0.7084  1.6045
   35MOL   H30838456   4.579   7.158   4.864 -0.9602  0.5335 -1.2891
   35MOL   H30938457   4.686   7.057   4.788 -0.3466  0.1230 -2.3770
   35MOL   H31038458   4.725   7.200   5.019 -1.0704 -1.5975 -0.5037
   35MOL   H31138459   4.793   7.317   4.907 -1.1118 -0.1082 -1.4337
   35MOL   H31238460   4.911   7.051   4.970  0.8826  0.2364 -1.4542
   35MOL   H31338461   4.951   7.123   4.823  0.4969  0.4463  0.4282
   35MOL   H31438462   4.998   7.335   4.953  1.4584  0.3427 -0.5525
   35MOL   H31538463   4.995   7.246   5.102  1.8043 -1.7023  0.6286
   35MOL   H31638464   5.169   7.098   4.988 -1.1321 -0.5592 -0.6832
   35MOL   H31738465   5.235   7.247   5.040 -1.9778  0.1454  2.1127
   35MOL   H31838466   5.158   7.140   4.758 -3.7672 -0.1760  2.6969
   35MOL   H31938467   5.310   7.198   4.828 -0.0301  0.5280 -1.5547
   35MOL   H32038468   5.096   7.375   4.740  0.9782 -0.3728 -2.3786
   35MOL   H32138469   5.254   7.403   4.829 -1.0124 -3.5273  3.8647
   35MOL   H32238470   5.349   7.286   4.611 -1.1390 -0.5434  0.2708
   35MOL   H32338471   5.203   7.364   4.539  1.0540  1.2014 -1.1248
   35MOL   H32438472   5.208   7.570   4.470 -1.3348  1.3981  2.1256
   35MOL   H32538473   5.437   0.026   4.425  1.1737 -1.1756  1.2034
   35MOL   H32638474   5.363   0.080   4.578 -1.6588  1.7204 -0.9257
   35MOL   H32738475   5.148   0.096   4.478 -1.2412  2.2224  0.1021
   35MOL   H32838476   5.199   0.075   4.322  0.0419  1.5525 -0.2425
   35MOL   H32938477   5.394   0.256   4.354  0.2851  1.6516  0.0265
   35MOL   H33038478   5.292   0.316   4.481 -0.6382  1.6619 -1.3509
   35MOL   H33138479   5.172   0.301   4.203 -0.1390  0.2461 -0.0686
   35MOL   H33238480   5.099   0.347   4.355 -0.0381 -2.4080  0.4176
   35MOL   H33338481   5.349   0.497   4.274 -0.0733  0.9844 -1.3729
   35MOL   H33438482   5.232   0.537   4.393 -2.2905  0.9926 -0.3788
   35MOL   H33538483   5.171   0.677   4.216 -1.7335  0.5982  2.2455
   35MOL   H33638484   5.188   0.543   4.101 -1.5712 -0.7951 -0.4360
   35MOL   H33738485   4.973   0.578   4.316  2.6726 -1.2659  1.9594
   35MOL   C33838486   4.929   0.480   4.143  0.5150 -0.0250 -0.2048
   35MOL   O33938487   4.960   0.437   4.030  0.6208  0.1390  0.2776
   35MOL   C34038488   4.797   0.442   4.196  0.2989  0.5128 -0.0390
   35MOL   C34138489   4.699   0.424   4.077 -0.4321  0.0274  0.2702
   35MOL   C34238490   4.545   0.405   4.122  0.6751 -0.0843  0.5902
   35MOL   C34338491   4.448   0.414   4.005 -0.0212  0.5356  0.5433
   35MOL   C34438492   4.301   0.427   4.047 -0.1637 -0.1567 -0.6935
   35MOL   C34538493   4.199   0.398   3.936 -0.9075 -0.0011 -0.2937
   35MOL   C34638494   4.200   0.501   3.816  0.1419 -0.1937  0.1992
   35MOL   C34738495   4.088   0.599   3.839 -0.0197 -0.1711 -0.4421
   35MOL   C34838496   4.079   0.724   3.741 -0.7520 -0.1634 -1.1285
   35MOL   C34938497   3.970   0.822   3.775  0.2774 -0.0611  0.1967
   35MOL   C35038498   3.994   0.957   3.704  0.2685  0.4923 -0.0898
   35MOL   O35138499   4.106   1.001   3.684 -0.8580  0.1219  0.2272
   35MOL   N35238500   3.883   1.021   3.665 -0.2542  0.4295  0.3928
   35MOL   C35338501   3.879   1.157   3.624 -0.1462 -0.0087 -0.4536
   35MOL   C35438502   3.758   1.223   3.690 -0.0604  0.8357  0.0727
   35MOL   C35538503   3.618   1.169   3.646 -0.3299 -0.5200  0.2072
   35MOL   C35638504   3.505   1.227   3.737 -0.0779  0.4000 -0.6096
   35MOL   C35738505   3.372   1.178   3.676 -0.1737 -0.3844  0.8118
   35MOL   C35838506   3.257   1.180   3.781 -0.2703 -0.1325 -0.7237
   35MOL   N35938507   3.239   1.307   3.854 -0.1406  0.9898  0.1593
   35MOL   H36038508   4.759   0.515   4.267  0.7282  0.8030 -0.1025
   35MOL   H36138509   4.808   0.348   4.249 -1.2853 -1.1160 -2.4849
   35MOL   H36238510   4.702   0.518   4.022  1.5631 -0.9974 -1.4265
   35MOL   H36338511   4.730   0.337   4.020 -1.7072 -0.2775  0.0123
   35MOL   H36438512   4.521   0.477   4.200  1.9503 -1.0456  1.8845
   35MOL   H36538513   4.535   0.308   4.171  0.6093 -1.3654 -1.8586
   35MOL   H36638514   4.482   0.488   3.932 -3.7644 -0.5963 -2.4785
   35MOL   H36738515   4.456   0.316   3.959 -0.9368 -0.6296  2.7622
   35MOL   H36838516   4.275   0.357   4.126 -1.3907  2.3181  1.1574
   35MOL   H36938517   4.281   0.528   4.083 -1.4817 -0.8959  0.7070
   35MOL   H37038518   4.211   0.295   3.903 -0.0923  0.7285 -2.3935
   35MOL   H37138519   4.100   0.394   3.980 -0.6363 -0.6293  0.2724
   35MOL   H37238520   4.293   0.558   3.818 -0.3174  0.6009 -0.3963
   35MOL   H37338521   4.195   0.466   3.713  1.0884  0.5348 -0.1010
   35MOL   H37438522   3.993   0.546   3.828 -0.9096  0.6025  2.9043
   35MOL   H37538523   4.086   0.624   3.945  1.4128  0.4087 -0.5291
   35MOL   H37638524   4.067   0.693   3.637 -0.9958 -1.4553 -0.7163
   35MOL   H37738525   4.178   0.768   3.752 -1.9675  2.4056  0.0342
   35MOL   H37838526   3.872   0.781   3.751  0.1443 -0.0291  0.6621
   35MOL   H37938527   3.966   0.834   3.884  0.4680 -2.0555  0.4508
   35MOL   H38038528   3.796   0.972   3.681  0.3114  0.1779  2.7898
   35MOL   H38138529   3.853   1.162   3.518  0.2756 -1.2859 -0.6168
   35MOL   H38238530   3.975   1.207   3.631 -0.8506  1.2340  0.6142
   35MOL   H38338531   3.766   1.329   3.664 -0.6595  0.9983  0.5464
   35MOL   H38438532   3.766   1.214   3.798 -0.1949 -0.9469 -0.0495
   35MOL   H38538533   3.600   1.192   3.541 -2.3514  2.2752  1.1157
   35MOL   H38638534   3.618   1.060   3.655  0.8770 -0.4830  0.7163
   35MOL   H38738535   3.518   1.198   3.842 -1.1937  1.9572 -0.0203
   35MOL   H38838536   3.512   1.336   3.734  1.3427  0.4168  1.6442
   35MOL   H38938537   3.377   1.072   3.651 -0.8978  0.0239 -1.0916
   35MOL   H39038538   3.349   1.234   3.586 -1.1466  0.4438  1.5662
   35MOL   H39138539   3.168   1.145   3.729 -0.4823  1.6598 -1.5852
   35MOL   H39238540   3.282   1.099   3.850  0.4833  0.0101 -0.8271
   35MOL   H39338541   3.199   1.384   3.803 -0.5174  0.5943 -0.1542
   35MOL   C39438542   3.277   1.319   3.983  0.7505 -0.2106 -0.2940
   35MOL   O39538543   3.325   1.227   4.051 -0.4864  0.2063  0.0496
   35MOL   C39638544   3.252   1.452   4.049 -0.5770  0.1712  0.2920
   35MOL   C39738545   3.380   1.546   4.050 -0.0861  0.2403  0.1199
   35MOL   C39838546   3.427   1.601   3.910 -0.5637  0.4961 -0.1580
   35MOL   C39938547   3.535   1.701   3.919 -0.3919 -0.5642  0.0864
   35MOL   C40038548   3.672   1.649   3.974 -0.0522 -0.5012 -0.5173
   35MOL   C40138549   3.753   1.550   3.889 -0.3534 -0.7089 -0.9078
   35MOL   C40238550   3.897   1.539   3.941 -0.2385 -0.0835  0.2878
   35MOL   C40338551   3.984   1.436   3.861 -0.0347  0.0703 -0.6461
   35MOL   C40438552   4.131   1.423   3.898  0.2945  0.4003 -0.6556
   35MOL   C40538553   4.208   1.329   3.817 -0.6699  0.8166 -0.1524
   35MOL   C40638554   4.261   1.385   3.684 -0.5004  0.0286  0.8688
   35MOL   O40738555   4.319   1.491   3.673  0.0580 -0.0148  0.0986
   35MOL   N40838556   4.262   1.292   3.589  0.2715  0.4063  0.4410
   35MOL   C40938557   4.322   1.313   3.457 -0.0529  0.3800  0.2503
   35MOL   C41038558   4.221   1.285   3.349 -0.0733  0.0768 -0.2493
   35MOL   C41138559   4.090   1.368   3.362 -0.2002 -0.0342  0.1852
   35MOL   C41238560   3.971   1.310   3.282 -0.3654 -0.3810 -0.4347
   35MOL   C41338561   3.829   1.365   3.304 -0.5946 -0.1483 -0.0834
   35MOL   C41438562   3.718   1.294   3.225  0.6390  0.1352 -0.2478
   35MOL   N41538563   3.718   1.146   3.246 -0.1714 -0.2938  0.8091
   35MOL   H41638564   3.216   1.436   4.150  2.1423 -0.2721  1.2352
   35MOL   H41738565   3.172   1.507   3.999 -1.5115  1.3874  3.0396
   35MOL   H41838566   3.466   1.496   4.093 -1.0516 -1.6230 -0.0575
   35MOL   H41938567   3.351   1.627   4.116  2.1539  1.3987 -0.2937
   35MOL   H42038568   3.351   1.639   3.841 -0.4444  1.7358  0.3645
   35MOL   H42138569   3.467   1.508   3.869 -1.0142 -1.1635  3.0547
   35MOL   H42238570   3.498   1.777   3.988  1.0462  0.5520 -0.3449
   35MOL   H42338571   3.557   1.748   3.823 -2.7454 -0.9160 -0.6451
   35MOL   H42438572   3.727   1.743   3.981 -0.9354  0.2264 -2.7743
   35MOL   H42538573   3.661   1.600   4.070  1.1477  1.2094  0.5296
   35MOL   H42638574   3.700   1.455   3.890  1.0472 -1.5338 -2.0832
   35MOL   H42738575   3.762   1.577   3.784  0.3309  3.0468  0.0233
   35MOL   H42838576   3.930   1.643   3.941 -3.0929  0.8633  0.5192
   35MOL   H42938577   3.885   1.511   4.045  0.0570 -0.5503  0.1966
   35MOL   H43038578   3.944   1.338   3.888  2.6879 -0.7770  0.5426
   35MOL   H43138579   3.976   1.454   3.754  2.6999  1.1762 -0.7058
   35MOL   H43238580   4.143   1.400   4.004 -2.6069  3.1090  0.3362
   35MOL   H43338581   4.180   1.521   3.897  0.3230  0.3920 -0.2890
   35MOL   H43438582   4.294   1.297   3.876 -0.8524 -0.5381 -0.5948
   35MOL   H43538583   4.165   1.231   3.797  0.7156  0.3337 -0.8214
   35MOL   H43638584   4.215   1.202   3.594  0.2563  0.2355 -2.1729
   35MOL   H43738585   4.397   1.234   3.444 -1.0681 -0.4786 -0.5073
   35MOL   H43838586   4.374   1.408   3.441 -0.7037  0.4855 -1.3677
   35MOL   H43938587   4.207   1.178   3.357 -0.6538 -0.0353 -2.3393
   35MOL   H44038588   4.248   1.306   3.245 -0.2856 -0.7863 -0.4828
   35MOL   H44138589   4.055   1.380   3.465  0.9088  1.5291  0.3956
   35MOL   H44238590   4.091   1.467   3.317 -2.1125  0.0445  0.2764
   35MOL   H44338591   4.009   1.316   3.179 -0.0040 -0.3330 -0.2989
   35MOL   H44438592   3.955   1.202   3.290 -1.8856 -0.2098 -1.0127
   35MOL   H44538593   3.805   1.362   3.410  0.5828 -0.2381  0.1836
   35MOL   H44638594   3.825   1.471   3.278 -0.2501 -0.0631  0.2130
   35MOL   H44738595   3.620   1.338   3.246  1.0181  1.3463 -0.9451
   35MOL   H44838596   3.726   1.306   3.117 -0.8976  0.2188 -0.3572
   35MOL   H44938597   3.797   1.089   3.220 -0.5898 -0.5042 -0.0230
   35MOL   C45038598   3.613   1.083   3.289  0.9348 -0.2900  0.0426
   35MOL   O45138599   3.503   1.132   3.312  0.2073  0.2748  0.8077
   35MOL   C45238600   3.644   0.941   3.321  0.1108 -0.8634 -0.0004
   35MOL   C45338601   3.518   0.851   3.320  0.9511 -0.2696  0.9158
   35MOL   C45438602   3.555   0.702   3.365 -0.6266  0.0165 -0.2170
   35MOL   C45538603   3.453   0.596   3.320 -0.2141 -0.7075  0.2189
   35MOL   C45638604   3.483   0.468   3.389  0.5155 -0.0038  0.1799
   35MOL   C45738605   3.469   0.341   3.300  0.3279  0.4917  0.2021
   35MOL   C45838606   3.574   0.329   3.190 -0.2138 -0.0358  0.0899
   35MOL   C45938607   3.509   0.238   3.079 -0.2658 -0.0717 -0.1357
   35MOL   C46038608   3.610   0.217   2.970  0.3726 -0.0815  0.4860
   35MOL   C46138609   3.615   0.341   2.885  0.0647 -0.0279 -0.2745
   35MOL   C46238610   3.713   0.320   2.767 -0.0560 -0.3011  0.4852
   35MOL   O46338611   3.699   0.227   2.684 -0.3041 -0.6794 -0.1454
   35MOL   N46438612   3.816   0.408   2.764  0.3400  0.1927  1.0329
   35MOL   C46538613   3.879   0.431   2.636 -0.5887  0.0275 -0.1699
   35MOL   C46638614   3.795   0.529   2.552 -0.4190  0.8022 -0.0131
   35MOL   C46738615   3.860   0.545   2.419 -0.1202 -0.3832 -0.7427
   35MOL   C46838616   3.767   0.613   2.310  0.4147  0.0866 -0.0025
   35MOL   C46938617   3.836   0.635   2.172  0.1948  0.9248 -0.5580
   35MOL   C47038618   3.746   0.708   2.077  0.2382 -0.1018 -0.8175
   35MOL   N47138619   3.811   0.726   1.953 -0.2481 -0.1122 -0.4477
   35MOL   H47238620   3.708   0.891   3.248  0.6927 -0.2939  0.1183
   35MOL   H47338621   3.688   0.952   3.420  1.0585 -0.8786 -0.4106
   35MOL   H47438622   3.495   0.845   3.214 -2.4606  2.5420  1.4049
   35MOL   H47538623   3.424   0.885   3.364  1.9347 -0.6332  3.3885
   35MOL   H47638624   3.573   0.693   3.472  0.0105  0.0859 -0.3158
   35MOL   H47738625   3.646   0.670   3.313 -1.1848  0.3495 -1.4186
   35MOL   H47838626   3.450   0.566   3.216  0.7684  0.5270 -0.1674
   35MOL   H47938627   3.353   0.627   3.351  0.0137 -0.6737  0.9491
   35MOL   H48038628   3.422   0.447   3.478  0.8351  1.0234  0.6445
   35MOL   H48138629   3.587   0.471   3.421  0.0594  1.5372  1.5743
   35MOL   H48238630   3.371   0.339   3.253  0.7022 -2.8298 -0.6032
   35MOL   H48338631   3.477   0.250   3.359  2.3809  0.1970 -0.4928
   35MOL   H48438632   3.590   0.431   3.155  0.7263 -0.2803 -0.1880
   35MOL   H48538633   3.666   0.283   3.226 -0.3878 -0.5426 -0.1075
   35MOL   H48638634   3.486   0.139   3.117  1.3061 -0.7127 -0.7910
   35MOL   H48738635   3.418   0.280   3.036 -1.4871 -2.0873  0.4176
   35MOL   H48838636   3.572   0.137   2.905  0.5946 -0.0915  0.3679
   35MOL   H48938637   3.714   0.198   2.997  0.0343 -0.4460  1.5755
   35MOL   H49038638   3.515   0.365   2.847  0.8464  1.1741 -1.6168
   35MOL   H49138639   3.639   0.431   2.941 -2.6418 -0.7457  2.1587
   35MOL   H49238640   3.831   0.482   2.831 -0.9008  1.0899  0.3577
   35MOL   H49338641   3.885   0.336   2.583  0.7607  0.1241 -0.2091
   35MOL   H49438642   3.980   0.471   2.648 -0.2972 -0.6890 -0.2114
   35MOL   H49538643   3.696   0.490   2.530 -0.0592 -0.1746  0.0438
   35MOL   H49638644   3.770   0.626   2.595 -0.2780  1.0942 -0.5859
   35MOL   H49738645   3.895   0.451   2.375  0.4811  0.4368 -2.0507
   35MOL   H49838646   3.952   0.601   2.436  0.4998 -2.0522  1.6744
   35MOL   H49938647   3.731   0.710   2.344  0.6239 -0.0548  0.6409
   35MOL   H50038648   3.693   0.535   2.292  0.6066  0.3208 -1.9154
   35MOL   H50138649   3.933   0.681   2.189  0.4595  0.3415 -0.4641
   35MOL   H50238650   3.865   0.534   2.142 -2.0084 -0.4703  1.8416
   35MOL   H50338651   3.664   0.642   2.051 -0.1300  0.0481 -0.0408
   35MOL   H50438652   3.714   0.803   2.119 -1.8566 -1.2360  0.1791
   35MOL   H50538653   3.824   0.647   1.891 -1.8644  0.0731 -1.0358
   35MOL   C50638654   3.882   0.838   1.923  0.2335  0.9370  0.6171
   35MOL   O50738655   3.880   0.940   1.986 -0.1279 -0.3581  0.3593
   35MOL   C50838656   3.960   0.828   1.787  0.1980 -0.1248 -0.0481
   35MOL   C50938657   4.078   0.928   1.783  0.7608 -0.5183 -0.0513
   35MOL   C51038658   4.160   0.939   1.652 -0.5731  0.3174 -0.0389
   35MOL   C51138659   4.284   1.029   1.655 -0.4808  0.4990  0.4779
   35MOL   C51238660   4.367   1.021   1.783  0.5356 -0.0100  0.1363
   35MOL   C51338661   4.494   1.113   1.780 -0.1085 -0.5944 -0.2261
   35MOL   C51438662   4.455   1.261   1.775  0.1063 -0.2237 -1.3065
   35MOL   C51538663   4.579   1.354   1.803  0.1412  0.3280  0.0555
   35MOL   C51638664   4.540   1.502   1.809 -0.3469  0.1448 -0.0109
   35MOL   C51738665   4.646   1.600   1.868  0.6387 -0.0278  0.3958
   35MOL   C51838666   4.574   1.729   1.920 -0.4881 -0.3156  0.8318
   35MOL   O51938667   4.476   1.773   1.866  0.2088 -0.2740  0.1237
   35MOL   N52038668   4.633   1.786   2.021 -0.3671  0.5873  0.1709
   35MOL   C52138669   4.603   1.923   2.068 -0.2169 -0.1050 -0.0022
   35MOL   C52238670   4.708   2.025   2.026  0.1649 -1.3156  0.1832
   35MOL   C52338671   4.701   2.081   1.885  0.4549 -0.5836  0.0154
   35MOL   C52438672   4.815   2.158   1.831 -0.5410  0.0372  0.2897
   35MOL   C52538673   4.791   2.200   1.688  1.3370 -0.0488 -0.1410
   35MOL   C52638674   4.908   2.281   1.638  0.0677  0.2105  0.0847
   35MOL   N52738675   4.900   2.331   1.507  0.4462 -0.6430  0.6601
   35MOL   H52838676   3.900   0.859   1.701  3.2445 -0.1273 -2.2351
   35MOL   H52938677   4.001   0.730   1.763 -0.4932  0.2361 -2.9044
   35MOL   H53038678   4.142   0.901   1.867  2.3429  1.9798 -0.3757
   35MOL   H53138679   4.040   1.026   1.813  1.2395 -0.2706 -0.2365
   35MOL   H53238680   4.096   0.983   1.575  0.2102 -3.1262 -2.8140
   35MOL   H53338681   4.178   0.833   1.636 -1.8056 -0.1294  1.4608
   35MOL   H53438682   4.351   1.001   1.574 -0.5722  2.4252 -0.2832
   35MOL   H53538683   4.257   1.132   1.632 -0.6332  0.5123  0.7137
   35MOL   H53638684   4.300   1.025   1.869  0.2742 -0.2118 -0.0561
   35MOL   H53738685   4.401   0.918   1.786  0.6541  0.0347  0.4010
   35MOL   H53838686   4.538   1.114   1.880 -0.6350 -3.5186  0.0785
   35MOL   H53938687   4.564   1.085   1.702  0.9595  1.4260 -0.0502
   35MOL   H54038688   4.417   1.289   1.676  0.7678  1.0219 -1.2142
   35MOL   H54138689   4.384   1.296   1.850  2.2822 -0.7378  1.0394
   35MOL   H54238690   4.620   1.324   1.899 -0.8441  0.5446  0.5478
   35MOL   H54338691   4.651   1.335   1.723  0.8228 -0.3879  0.8337
   35MOL   H54438692   4.447   1.494   1.865  0.6314  0.9918  1.7848
   35MOL   H54538693   4.501   1.529   1.711  0.2363 -1.3853 -0.6803
   35MOL   H54638694   4.701   1.556   1.952  0.0124 -0.1313  0.7536
   35MOL   H54738695   4.714   1.632   1.790 -0.7035  1.0307 -0.3649
   35MOL   H54838696   4.696   1.732   2.079 -1.2074 -0.5794  0.0074
   35MOL   H54938697   4.594   1.913   2.176 -1.2708  1.6779  0.1048
   35MOL   H55038698   4.507   1.965   2.035 -0.2510 -1.2765 -1.4552
   35MOL   H55138699   4.808   1.982   2.020  1.2191  1.3474 -4.0956
   35MOL   H55238700   4.718   2.102   2.103  0.3713 -2.2457  1.0958
   35MOL   H55338701   4.609   2.139   1.875  0.1690 -0.6401  2.0118
   35MOL   H55438702   4.681   2.006   1.809  1.3187 -0.6338 -0.1682
   35MOL   H55538703   4.909   2.104   1.840 -2.1455 -2.6068  1.6337
   35MOL   H55638704   4.817   2.245   1.898  2.1559 -0.6883  1.2017
   35MOL   H55738705   4.774   2.114   1.623  0.0831 -1.7232  2.2983
   35MOL   H55838706   4.713   2.270   1.660  0.3403 -1.4496 -0.9721
   35MOL   H55938707   4.919   2.368   1.703 -0.6435 -0.3733  1.0036
   35MOL   H56038708   4.991   2.212   1.655 -0.5190  0.1130  2.7288
   35MOL   H56138709   4.880   2.428   1.487 -0.0847 -1.1265 -1.2985
   35MOL   C56238710   4.927   2.256   1.402  0.3235  0.5801  0.3423
   35MOL   O56338711   4.940   2.130   1.416  0.3007 -0.1476 -0.0355
   35MOL   C56438712   4.949   2.324   1.264  0.2085 -0.1648 -0.6260
   35MOL   C56538713   5.056   2.244   1.180 -0.2858  0.4784 -0.2849
   35MOL   C56638714   5.023   2.099   1.139  0.1930 -0.6678 -0.2010
   35MOL   C56738715   5.123   2.046   1.038 -0.1591  0.1755 -0.2564
   35MOL   C56838716   5.096   1.898   0.999 -0.4442  0.4023  0.2188
   35MOL   C56938717   5.185   1.844   0.895  0.9524 -1.1396 -0.0713
   35MOL   C57038718   5.200   1.692   0.883 -0.4942  0.1982 -0.7634
   35MOL   C57138719   5.330   1.645   0.818 -0.5435 -0.3835  0.4853
   35MOL   C57238720   5.356   1.492   0.794 -0.1510  0.9774  0.5017
   35MOL   C57338721   5.508   1.463   0.783 -0.2082 -0.1876 -0.2025
   35MOL   C57438722   5.568   1.519   0.653  0.0358 -0.2061  0.1462
   35MOL   O57538723   5.498   1.571   0.574  0.3705 -0.4722  0.3722
   35MOL   N57638724   5.703   1.500   0.625 -0.5716  0.3119  0.1182
   35MOL   C57738725   5.777   1.549   0.511  0.0264 -0.1722  0.0124
   35MOL   C57838726   5.890   1.454   0.471  0.3325  0.1381 -0.2352
   35MOL   C57938727   6.003   1.445   0.571 -0.4089  0.9543 -1.3557
   35MOL   C58038728   6.100   1.333   0.538 -0.2111 -0.3212 -0.0466
   35MOL   C58138729   6.198   1.281   0.648  0.1695 -0.5801 -0.1308
   35MOL   C58238730   6.117   1.254   0.778  0.4921  0.1977 -0.4016
   35MOL   N58338731   6.197   1.199   0.878  0.2135 -0.3403 -0.1234
   35MOL   H58438732   4.856   2.343   1.211  0.8786  1.8549 -1.0903
   35MOL   H58538733   4.996   2.419   1.290 -0.9949  0.3474 -0.2972
   35MOL   H58638734   5.058   2.303   1.089  1.4757  0.2595 -0.4038
   35MOL   H58738735   5.147   2.249   1.240 -1.1271 -0.0968  1.0654
   35MOL   H58838736   4.919   2.089   1.107  0.1012 -2.0946  0.5061
   35MOL   H58938737   5.031   2.025   1.219  0.9974  0.7467  1.0613
   35MOL   H59038738   5.122   2.102   0.944  1.2256 -0.4952 -0.6795
   35MOL   H59138739   5.220   2.054   1.087  0.0985 -0.5197 -0.6447
   35MOL   H59238740   5.118   1.831   1.082  1.4206 -0.0322 -0.6007
   35MOL   H59338741   4.995   1.882   0.962 -0.2744 -1.7232  0.6060
   35MOL   H59438742   5.173   1.888   0.796  1.5188  1.8454  1.1204
   35MOL   H59538743   5.284   1.882   0.920  0.8189  0.6682 -2.1447
   35MOL   H59638744   5.183   1.647   0.981 -1.6775 -1.1505 -1.5625
   35MOL   H59738745   5.120   1.643   0.828 -0.2264 -0.8993 -0.2004
   35MOL   H59838746   5.411   1.679   0.884  0.4582 -0.2941 -0.7759
   35MOL   H59938747   5.350   1.706   0.730  0.2587  0.6702  1.3800
   35MOL   H60038748   5.302   1.459   0.705  2.1832  0.9309 -0.9230
   35MOL   H60138749   5.313   1.442   0.881 -2.0510 -2.3099 -2.2436
   35MOL   H60238750   5.571   1.495   0.866 -0.2830 -1.3037  0.2992
   35MOL   H60338751   5.523   1.355   0.774  2.2415  0.1047  0.0444
   35MOL   H60438752   5.763   1.442   0.682 -0.4512 -0.9736 -1.2917
   35MOL   H60538753   5.833   1.639   0.538 -0.6939  0.8222 -1.7645
   35MOL   H60638754   5.719   1.580   0.424 -0.1290  0.6779  0.4068
   35MOL   H60738755   5.917   1.498   0.375 -0.5182  1.8201  0.2839
   35MOL   H60838756   5.851   1.356   0.445 -0.3780  0.7402 -1.5290
   35MOL   H60938757   5.961   1.425   0.669 -0.4178 -0.4682 -1.6475
   35MOL   H61038758   6.058   1.538   0.585  0.9878 -0.3909  2.6179
   35MOL   H61138759   6.046   1.244   0.507 -3.3706  1.5722 -0.0906
   35MOL   H61238760   6.152   1.356   0.445  0.2748 -2.0689 -0.2305
   35MOL   H61338761   6.271   1.359   0.669  2.1880 -1.8401 -2.2995
   35MOL   H61438762   6.260   1.201   0.609  0.9531 -1.0722  2.0651
   35MOL   H61538763   6.062   1.339   0.819  2.0903  0.3114  1.6116
   35MOL   H61638764   6.057   1.166   0.753 -3.1467  2.0293  1.4561
   35MOL   H61738765   6.192   1.098   0.888  2.9388 -0.5372 -0.3725
   35MOL   C61838766   6.278   1.271   0.958  0.2785 -0.3283  0.2209
   35MOL   O61938767   6.286   1.392   0.942 -0.4371 -0.2555 -0.4632
   35MOL   C62038768   6.355   1.199   1.069 -1.1091  0.1852  0.3833
   35MOL   C62138769   6.382   1.278   1.196 -0.5864 -0.1606  0.1477
   35MOL   C62238770   6.271   1.299   1.295  0.5644  0.7123 -0.5970
   35MOL   C62338771   6.331   1.387   1.406  0.6817  1.0152  0.9841
   35MOL   C62438772   6.235   1.439   1.520 -0.6751 -0.0903 -0.0687
   35MOL   C62538773   6.162   1.326   1.590  0.3005 -0.6199 -0.2379
   35MOL   C62638774   6.077   1.358   1.719  0.1474  0.8561 -0.1965
   35MOL   C62738775   6.037   1.218   1.782  0.6112 -0.3564  1.0662
   35MOL   C62838776   5.940   1.223   1.897 -0.2748  0.0972  0.4833
   35MOL   C62938777   5.950   1.109   2.003  0.3776 -0.4456  0.0355
   35MOL   C63038778   5.919   0.962   1.957 -0.4920  0.0130  0.1619
   35MOL   O63138779   5.978   0.917   1.858  0.4346  0.5864 -0.6120
   35MOL   N63238780   5.818   0.900   2.021  0.1415  0.5466  0.2077
   35MOL   C63338781   5.758   0.768   1.988  0.4675 -0.9351  0.5752
   35MOL   C63438782   5.620   0.786   1.922 -0.5478 -0.4815  0.2823
   35MOL   C63538783   5.502   0.809   2.019 -0.2423 -0.5098 -1.0218
   35MOL   C63638784   5.364   0.814   1.956  0.2262  0.5202  0.0951
   35MOL   C63738785   5.319   0.684   1.899 -0.0283 -0.3179 -0.4777
   35MOL   C63838786   5.167   0.677   1.863 -0.3213  0.4487 -0.7745
   35MOL   N63938787   5.155   0.554   1.782 -0.7272 -0.8679 -0.2242
   35MOL   H64038788   6.454   1.172   1.032 -0.7160 -1.3762  2.4854
   35MOL   H64138789   6.310   1.104   1.099 -0.7374  0.3774  1.5711
   35MOL   H64238790   6.424   1.374   1.166  0.6774 -1.1355 -1.3498
   35MOL   H64338791   6.467   1.231   1.246 -0.5567 -0.9801 -0.6412
   35MOL   H64438792   6.232   1.203   1.327 -0.3664  0.6629 -1.8638
   35MOL   H64538793   6.189   1.355   1.250 -0.9837  0.6787  2.0795
   35MOL   H64638794   6.412   1.323   1.439 -1.3182 -1.9047  0.4460
   35MOL   H64738795   6.380   1.475   1.363  2.3841 -0.9470 -1.2373
   35MOL   H64838796   6.299   1.492   1.590  0.3491 -1.1790 -0.1737
   35MOL   H64938797   6.167   1.509   1.472  0.9197  2.8840  1.8180
   35MOL   H65038798   6.238   1.255   1.624  0.7458  0.7239  1.6093
   35MOL   H65138799   6.104   1.272   1.515 -1.1634 -1.7997  1.7024
   35MOL   H65238800   6.139   1.419   1.785  0.9682 -0.8721  0.6526
   35MOL   H65338801   5.986   1.413   1.694 -1.8507 -1.8573  0.9030
   35MOL   H65438802   6.005   1.147   1.705  2.1423  0.8345 -0.7122
   35MOL   H65538803   6.127   1.170   1.819  0.0229 -1.5675  0.9648
   35MOL   H65638804   5.836   1.230   1.867 -0.4688  0.1940  1.1735
   35MOL   H65738805   5.940   1.320   1.946  1.2039  1.3512 -1.9133
   35MOL   H65838806   6.049   1.110   2.048 -0.6111  1.7177  2.3299
   35MOL   H65938807   5.896   1.147   2.090  2.0547  1.9570  0.0645
   35MOL   H66038808   5.774   0.958   2.090 -1.3159  0.2940 -0.4915
   35MOL   H66138809   5.820   0.711   1.919  2.1203 -0.5884  1.7406
   35MOL   H66238810   5.736   0.710   2.077  0.1867 -1.3093  0.2673
   35MOL   H66338811   5.592   0.696   1.868  0.8839 -1.0622  0.4742
   35MOL   H66438812   5.617   0.871   1.853  2.0871 -0.3908  0.2312
   35MOL   H66538813   5.524   0.734   2.095 -0.1867  0.6226  0.0920
   35MOL   H66638814   5.506   0.906   2.070 -0.9414 -0.7385 -0.5213
   35MOL   H66738815   5.360   0.875   1.866 -0.9016 -0.1864 -0.3553
   35MOL   H66838816   5.292   0.862   2.021 -0.9515  0.7150 -1.3148
   35MOL   H66938817   5.370   0.662   1.805  0.3542  0.2746 -0.4153
   35MOL   H67038818   5.342   0.597   1.959  0.8207  0.5411  0.4612
   35MOL   H67138819   5.123   0.679   1.963  0.7025  0.1277 -0.3108
   35MOL   H67238820   5.129   0.762   1.807 -1.9719 -0.6417 -1.3480
   35MOL   H67338821   5.173   0.545   1.683  1.2702 -2.8473  0.2742
   35MOL   C67438822   5.111   0.441   1.835  0.1848  0.2654  0.3431
   35MOL   O67538823   5.073   0.423   1.954  0.8766 -0.0549 -0.4543
   35MOL   C67638824   5.106   0.318   1.736 -0.5574 -0.3219 -0.2645
   35MOL   C67738825   4.965   0.289   1.689 -0.7324 -0.0365  0.1413
   35MOL   C67838826   4.920   0.390   1.578 -0.4032  0.1540  0.0792
   35MOL   C67938827   5.007   0.420   1.448 -0.1301 -0.6821 -0.0501
   35MOL   C68038828   5.076   0.300   1.383 -0.2358  0.2812 -0.0066
   35MOL   C68138829   5.174   0.341   1.271 -0.5259 -0.1688  0.1947
   35MOL   C68238830   5.236   0.223   1.200 -0.5494 -0.3276  0.0133
   35MOL   C68338831   5.334   0.273   1.087  0.1882  0.8388 -0.0857
   35MOL   C68438832   5.405   0.158   1.009  0.2119 -0.2049 -0.1889
   35MOL   C68538833   5.514   0.096   1.083 -0.2089  0.6609 -0.3896
   35MOL   C68638834   5.570   7.670   1.007 -0.3617 -0.4156 -0.2807
   35MOL   O68738835   5.507   7.602   0.923 -0.5621  0.9054 -0.0220
   35MOL   N68838836   5.697   7.635   1.039 -0.0671  0.0113  0.1019
   35MOL   C68938837   5.780   7.535   0.973  0.7072  0.7898 -0.2634
   35MOL   C69038838   5.793   7.558   0.820  0.5340 -0.6808  0.4408
   35MOL   C69138839   5.898   7.463   0.763 -0.0170  0.4708 -0.4929
   35MOL   C69238840   5.915   7.482   0.613  0.5229  0.4941 -0.1611
   35MOL   C69338841   6.016   7.377   0.557  0.1509  1.0065  0.2966
   35MOL   C69438842   6.160   7.356   0.618 -0.3252  0.1471 -0.3301
   35MOL   N69538843   6.225   7.476   0.580 -0.8364  0.3904  0.7829
   35MOL   H69638844   5.142   0.231   1.791 -0.0470  0.3798  0.5170
   35MOL   H69738845   5.180   0.327   1.657 -1.6525  1.8262 -1.1127
   35MOL   H69838846   4.898   0.282   1.774  0.0664 -2.1535  0.6181
   35MOL   H69938847   4.972   0.190   1.645 -0.2416  0.5174 -1.0656
   35MOL   H70038848   4.821   0.353   1.551 -0.0676 -0.1488 -0.7533
   35MOL   H70138849   4.887   0.478   1.632  0.6242 -0.9187  2.5152
   35MOL   H70238850   5.075   0.505   1.459  2.8329 -3.3335  3.4650
   35MOL   H70338851   4.941   0.455   1.368 -0.0943  1.8437  0.9733
   35MOL   H70438852   4.995   0.237   1.348  0.0268 -0.2588  0.3625
   35MOL   H70538853   5.132   0.242   1.456  0.7370  0.5005 -0.5752
   35MOL   H70638854   5.126   0.413   1.206  1.0234 -1.0709 -2.0056
   35MOL   H70738855   5.257   0.391   1.321 -0.3889  1.6651 -1.8262
   35MOL   H70838856   5.292   0.161   1.270  1.7717  1.4593 -0.1817
   35MOL   H70938857   5.160   0.159   1.157 -0.2784 -0.7818  0.2079
   35MOL   H71038858   5.276   0.337   1.020  1.2300  1.5664 -0.3052
   35MOL   H71138859   5.413   0.334   1.129  1.4004 -0.7582  0.0005
   35MOL   H71238860   5.460   0.183   0.918  1.8142  3.5059  1.6749
   35MOL   H71338861   5.321   0.092   0.986 -0.9698  0.8096  1.0967
   35MOL   H71438862   5.590   0.172   1.097 -0.4388  0.7391  0.4621
   35MOL   H71538863   5.479   0.067   1.182 -0.3787 -1.4957 -1.0615
   35MOL   H71638864   5.743   7.690   1.110  1.1709 -1.6329  0.5938
   35MOL   H71738865   5.877   7.549   1.022  0.5911  0.4798  0.0595
   35MOL   H71838866   5.752   7.430   0.984  1.9051  0.5061  0.1942
   35MOL   H71938867   5.820   7.659   0.791 -0.6021 -0.4027  0.3238
   35MOL   H72038868   5.702   7.537   0.763  0.4094 -0.2027  0.4559
   35MOL   H72138869   5.995   7.484   0.808 -0.7506  0.9372  0.9166
   35MOL   H72238870   5.874   7.364   0.802  2.4561 -0.2583 -0.7361
   35MOL   H72338871   5.951   7.583   0.598  0.5764  0.4466 -0.3582
   35MOL   H72438872   5.816   7.464   0.570 -0.2062  1.7449  0.9569
   35MOL   H72538873   6.034   7.400   0.452  0.7176  1.1038  0.4138
   35MOL   H72638874   5.960   7.284   0.557  3.0823 -0.8711 -2.5536
   35MOL   H72738875   6.153   7.344   0.726 -1.1794 -1.0269 -0.5088
   35MOL   H72838876   6.214   7.272   0.574  2.3411  0.8702  1.4475
   35MOL   H72938877   6.221   7.486   0.480  0.5120 -2.7139  0.3552
   35MOL   C73038878   6.289   7.561   0.655 -0.7267 -0.1751  0.0440
   35MOL   O73138879   6.301   7.545   0.774  0.2258  0.0119  0.2488
   35MOL   C73238880   6.346   7.691   0.599 -0.3599  0.1760  0.1331
   35MOL   C73338881   6.498   0.024   0.617 -0.2936 -0.9701  0.3157
   35MOL   C73438882   6.543   0.083   0.751 -0.3048 -0.7058  0.1547
   35MOL   C73538883   6.480   0.220   0.787  0.3250  0.4800  0.3631
   35MOL   C73638884   6.512   0.268   0.930  0.3354  0.5591 -0.0529
   35MOL   C73738885   6.454   0.407   0.958 -0.3334  0.2786  0.1603
   35MOL   C73838886   6.489   0.467   1.097 -0.3289  0.1792 -0.9962
   35MOL   C73938887   6.398   0.417   1.208  0.1209 -0.7804  0.2352
   35MOL   C74038888   6.420   0.501   1.333  0.1610  0.2020 -0.0880
   35MOL   C74138889   6.324   0.464   1.441  0.2034  0.1763 -0.4874
   35MOL   C74238890   6.327   0.564   1.561 -0.0569 -0.2634 -0.1669
   35MOL   O74338891   6.433   0.621   1.581 -0.4300  0.0730  0.1080
   35MOL   N74438892   6.217   0.590   1.635  0.0667 -0.0934 -0.0976
   35MOL   C74538893   6.207   0.676   1.754 -0.3376 -0.3855  0.0311
   35MOL   C74638894   6.212   0.587   1.881 -0.2905  0.3408 -0.2323
   35MOL   C74738895   6.222   0.673   2.005  0.2811  0.1874  0.0125
   35MOL   C74838896   6.165   0.613   2.128  0.2160  0.1617  0.1787
   35MOL   C74938897   6.176   0.708   2.247  0.0669 -0.4605 -0.4493
   35MOL   C75038898   6.077   0.824   2.245  0.0623  0.1989  0.2969
   35MOL   N75138899   6.097   0.925   2.347 -0.2275 -0.0386  0.2037
   35MOL   H75238900   6.295   0.093   0.623  0.8087  1.1079 -0.9260
   35MOL   H75338901   6.327   7.684   0.492 -0.4468  0.5060  0.1273
   35MOL   H75438902   6.518   0.098   0.539  1.3564 -1.3744  0.3240
   35MOL   H75538903   6.556   7.630   0.581  0.8074 -0.2751  0.3948
   35MOL   H75638904   6.650   0.105   0.763  0.1708 -3.4020  1.1785
   35MOL   H75738905   6.536   0.004   0.826 -0.5260 -0.4689  0.3848
   35MOL   H75838906   6.372   0.211   0.788  0.3771 -0.1239  1.9666
   35MOL   H75938907   6.514   0.291   0.712  0.2911 -0.1716 -0.2707
   35MOL   H76038908   6.621   0.266   0.940  0.5348 -0.5117 -1.9890
   35MOL   H76138909   6.482   0.196   1.006  1.9704 -0.2406 -0.1435
   35MOL   H76238910   6.501   0.476   0.888 -1.1614  2.4990  1.7352
   35MOL   H76338911   6.346   0.410   0.940 -0.5861  2.0458  1.8482
   35MOL   H76438912   6.592   0.447   1.126 -0.6901 -1.2511 -0.6765
   35MOL   H76538913   6.484   0.576   1.093  1.0661  0.2590 -0.7924
   35MOL   H76638914   6.298   0.427   1.164 -1.2139 -2.9091  2.6161
   35MOL   H76738915   6.414   0.311   1.229  2.0202 -0.3521  1.0858
   35MOL   H76838916   6.405   0.606   1.307 -2.4575 -0.4439 -1.3564
   35MOL   H76938917   6.519   0.489   1.377 -1.0204  1.3273  3.0252
   35MOL   H77038918   6.229   0.451   1.391  0.5533 -0.3113 -1.0297
   35MOL   H77138919   6.340   0.364   1.481 -1.4797  0.6311  1.4069
   35MOL   H77238920   6.149   0.516   1.635  1.0283 -0.9954  1.1058
   35MOL   H77338921   6.122   0.743   1.739 -2.2608 -2.2842  1.9723
   35MOL   H77438922   6.296   0.739   1.744 -0.8039  0.4752  1.1162
   35MOL   H77538923   6.294   0.514   1.882  0.2094  0.8659 -1.5162
   35MOL   H77638924   6.123   0.526   1.871  1.0282 -1.0780 -4.5686
   35MOL   H77738925   6.179   0.771   1.986 -0.1240  0.1848  0.8880
   35MOL   H77838926   6.323   0.706   2.030  1.1042 -0.8931 -1.7940
   35MOL   H77938927   6.060   0.591   2.106  0.5227 -1.4246  0.2365
   35MOL   H78038928   6.210   0.514   2.138  1.0918  0.6234  0.8502
   35MOL   H78138929   6.275   0.750   2.261  0.6553 -1.5637 -1.2532
   35MOL   H78238930   6.163   0.647   2.336 -0.0391 -0.6369 -0.5835
   35MOL   H78338931   6.079   0.874   2.148 -1.2222  1.9142  1.1336
   35MOL   H78438932   5.976   0.786   2.261  0.0336  0.3383  0.4559
   35MOL   H78538933   6.194   0.933   2.373 -0.4896 -0.6475  1.3924
   35MOL   C78638934   6.012   1.010   2.385 -0.6505  0.0602 -0.4802
   35MOL   O78738935   5.892   1.005   2.358  0.1609  0.2390  0.1530
   35MOL   C78838936   6.074   1.128   2.469 -0.3304 -0.1283  0.2245
   35MOL   C78938937   6.048   1.108   2.625 -0.0710 -0.6228  0.8607
   35MOL   C79038938   6.174   1.073   2.701 -0.7740  0.4982 -0.4955
   35MOL   C79138939   6.202   0.923   2.700  0.7142  0.1225  0.3059
   35MOL   C79238940   6.338   0.883   2.760 -0.0654 -0.1797  0.3304
   35MOL   C79338941   6.387   0.738   2.739 -0.1009 -0.1697 -0.7259
   35MOL   C79438942   6.298   0.632   2.824  1.1485  0.1493 -0.5658
   35MOL   C79538943   6.377   0.517   2.882  0.6299 -0.2993 -0.1878
   35MOL   C79638944   6.299   0.419   2.964 -0.4169 -0.0580 -0.3162
   35MOL   C79738945   6.400   0.313   3.013 -0.4314 -0.2707 -0.3917
   35MOL   C79838946   6.339   0.215   3.108 -0.4043  0.2339 -0.2678
   35MOL   O79938947   6.250   0.137   3.072  0.3914 -0.3530  0.7308
   35MOL   N80038948   6.382   0.214   3.233 -0.0713 -0.4159 -0.7000
   35MOL   C80138949   6.341   0.128   3.340  0.4312 -0.3459 -0.3419
   35MOL   C80238950   6.460   0.047   3.399 -0.3969 -0.1262 -0.0061
   35MOL   C80338951   6.568   0.143   3.447 -0.5023 -0.4538  0.2300
   35MOL   C80438952   6.678   0.074   3.526 -0.2007  0.1987  0.5821
   35MOL   C80538953   6.800   0.172   3.542 -0.0538 -0.5320  0.3859
   35MOL   C80638954   6.789   0.287   3.638  0.0065  0.0164 -0.0061
   35MOL   N80738955   6.693   0.385   3.586 -0.0033 -0.8247 -0.7698
   35MOL   H80838956   6.019   1.214   2.433  0.0757  0.1287  0.2104
   35MOL   H80938957   6.181   1.133   2.448 -0.5151  0.1638 -0.6441
   35MOL   H81038958   6.031   1.207   2.667 -0.2297 -0.1648 -0.2569
   35MOL   H81138959   5.960   1.047   2.645 -0.4213 -1.3104 -2.4705
   35MOL   H81238960   6.162   1.113   2.801 -1.9849  0.2542 -0.5292
   35MOL   H81338961   6.261   1.122   2.657  0.0860 -0.4922  0.0847
   35MOL   H81438962   6.122   0.872   2.753 -0.0830  0.7677 -0.2595
   35MOL   H81538963   6.200   0.892   2.595 -2.0420  1.8699 -0.2100
   35MOL   H81638964   6.422   0.946   2.732 -1.1000  2.0946  2.2320
   35MOL   H81738965   6.336   0.900   2.867  0.5247 -1.2379  0.5167
   35MOL   H81838966   6.405   0.707   2.637  0.7096 -0.8268 -0.3845
   35MOL   H81938967   6.487   0.735   2.783  0.1099 -1.4391 -1.2916
   35MOL   H82038968   6.247   0.678   2.910 -0.3474 -0.1628 -1.2631
   35MOL   H82138969   6.217   0.587   2.766  0.2037 -1.6637  2.0231
   35MOL   H82238970   6.430   0.465   2.802 -0.0038 -0.0295 -0.7937
   35MOL   H82338971   6.455   0.568   2.939 -0.6974 -0.9045  2.2501
   35MOL   H82438972   6.230   0.368   2.897 -0.4786 -0.8978  0.3815
   35MOL   H82538973   6.241   0.465   3.044  1.2187  0.8513  0.3813
   35MOL   H82638974   6.453   0.276   2.925 -1.5800  1.9367 -2.0600
   35MOL   H82738975   6.482   0.355   3.072 -2.3724  0.2729  2.0016
   35MOL   H82838976   6.452   0.283   3.259  1.8292 -2.1419 -1.0556
   35MOL   H82938977   6.255   0.067   3.312 -0.5593 -0.3688  2.6334
   35MOL   H83038978   6.299   0.196   3.414  2.2663  0.1323  0.2841
   35MOL   H83138979   6.484   7.662   3.325 -1.2115  2.3332 -2.9047
   35MOL   H83238980   6.430   7.686   3.490  0.8201 -0.1573  0.3862
   35MOL   H83338981   6.601   0.204   3.363  0.0959  0.8004  1.3532
   35MOL   H83438982   6.526   0.202   3.528  1.1477  1.0526  0.0393
   35MOL   H83538983   6.717   7.677   3.475 -1.9328 -0.2481 -0.0104
   35MOL   H83638984   6.634   0.053   3.623 -0.7058 -0.7658  0.1567
   35MOL   H83738985   6.825   0.205   3.441 -1.7132  0.9573  0.4384
   35MOL   H83838986   6.875   0.105   3.584 -0.8681 -0.0910  2.5942
   35MOL   H83938987   6.882   0.341   3.656 -0.7852  1.8213 -1.0615
   35MOL   H84038988   6.745   0.254   3.731 -1.5485  2.1805  0.0778
   35MOL   H84138989   6.657   0.392   3.492  0.5073  0.3389 -0.8899
   35MOL   C84238990   6.659   0.483   3.668 -0.5817 -0.3411 -0.1977
   35MOL   O84338991   6.658   0.476   3.785 -0.1433 -0.2322 -0.0988
   35MOL   C84438992   6.595   0.609   3.604 -0.2716  0.2334 -0.5281
   35MOL   C84538993   6.583   0.740   3.691 -0.1895 -0.2065  0.3259
   35MOL   C84638994   6.470   0.749   3.797 -0.9770  0.7934  0.1290
   35MOL   C84738995   6.467   0.860   3.900  0.4339  0.4116  0.6572
   35MOL   C84838996   6.595   0.880   3.976  1.2866  0.1364  0.8689
   35MOL   C84938997   6.570   0.986   4.085 -0.3331  0.3410 -0.2920
   35MOL   C85038998   6.682   0.974   4.191 -0.4856  0.7630 -0.5240
   35MOL   C85138999   6.812   1.003   4.127 -0.1440  0.1122  0.1805
   35MOL   C85239000   6.922   1.007   4.233  0.5702 -0.9163  0.5702
   35MOL   C85339001   7.060   1.003   4.170  0.5281 -0.0515 -0.0183
   35MOL   C85439002   7.165   1.039   4.270  0.2984  0.1314 -0.1972
   35MOL   O85539003   7.186   1.151   4.314  0.0768  0.2659 -0.1032
   35MOL   N85639004   7.238   0.929   4.309 -0.0468  0.2688 -0.6727
   35MOL   C85739005   7.337   0.929   4.408 -0.2583  0.5049  0.1611
   35MOL   C85839006   7.286   0.898   4.552 -0.2198  0.3580 -0.2476
   35MOL   C85939007   7.395   0.924   4.658  0.0878  0.1560  0.2570
   35MOL   C86039008   7.358   0.889   4.803  0.4812  0.4730  0.4030
   35MOL   C86139009   7.350   0.741   4.832 -0.4128  0.2904  0.9408
   35MOL   C86239010   7.280   0.688   4.954  0.2710  0.1752  0.4823
   35MOL   N86339011   7.143   0.729   4.954 -0.0971  0.0111  0.2387
   35MOL   H86439012   6.500   0.576   3.563 -0.4822 -0.2151  0.3226
   35MOL   H86539013   6.666   0.619   3.522  0.3039  2.5046  0.1984
   35MOL   H86639014   6.579   0.826   3.624  3.6948  0.2419  0.5516
   35MOL   H86739015   6.684   0.746   3.733  0.5283 -2.0923 -1.0628
   35MOL   H86839016   6.372   0.724   3.756 -0.4407  0.3546 -0.9105
   35MOL   H86939017   6.494   0.665   3.862  1.2488  1.7939  0.6207
   35MOL   H87039018   6.379   0.828   3.955  1.7740 -2.0235  1.4456
   35MOL   H87139019   6.433   0.956   3.860  1.9133  0.3170 -0.8883
   35MOL   H87239020   6.632   0.792   4.028 -1.1259 -1.8859 -0.7012
   35MOL   H87339021   6.663   0.922   3.901  1.3611  0.3800  1.0731
   35MOL   H87439022   6.555   1.086   4.045  0.6203 -0.1004 -1.7762
   35MOL   H87539023   6.478   0.959   4.137  0.1056 -1.5697 -0.4562
   35MOL   H87639024   6.672   1.047   4.271  1.0279 -0.2999  0.6558
   35MOL   H87739025   6.686   0.881   4.247  0.8934  0.1692 -1.5897
   35MOL   H87839026   6.806   1.104   4.087 -0.5453  0.0483  0.0797
   35MOL   H87939027   6.829   0.933   4.046  0.7673  0.4911  0.0413
   35MOL   H88039028   6.914   0.925   4.305 -0.9212 -1.4167 -0.1488
   35MOL   H88139029   6.911   1.100   4.289 -2.6649 -0.9043  0.0176
   35MOL   H88239030   7.078   0.913   4.110 -1.8618 -0.2063 -0.5364
   35MOL   H88339031   7.071   1.085   4.100 -0.9300 -0.0393 -0.2494
   35MOL   H88439032   7.216   0.835   4.278  3.1185 -0.6978 -0.1768
   35MOL   H88539033   7.387   1.026   4.411  0.7254  0.0589 -1.3572
   35MOL   H88639034   7.406   0.851   4.377 -4.1660 -2.0751 -2.5356
   35MOL   H88739035   7.235   0.802   4.558 -0.0155  0.3893  2.4577
   35MOL   H88839036   7.203   0.966   4.573  0.1335  1.0307 -0.9902
   35MOL   H88939037   7.433   1.026   4.646 -0.5186  0.5263  1.4434
   35MOL   H89039038   7.479   0.857   4.642 -0.4796 -0.5040  0.0074
   35MOL   H89139039   7.264   0.937   4.830  1.0459  1.5450  0.5054
   35MOL   H89239040   7.425   0.932   4.877  4.3983 -1.9335 -1.5744
   35MOL   H89339041   7.309   0.687   4.746 -0.4074  0.4963  0.8067
   35MOL   H89439042   7.451   0.701   4.840 -0.6429 -0.0853  1.8946
   35MOL   H89539043   7.300   0.581   4.953  0.7499  0.2685 -0.5748
   35MOL   H89639044   7.333   0.714   5.046  0.2792  0.7222  0.3236
   35MOL   H89739045   7.121   0.824   4.982  2.4818  1.5345 -2.5476
   35MOL   C89839046   7.053   0.668   4.877 -0.1211  0.2291 -0.0483
   35MOL   O89939047   7.074   0.563   4.817  0.6885  0.1635  0.4784
   35MOL   C90039048   6.925   0.738   4.863  0.3172 -0.3152 -0.5692
   35MOL   C90139049   6.902   0.750   4.713  0.4465 -0.2745 -0.4073
   35MOL   C90239050   6.789   0.854   4.696  0.1339 -0.1540 -0.3600
   35MOL   C90339051   6.835   1.006   4.683 -0.3981  0.4125 -0.9155
   35MOL   C90439052   6.717   1.105   4.665  0.3324 -0.6359 -0.1994
   35MOL   C90539053   6.650   1.121   4.527  0.4238 -0.6703 -0.4939
   35MOL   C90639054   6.531   1.217   4.538 -0.2711  0.1932  0.4326
   35MOL   C90739055   6.475   1.268   4.401  0.0237  0.0674 -0.8624
   35MOL   C90839056   6.354   1.364   4.418  0.3974  0.0233 -0.2833
   35MOL   C90939057   6.324   1.421   4.277  0.4289 -1.0932  0.6574
   35MOL   C91039058   6.189   1.491   4.285 -0.1397  0.0437 -0.7289
   35MOL   O91139059   6.094   1.445   4.353 -0.6796 -0.7556  0.3651
   35MOL   N91239060   6.181   1.600   4.206  0.0896 -0.2449 -0.0525
   35MOL   C91339061   6.052   1.663   4.174 -0.9632  0.4893 -0.1060
   35MOL   C91439062   6.058   1.753   4.053  0.2934 -0.3292  0.3002
   35MOL   C91539063   5.932   1.838   4.027  0.3326 -0.2053  0.2005
   35MOL   C91639064   5.919   1.911   3.886  0.3634  0.3733  0.5326
   35MOL   C91739065   5.794   1.992   3.871  0.6870  0.6120 -0.4295
   35MOL   C91839066   5.792   2.046   3.731  0.8989 -0.0686 -0.2661
   35MOL   N91939067   5.874   2.170   3.736 -1.1145  1.0102 -0.4335
   35MOL   H92039068   6.848   0.687   4.922  0.8829  0.8084  1.1729
   35MOL   H92139069   6.948   0.836   4.904 -1.4749  0.0419 -0.3825
   35MOL   H92239070   6.874   0.657   4.664  0.8569 -0.1706 -0.8496
   35MOL   H92339071   6.994   0.786   4.665  1.2679 -1.6385  0.0883
   35MOL   H92439072   6.717   0.848   4.778 -1.0928 -1.9586 -1.5111
   35MOL   H92539073   6.741   0.818   4.605  2.4940 -0.9307 -1.3334
   35MOL   H92639074   6.893   1.042   4.768 -2.0116  1.6094 -0.2930
   35MOL   H92739075   6.910   1.027   4.607  0.1182  1.0735 -0.2309
   35MOL   H92839076   6.753   1.206   4.686  0.6413 -0.8866  0.4785
   35MOL   H92939077   6.638   1.096   4.739  1.4813 -0.7105  1.0363
   35MOL   H93039078   6.725   1.176   4.471 -0.4246  1.0257  0.0046
   35MOL   H93139079   6.625   1.028   4.476  1.9946 -1.3670 -0.0231
   35MOL   H93239080   6.550   1.308   4.594  2.3446 -0.0710  0.0325
   35MOL   H93339081   6.460   1.157   4.595 -0.0492 -0.8495 -0.3709
   35MOL   H93439082   6.459   1.180   4.338  0.1066 -0.9224  0.4713
   35MOL   H93539083   6.561   1.315   4.352  1.3977 -1.4473  0.0436
   35MOL   H93639084   6.272   1.306   4.460  0.5543 -0.0243 -0.0367
   35MOL   H93739085   6.384   1.433   4.497 -0.7851  0.6538 -0.3739
   35MOL   H93839086   6.408   1.487   4.263 -0.5472  0.5002  2.0626
   35MOL   H93939087   6.312   1.341   4.204 -0.3831  0.6888 -1.1722
   35MOL   H94039088   6.261   1.623   4.148  0.1754  2.5999  1.1260
   35MOL   H94139089   6.025   1.725   4.260 -0.5902  0.4472  0.0451
   35MOL   H94239090   5.974   1.589   4.160  1.1732 -1.0821 -4.8356
   35MOL   H94339091   6.141   1.818   4.080  0.1084  0.6897 -1.5094
   35MOL   H94439092   6.082   1.695   3.965  2.3192 -1.3630  1.4998
   35MOL   H94539093   5.850   1.766   4.029  0.8423 -0.8724 -1.9610
   35MOL   H94639094   5.905   1.906   4.108 -2.3975  1.0913 -1.7192
   35MOL   H94739095   5.938   1.842   3.804 -1.0709  0.9775 -0.3374
   35MOL   H94839096   5.997   1.987   3.876 -0.4898  0.9719 -2.0216
   35MOL   H94939097   5.714   1.918   3.876  1.2114  0.1536  1.3158
   35MOL   H95039098   5.774   2.062   3.953  1.3534  0.1715  0.1134
   35MOL   H95139099   5.689   2.075   3.708  0.2390 -2.2130 -0.1066
   35MOL   H95239100   5.818   1.979   3.648 -2.9876 -1.2990 -0.5892
   35MOL   H95339101   5.971   2.166   3.707 -1.1977  0.7001 -0.6688
   35MOL   C95439102   5.820   2.288   3.770 -0.2381  0.1693  0.0860
   35MOL   O95539103   5.700   2.312   3.783 -0.4232  0.2040 -0.6897
   35MOL   C95639104   5.911   2.396   3.805 -0.9748 -0.5016 -0.1297
   35MOL   C95739105   5.886   2.520   3.718  0.1953  0.3817  0.5029
   35MOL   C95839106   5.955   2.651   3.760  0.3535  0.0985  0.1148
   35MOL   C95939107   6.107   2.646   3.717  0.3403  0.0601  0.5552
   35MOL   C96039108   6.195   2.760   3.770  0.0708  0.2904 -0.4763
   35MOL   C96139109   6.326   2.784   3.692  0.6346  0.2081  0.1624
   35MOL   C96239110   6.415   2.888   3.750  0.1161 -0.6111 -0.4392
   35MOL   C96339111   6.545   2.908   3.676  0.5557  0.5504  0.2783
   35MOL   C96439112   6.540   2.979   3.533 -0.2533  0.0597  0.1171
   35MOL   C96539113   6.675   2.972   3.456  0.9443 -0.0760 -0.4378
   35MOL   C96639114   6.713   2.835   3.407  0.2895  0.3924  0.1904
   35MOL   O96739115   6.677   2.730   3.462  0.1005 -0.4953  0.1721
   35MOL   N96839116   6.802   2.834   3.310 -0.8527  0.2519  0.6560
   35MOL   C96939117   6.844   2.721   3.222 -0.2476  0.4759 -0.1656
   35MOL   C97039118   6.949   2.781   3.116  0.4649 -0.1839 -0.4595
   35MOL   C97139119   6.997   2.668   3.022  0.4175 -0.8079 -0.0458
   35MOL   C97239120   6.905   2.642   2.895 -0.6859 -0.2022 -0.3962
   35MOL   C97339121   6.941   2.519   2.806 -0.4194  0.5296 -0.5304
   35MOL   C97439122   6.848   2.499   2.681 -0.0205  0.3642 -0.8063
   35MOL   N97539123   6.916   2.406   2.588 -0.1590 -0.4084 -0.9319
   35MOL   H97639124   5.887   2.424   3.908 -0.9378  1.3722 -0.5982
   35MOL   H97739125   6.016   2.368   3.800 -1.1894 -1.3574  0.1581
   35MOL   H97839126   5.781   2.528   3.693  0.0882 -1.9401  0.0993
   35MOL   H97939127   5.930   2.496   3.620 -1.7490 -1.6561  0.0878
   35MOL   H98039128   5.907   2.736   3.711 -0.8721 -0.0550  1.0394
   35MOL   H98139129   5.942   2.662   3.868 -0.7686 -0.7572  0.0746
   35MOL   H98239130   6.151   2.555   3.756  1.2297  0.1329 -0.2706
   35MOL   H98339131   6.123   2.632   3.610  2.3788  0.4071  0.8055
   35MOL   H98439132   6.139   2.850   3.743 -0.9049 -0.5420 -1.2482
   35MOL   H98539133   6.211   2.749   3.877 -0.9156  1.1408 -0.2409
   35MOL   H98639134   6.376   2.688   3.708 -1.2385 -0.4754  2.0968
   35MOL   H98739135   6.309   2.794   3.585  1.1022  2.1318  0.2626
   35MOL   H98839136   6.364   2.984   3.745 -1.8238 -1.6215 -0.2494
   35MOL   H98939137   6.437   2.882   3.857  0.2634 -1.5977 -0.5191
   35MOL   H99039138   6.612   2.962   3.743  1.0492  1.0960 -0.6378
   35MOL   H99139139   6.593   2.810   3.679 -1.2626 -0.3235  1.0211
   35MOL   H99239140   6.516   3.081   3.561 -1.0318  0.0619 -0.5546
   35MOL   H99339141   6.455   2.945   3.474  0.6215 -1.9956 -0.0028
   35MOL   H99439142   6.682   3.033   3.367  1.9751 -0.3202 -0.5291
   35MOL   H99539143   6.759   2.996   3.522  1.6058 -1.4165 -0.7826
   35MOL   H99639144   6.834   2.924   3.277 -0.4868 -0.1823 -0.1767
   35MOL   H99739145   6.760   2.697   3.157  0.8510  0.0088 -1.4303
   35MOL   H99839146   6.874   2.636   3.284 -1.6177  0.1096  0.0207
   35MOL   H99939147   7.028   2.822   3.180 -0.6407 -1.9214  2.1153
   35MOL     H139148   6.913   2.861   3.052 -0.3629 -0.9612 -0.9833
   35MOL     H239149   6.999   2.573   3.076  0.3341 -0.9991 -0.3806
   35MOL     H339150   7.099   2.696   2.993  0.2444 -0.3174 -0.1818
   35MOL     H439151   6.805   2.636   2.938  0.0159 -2.5760  0.9922
   35MOL     H539152   6.906   2.735   2.839  2.7371 -0.7346 -1.3249
   35MOL     H639153   6.933   2.431   2.869  1.6949 -0.6547 -1.8349
   35MOL     H739154   7.044   2.538   2.774 -0.1361 -0.6943 -0.3515
   35MOL     H839155   6.747   2.464   2.703  0.4842 -1.6091 -1.5297
   35MOL     H939156   6.836   2.594   2.628 -1.5592  0.3183 -0.5730
   35MOL    H1039157   6.899   2.306   2.593 -1.7898 -0.0598  1.1743
   35MOL    C1139158   7.016   2.443   2.512  0.1615  0.8298  0.1695
   35MOL    O1239159   7.047   2.564   2.497  0.1533  0.2832 -0.3773
   35MOL    C1339160   7.089   2.335   2.430 -0.2268  0.0964  0.1710
   35MOL    C1439161   7.232   2.389   2.405 -0.0792  0.2223  0.0332
   35MOL    C1539162   7.287   2.304   2.299  0.1807  0.4770 -0.6027
   35MOL    C1639163   7.425   2.351   2.259  0.4923  0.0483  0.0251
   35MOL    C1739164   7.532   2.357   2.369  0.3868  0.3042 -0.2888
   35MOL    C1839165   7.661   2.403   2.300  0.1184 -0.5011 -0.1687
   35MOL    C1939166   0.094   2.421   2.398  0.4161 -0.3334  0.5643
   35MOL    C2039167   0.209   2.506   2.336 -0.3887 -0.4099 -0.5316
   35MOL    C2139168   0.176   2.657   2.351  0.3669 -0.0282  0.0857
   35MOL    C2239169   0.263   2.756   2.266  0.6115 -0.1957 -0.1661
   35MOL    C2339170   0.215   2.759   2.124 -0.1427  0.5632  0.2057
   35MOL    O2439171   0.100   2.789   2.089  0.1561 -1.0008 -0.0687
   35MOL    N2539172   0.301   2.720   2.027  0.1802 -0.1179 -0.3791
   35MOL    C2639173   0.257   2.688   1.884  0.0153 -0.1700  0.3618
   35MOL    C2739174   0.358   2.591   1.819  0.1657  0.0781 -0.3286
   35MOL    C2839175   0.347   2.443   1.871  0.6126 -0.2372  0.2311
   35MOL    C2939176   0.447   2.359   1.800 -0.7119  0.0062 -0.0670
   35MOL    C3039177   0.414   2.337   1.651  0.6096 -0.1414  0.4745
   35MOL    C3139178   0.508   2.233   1.585  0.1357 -0.0002 -0.1276
   35MOL    N3239179   0.460   2.205   1.449 -0.5668  0.2916 -0.3995
   35MOL    H3339180   7.048   2.304   2.334 -0.0375 -0.7303  0.3506
   35MOL    H3439181   7.109   2.245   2.489 -1.5037 -1.1247 -1.2041
   35MOL    H3539182   7.292   2.376   2.495 -0.2186 -1.6535 -0.1224
   35MOL    H3639183   7.234   2.490   2.365 -0.3527  1.5694  3.2601
   35MOL    H3739184   7.225   2.313   2.211 -2.9728  2.0769  1.6945
   35MOL    H3839185   7.311   2.206   2.339  0.8752  0.4822 -0.9891
   35MOL    H3939186   7.461   2.287   2.178 -0.1161 -1.6256  1.0568
   35MOL    H4039187   7.418   2.448   2.210 -0.3639 -0.1016 -0.1534
   35MOL    H4139188   7.495   2.424   2.447 -2.5190 -1.4597 -0.0985
   35MOL    H4239189   7.535   2.255   2.407 -0.1685  0.7335  0.9214
   35MOL    H4339190   7.676   2.333   2.218 -0.5074 -1.4955  0.5645
   35MOL    H4439191   7.643   2.502   2.256 -0.9393 -0.7858 -0.3867
   35MOL    H4539192   0.072   2.448   2.502  0.1040  0.5346  0.2820
   35MOL    H4639193   0.144   2.325   2.404  0.4796 -0.4002 -0.9730
   35MOL    H4739194   0.305   2.487   2.383 -1.3027  1.8316  2.2964
   35MOL    H4839195   0.218   2.474   2.232 -0.5663  1.5139 -1.1486
   35MOL    H4939196   0.214   2.674   2.452 -0.4581  0.0792  0.3802
   35MOL    H5039197   0.073   2.691   2.345  0.7638  1.1162 -0.2844
   35MOL    H5139198   0.243   2.856   2.303 -2.1073  0.0077 -2.0088
   35MOL    H5239199   0.371   2.737   2.261  0.4585 -0.4239 -3.7081
   35MOL    H5339200   0.397   2.703   2.050 -0.1709 -1.0582  0.4112
   35MOL    H5439201   0.252   2.783   1.829 -2.0344 -1.1859 -1.2497
   35MOL    H5539202   0.153   2.656   1.881 -0.4758  1.4229 -0.1043
   35MOL    H5639203   0.460   2.623   1.842  0.2577 -1.3587  1.3932
   35MOL    H5739204   0.347   2.596   1.711 -0.6106  3.1180 -0.1595
   35MOL    H5839205   0.247   2.407   1.851  1.2395 -2.0275  0.1831
   35MOL    H5939206   0.373   2.439   1.977 -0.8592  0.2389  0.6194
   35MOL    H6039207   0.451   2.259   1.844 -0.7823  1.2056  2.7691
   35MOL    H6139208   0.542   2.410   1.814 -0.8224  0.5934 -1.3823
   35MOL    H6239209   0.445   2.425   1.595  0.0997  0.0580  0.5022
   35MOL    H6339210   0.308   2.321   1.630  0.1152 -0.9095  3.3918
   35MOL    H6439211   0.491   2.141   1.640 -2.4778  0.2450 -0.4823
   35MOL    H6539212   0.615   2.251   1.596 -0.0020  1.0868 -0.5464
   35MOL    H6639213   0.370   2.161   1.438  1.1830 -3.3012 -1.2820
   35MOL    C6739214   0.516   2.265   1.343  0.5192 -0.3742 -0.4190
   35MOL    O6839215   0.632   2.321   1.350  0.3133 -0.5071 -0.0227
   35MOL    C6939216   0.428   2.262   1.212 -0.1285  0.4351 -0.6271
   35MOL    C7039217   0.397   2.409   1.178  0.0835 -0.5477  0.2476
   35MOL    C7139218   0.293   2.484   1.258  0.4015 -0.5718 -0.2788
   35MOL    C7239219   0.148   2.417   1.261  0.6399 -0.2454 -0.3982
   35MOL    C7339220   0.062   2.491   1.364 -0.4028  0.4313 -0.0916
   35MOL    C7439221   7.632   2.417   1.421  0.0622 -0.7505  0.3404
   35MOL    C7539222   7.508   2.409   1.328  0.0398  0.4786  0.1137
   35MOL    C7639223   7.370   2.349   1.387  0.6247 -0.5271  0.1504
   35MOL    C7739224   7.248   2.358   1.291  0.0065  0.2741  0.5812
   35MOL    C7839225   7.120   2.290   1.344  0.0291  0.1822 -0.6927
   35MOL    C7939226   7.001   2.321   1.255  0.2126 -0.2591 -0.0678
   35MOL    O8039227   6.978   2.247   1.163  0.0468  0.1156  0.3633
   35MOL    N8139228   6.930   2.433   1.270 -0.0944  0.1010  0.3832
   35MOL    C8239229   6.814   2.462   1.190 -0.6740 -0.5163 -0.0142
   35MOL    C8339230   6.707   2.522   1.277  0.4816  0.2438 -0.1286
   35MOL    C8439231   6.574   2.547   1.213 -0.3885  0.1021  0.1658
   35MOL    C8539232   6.479   2.648   1.281 -0.4471  0.2925 -0.1233
   35MOL    C8639233   6.436   2.606   1.429 -0.0637 -0.4921  0.8680
   35MOL    C8739234   6.313   2.690   1.478  0.0453 -0.2532  0.0766
   35MOL    N8839235   6.334   2.830   1.497 -0.1009 -0.0117  0.2639
   35MOL    H8939236   0.342   2.196   1.203 -0.1567  0.4015 -0.1149
   35MOL    H9039237   0.497   2.226   1.135  0.2038  0.5661 -0.3911
   35MOL    H9139238   0.489   2.467   1.185  2.4832 -4.3525  2.8957
   35MOL    H9239239   0.371   2.415   1.073 -1.6249 -0.7401  0.6437
   35MOL    H9339240   0.330   2.487   1.361  0.7239 -0.0886 -0.4075
   35MOL    H9439241   0.280   2.590   1.234  3.5536  0.2832  1.5483
   35MOL    H9539242   0.094   2.420   1.166 -0.9663 -0.3323  0.5061
   35MOL    H9639243   0.167   2.316   1.297  0.1246 -0.2531 -0.1431
   35MOL    H9739244   0.130   2.511   1.447 -1.3980  1.1585  0.5711
   35MOL    H9839245   0.030   2.589   1.326  2.1396  1.6597  0.8463
   35MOL    H9939246   7.667   2.317   1.447  2.4495  0.2601  1.1309
   35MOL   H10039247   7.598   2.476   1.506  0.2387  0.3330 -0.3313
   35MOL   H10139248   7.523   2.346   1.241  1.5320  0.2119  0.5501
   35MOL   H10239249   7.487   2.507   1.286 -3.4089 -1.1014 -1.9996
   35MOL   H10339250   7.390   2.243   1.405  0.1094 -0.2242  2.8147
   35MOL   H10439251   7.346   2.394   1.483  2.4334 -3.5093  2.0910
   35MOL   H10539252   7.276   2.311   1.196 -0.7402 -0.1740  0.5838
   35MOL   H10639253   7.227   2.461   1.261  0.7819  0.2010 -0.2292
   35MOL   H10739254   7.127   2.182   1.338 -0.4200 -0.1277  3.0669
   35MOL   H10839255   7.104   2.318   1.448  0.1196 -0.1443 -0.5908
   35MOL   H10939256   6.951   2.486   1.353  0.0198 -0.5229  0.7560
   35MOL   H11039257   6.782   2.369   1.143  1.7551 -1.7709  0.7240
   35MOL   H11139258   6.857   2.529   1.116 -0.9225  0.1694  0.4521
   35MOL   H11239259   6.741   2.616   1.322 -3.1482  1.1182  0.9795
   35MOL   H11339260   6.700   2.447   1.356  0.4383 -1.7333 -1.9514
   35MOL   H11439261   6.512   2.457   1.202  0.0690 -0.1980  0.0379
   35MOL   H11539262   6.589   2.588   1.113 -1.9806  1.2995  0.3869
   35MOL   H11639263   6.528   2.745   1.289  0.0130  0.0394  0.1492
   35MOL   H11739264   6.387   2.662   1.225 -0.2983  1.1130 -0.1656
   35MOL   H11839265   6.401   2.503   1.426  0.9281 -0.8613  1.8571
   35MOL   H11939266   6.515   2.598   1.504  2.7891 -0.8175 -2.0556
   35MOL   H12039267   6.239   2.674   1.400 -2.3835  1.1546  2.0031
   35MOL   H12139268   6.277   2.641   1.568 -0.0809  0.3482  0.3566
   35MOL   H12239269   6.379   2.860   1.412 -0.0061  0.6389  0.5443
   35MOL   H12339270   6.244   2.874   1.484 -0.3764 -1.2903 -2.6304
   36MOL     C139271   5.314   2.540   2.225  0.6313  0.2910 -0.1305
   36MOL     O239272   5.236   2.492   2.307 -0.2837  0.4283 -0.0853
   36MOL     C339273   5.438   2.464   2.180 -0.0050 -0.2859 -0.2979
   36MOL     C439274   5.551   2.445   2.278  0.3697  0.0472 -0.0741
   36MOL     C539275   5.504   2.341   2.384  0.9153  0.4055  0.2614
   36MOL     C639276   5.613   2.306   2.483  0.2503  0.4292  0.1930
   36MOL     C739277   5.743   2.253   2.419 -0.0554 -0.1814  0.3330
   36MOL     C839278   5.834   2.194   2.529 -0.8270  0.5256  0.4893
   36MOL     C939279   5.956   2.115   2.477  0.4648 -0.2869  0.6288
   36MOL    C1039280   6.048   2.055   2.583  0.4990  0.1983 -0.0154
   36MOL    C1139281   6.167   1.977   2.533  0.2810  0.1758 -0.6637
   36MOL    C1239282   6.272   1.917   2.633  1.2153  0.1167  0.2224
   36MOL    C1339283   6.336   2.024   2.729 -0.9019 -0.8012  0.2064
   36MOL    O1439284   6.412   2.115   2.689  0.7019 -0.7497 -0.4298
   36MOL    N1539285   6.294   2.015   2.856 -0.1109  0.1260 -0.5173
   36MOL    C1639286   6.334   2.105   2.966  0.7867  0.2173  0.0091
   36MOL    C1739287   6.264   2.046   3.093 -0.9249  0.3983 -0.8099
   36MOL    C1839288   6.275   2.127   3.221  0.2242 -1.1841 -0.2038
   36MOL    C1939289   6.229   2.059   3.353  0.0108  0.3826  0.4848
   36MOL    C2039290   6.279   2.132   3.477  0.5624 -0.0269 -0.6011
   36MOL    C2139291   6.236   2.079   3.618 -0.2980 -0.2633 -0.1667
   36MOL    N2239292   6.311   2.160   3.715  0.0681  0.5479  0.8401
   36MOL    H2339293   5.479   2.512   2.091  1.4681  0.7562  0.9277
   36MOL    H2439294   5.393   2.378   2.130 -0.6409 -1.0368  1.5305
   36MOL    H2539295   5.574   2.542   2.321  0.8324  0.3683 -1.0454
   36MOL    H2639296   5.641   2.415   2.226 -0.1259 -0.0921 -0.8613
   36MOL    H2739297   5.475   2.254   2.326  1.3340  0.7826 -0.5288
   36MOL    H2839298   5.421   2.379   2.444  0.9602  2.8898 -1.1529
   36MOL    H2939299   5.633   2.402   2.532 -2.5884  0.1559  1.9985
   36MOL    H3039300   5.585   2.234   2.560 -0.6893  0.4174 -0.1547
   36MOL    H3139301   5.801   2.317   2.353 -0.0734 -0.9766 -0.4676
   36MOL    H3239302   5.724   2.167   2.354  0.0596  0.6176 -0.7780
   36MOL    H3339303   5.862   2.272   2.600 -0.0461  1.2131 -0.5703
   36MOL    H3439304   5.776   2.128   2.593 -1.4260  2.2150  1.7361
   36MOL    H3539305   5.918   2.030   2.419 -0.6917  0.2737  0.5721
   36MOL    H3639306   6.007   2.170   2.398  1.0994 -1.2747  0.3279
   36MOL    H3739307   6.084   2.137   2.645 -0.7699  0.4968  0.3545
   36MOL    H3839308   5.997   1.986   2.651  1.3728  0.6680  1.1416
   36MOL    H3939309   6.223   2.053   2.478 -0.1837  0.5186 -0.6664
   36MOL    H4039310   6.125   1.902   2.465 -1.2714  0.4620 -0.0431
   36MOL    H4139311   6.225   1.834   2.687 -0.7975  0.8993 -0.2590
   36MOL    H4239312   6.356   1.876   2.577  0.4991 -0.3043 -0.5520
   36MOL    H4339313   6.239   1.931   2.865  0.2115  0.1739  2.5109
   36MOL    H4439314   6.305   2.205   2.933 -1.6681 -0.6178 -0.5614
   36MOL    H4539315   6.442   2.099   2.974  0.5503 -1.0964  2.7402
   36MOL    H4639316   6.304   1.949   3.122 -0.4951  0.5772 -0.8057
   36MOL    H4739317   6.165   2.004   3.073 -0.8166 -0.7160  0.8532
   36MOL    H4839318   6.380   2.151   3.239  0.1865  0.1367 -1.6916
   36MOL    H4939319   6.215   2.217   3.209  2.0939 -0.0044 -0.9490
   36MOL    H5039320   6.281   1.963   3.359 -1.1780 -0.3967 -1.2918
   36MOL    H5139321   6.122   2.037   3.359 -0.1021  0.0008 -2.2482
   36MOL    H5239322   6.388   2.127   3.475  0.6202  0.7126  0.3768
   36MOL    H5339323   6.267   2.240   3.468  1.4930  0.2307  1.0957
   36MOL    H5439324   6.129   2.090   3.640 -0.0823 -2.0442  1.9924
   36MOL    H5539325   6.261   1.974   3.633  0.0001  0.2779  3.5856
   36MOL    H5639326   6.389   2.210   3.676 -1.1458 -0.9941 -3.8132
   36MOL    H5739327   5.300   2.644   2.194 -1.4288  0.8577  2.5347
   36MOL    C5839328   6.278   2.183   3.844 -0.8114 -0.3303  0.8669
   36MOL    O5939329   6.178   2.138   3.894  0.0956 -0.3274  0.3278
   36MOL    C6039330   6.371   2.277   3.920 -0.5593 -0.1203  0.6075
   36MOL    C6139331   6.452   2.221   4.035 -0.3505 -0.3187  0.1558
   36MOL    C6239332   6.589   2.165   3.994  0.1161 -0.4357 -0.4566
   36MOL    C6339333   6.647   2.078   4.100  0.7115  0.1151 -0.1240
   36MOL    C6439334   6.773   2.000   4.056  0.7446  0.3198  0.2648
   36MOL    C6539335   6.828   1.903   4.160 -0.6357 -0.4682 -0.1990
   36MOL    C6639336   6.849   1.975   4.295  0.9981  0.4277  0.3577
   36MOL    C6739337   6.928   1.897   4.396 -0.6166  0.1463  0.2162
   36MOL    C6839338   7.076   1.890   4.353 -0.6008  0.6515 -0.2849
   36MOL    C6939339   7.166   1.811   4.450  0.4166 -0.5318  0.2662
   36MOL    C7039340   7.154   1.859   4.589  0.1126  0.1779 -0.5851
   36MOL    O7139341   7.181   1.978   4.617 -0.7163  0.4097  0.0218
   36MOL    N7239342   7.108   1.767   4.673  0.5668 -0.0084  0.8141
   36MOL    C7339343   7.070   1.772   4.816 -0.1675 -0.3589 -0.3861
   36MOL    C7439344   6.925   1.806   4.850 -0.2088 -0.3742 -0.1979
   36MOL    C7539345   6.883   1.947   4.799 -0.1439  0.1409 -0.6196
   36MOL    C7639346   6.730   1.978   4.821 -1.0966 -0.3886  0.4554
   36MOL    C7739347   6.679   2.114   4.762 -0.0433  0.0803  0.0977
   36MOL    C7839348   6.531   2.138   4.788 -0.0884 -0.5292 -0.1452
   36MOL    N7939349   6.511   2.281   4.783 -0.2632  0.1179  0.6738
   36MOL    H8039350   6.309   2.361   3.950 -0.8638 -1.0877  2.7623
   36MOL    H8139351   6.427   2.321   3.836 -4.3849  3.5162 -0.2310
   36MOL    H8239352   6.469   2.295   4.114 -1.6510 -1.4588  1.5375
   36MOL    H8339353   6.389   2.146   4.083 -0.2509  0.1364  1.0206
   36MOL    H8439354   6.661   2.246   3.984 -1.4704  1.1573  0.6174
   36MOL    H8539355   6.575   2.117   3.897 -0.6718 -0.6715 -0.2256
   36MOL    H8639356   6.573   2.001   4.126 -0.7461  1.2509 -0.8800
   36MOL    H8739357   6.653   2.134   4.193  0.5603 -1.5102  0.9002
   36MOL    H8839358   6.758   1.948   3.962  0.9197  1.4828 -0.4176
   36MOL    H8939359   6.852   2.069   4.026  0.2976  1.0696  0.8091
   36MOL    H9039360   6.920   1.853   4.127 -1.1323  0.0639 -2.4320
   36MOL    H9139361   6.758   1.823   4.184  2.1264 -2.3557  1.8927
   36MOL    H9239362   6.751   1.994   4.338  0.5723 -2.8835  0.9648
   36MOL    H9339363   6.907   2.065   4.277  1.5776 -0.2903 -1.4389
   36MOL    H9439364   6.916   1.947   4.492 -0.0562 -1.1999  1.0086
   36MOL    H9539365   6.899   1.793   4.405  1.3781 -0.5118 -0.6750
   36MOL    H9639366   7.120   1.990   4.354  1.2099 -0.1019  1.7513
   36MOL    H9739367   7.091   1.848   4.254  0.2781  1.7251 -0.6251
   36MOL    H9839368   7.153   1.703   4.440 -3.1505 -0.1143 -0.1814
   36MOL    H9939369   7.273   1.823   4.435  0.1298  1.1344 -0.5897
   36MOL   H10039370   7.092   1.675   4.635 -1.3708  0.0890  1.3423
   36MOL   H10139371   7.140   1.834   4.872 -0.1804 -0.2907 -0.4464
   36MOL   H10239372   7.093   1.669   4.847 -3.0490 -0.7941  0.3956
   36MOL   H10339373   6.873   1.713   4.824  0.3985 -0.3635 -1.4767
   36MOL   H10439374   6.906   1.819   4.957 -1.5286 -2.6115 -0.1052
   36MOL   H10539375   6.901   1.958   4.692  1.1376  2.3404 -0.2182
   36MOL   H10639376   6.945   2.017   4.854 -1.2251  0.6039  0.0398
   36MOL   H10739377   6.675   1.891   4.786 -4.0778  0.6981  2.1835
   36MOL   H10839378   6.719   1.977   4.930 -0.7199  2.0189  0.5461
   36MOL   H10939379   6.703   2.123   4.656  1.2038  2.1191  0.5381
   36MOL   H11039380   6.733   2.196   4.810 -0.1840  0.5959 -0.6148
   36MOL   H11139381   6.514   2.106   4.891 -1.8762 -0.1269 -0.3028
   36MOL   H11239382   6.463   2.085   4.722  2.0581 -2.1523 -1.1051
   36MOL   H11339383   6.595   2.335   4.793  0.4969 -1.4702  3.4619
   36MOL   C11439384   6.389   2.337   4.793  0.2981 -0.6710  0.2989
   36MOL   O11539385   6.288   2.276   4.776  0.2254  0.0646 -0.2178
   36MOL   C11639386   6.385   2.483   4.819  0.5180  0.6501  0.3661
   36MOL   C11739387   6.238   2.553   4.804  0.0221  0.0705  0.2596
   36MOL   C11839388   6.183   2.573   4.661  0.1482 -0.0170  0.0530
   36MOL   C11939389   6.044   2.638   4.663 -0.1972 -0.2859  0.5222
   36MOL   C12039390   6.028   2.792   4.689  0.4100  0.4203  0.1700
   36MOL   C12139391   5.898   2.841   4.752 -0.2101 -0.0559  0.1076
   36MOL   C12239392   5.786   2.854   4.650  0.4520  0.5883 -0.2856
   36MOL   C12339393   5.650   2.884   4.716 -0.4185 -0.4808 -0.1711
   36MOL   C12439394   5.634   3.026   4.780  0.8312  0.6372  1.3800
   36MOL   C12539395   5.640   3.147   4.682 -0.3042  0.0715  0.3258
   36MOL   C12639396   5.639   3.282   4.759  0.1238 -0.3870  0.3922
   36MOL   O12739397   5.705   3.293   4.861  0.0345 -0.0072  0.0304
   36MOL   N12839398   5.556   3.384   4.714 -0.6258  0.9192 -0.0623
   36MOL   C12939399   5.527   3.509   4.780  0.4630  0.8954 -0.3302
   36MOL   C13039400   5.403   3.498   4.865  0.0153  0.2582  0.6016
   36MOL   C13139401   5.286   3.405   4.806 -0.1687 -0.8726  0.3039
   36MOL   C13239402   5.154   3.414   4.879 -0.7376  0.3788 -0.1856
   36MOL   C13339403   5.144   3.314   4.992  0.3658  0.2671  0.4328
   36MOL   C13439404   5.189   3.163   4.956  0.1553  0.4659 -0.2836
   36MOL   N13539405   5.133   3.129   4.823 -0.1615  0.4556 -0.2082
   36MOL   H13639406   6.419   2.488   4.922  0.2076  2.7661  0.3832
   36MOL   H13739407   6.458   2.527   4.751  0.5762 -0.8949 -0.6048
   36MOL   H13839408   6.236   2.655   4.844 -0.8671  0.0363  0.3164
   36MOL   H13939409   6.166   2.501   4.866 -1.6543 -0.4866 -2.0771
   36MOL   H14039410   6.259   2.633   4.611 -1.6920 -0.3923 -3.3940
   36MOL   H14139411   6.170   2.472   4.622  0.1923  0.1697 -0.4497
   36MOL   H14239412   6.003   2.615   4.565 -0.5291 -1.1698  0.8628
   36MOL   H14339413   5.976   2.593   4.736 -0.8164  3.7310  2.5823
   36MOL   H14439414   6.114   2.815   4.752  1.3186 -0.8986 -0.5556
   36MOL   H14539415   6.048   2.839   4.593 -2.4539 -0.5839 -0.9714
   36MOL   H14639416   5.926   2.935   4.800  0.3703 -0.6404  0.9252
   36MOL   H14739417   5.869   2.762   4.821  0.1994 -1.8555 -1.7317
   36MOL   H14839418   5.809   2.935   4.580 -1.6350  2.2559  0.9118
   36MOL   H14939419   5.767   2.754   4.612  3.7121  0.2524 -1.2325
   36MOL   H15039420   5.633   2.807   4.791  1.4272  0.4954  1.2991
   36MOL   H15139421   5.567   2.873   4.647  0.2186  0.9084 -1.1756
   36MOL   H15239422   5.709   3.050   4.855 -0.6055  2.7669  2.1979
   36MOL   H15339423   5.540   3.034   4.834 -0.5688  0.2549 -0.9229
   36MOL   H15439424   5.547   3.146   4.626  1.0400 -0.5618 -1.9559
   36MOL   H15539425   5.730   3.156   4.621  0.7128 -2.2498  1.3970
   36MOL   H15639426   5.491   3.355   4.643  1.1167  1.1644 -1.7798
   36MOL   H15739427   5.525   3.583   4.700  0.2989 -0.0386 -1.1999
   36MOL   H15839428   5.620   3.537   4.830  0.0688 -1.2513  1.6788
   36MOL   H15939429   5.373   3.601   4.886 -3.3392 -0.8017  1.2555
   36MOL   H16039430   5.451   3.448   4.949  0.8947 -0.8655 -0.5480
   36MOL   H16139431   5.260   3.441   4.707  0.8309 -1.1083 -0.0433
   36MOL   H16239432   5.325   3.303   4.802  0.6662 -0.4846 -1.4718
   36MOL   H16339433   5.154   3.521   4.897  0.9716  0.2529  0.6924
   36MOL   H16439434   5.071   3.384   4.814 -0.8927 -1.2721  0.7456
   36MOL   H16539435   5.043   3.314   5.032 -0.1460 -1.4598 -0.8063
   36MOL   H16639436   5.212   3.348   5.069 -0.3598 -0.5755  1.4513
   36MOL   H16739437   5.295   3.144   4.940  0.1564  1.4396 -1.4016
   36MOL   H16839438   5.155   3.086   5.027 -0.5686  1.6011  0.6206
   36MOL   H16939439   5.053   3.183   4.795 -0.1639  1.8846  2.3788
   36MOL   C17039440   5.191   3.052   4.727  0.5585 -0.1349  0.1214
   36MOL   O17139441   5.299   3.001   4.740  0.6238 -0.2191 -0.1001
   36MOL   C17239442   5.109   3.036   4.599  0.1624  0.0322  0.7270
   36MOL   C17339443   5.162   2.932   4.502 -0.1270  0.4070  0.1242
   36MOL   C17439444   5.106   2.942   4.352  0.8893 -0.3118  0.1754
   36MOL   C17539445   5.138   2.815   4.268  0.6935 -0.4238 -0.2677
   36MOL   C17639446   5.118   2.839   4.120  0.0185  0.5394 -0.5630
   36MOL   C17739447   5.073   2.713   4.053  0.0046  0.5099  0.3102
   36MOL   C17839448   5.025   2.737   3.910  0.3413 -1.0587 -0.3949
   36MOL   C17939449   5.036   2.611   3.831 -0.1463  0.3351  0.2379
   36MOL   C18039450   4.997   2.635   3.691 -0.3335 -0.1805 -0.3679
   36MOL   C18139451   5.013   2.513   3.600 -0.2782 -0.2498 -0.0110
   36MOL   C18239452   5.160   2.482   3.579 -0.0212 -0.1948 -0.0104
   36MOL   O18339453   5.226   2.524   3.483  0.1626 -0.9348 -0.8104
   36MOL   N18439454   5.216   2.400   3.670 -0.5668  0.3349 -0.4858
   36MOL   C18539455   5.343   2.326   3.643 -0.2113 -0.3036 -0.6284
   36MOL   C18639456   5.379   2.215   3.742  0.7564  0.3615 -0.6231
   36MOL   C18739457   5.323   2.221   3.889 -0.1911  0.5055  0.8307
   36MOL   C18839458   5.389   2.108   3.974  0.4541 -0.4023  0.7067
   36MOL   C18939459   5.358   1.967   3.931 -0.4405  0.6689 -0.3676
   36MOL   C19039460   5.413   1.866   4.032  0.2524 -0.9453 -0.2383
   36MOL   N19139461   5.331   1.749   4.035  0.1290 -0.1874  0.1430
   36MOL   H19239462   5.003   3.016   4.614 -0.1165  1.1940  0.3598
   36MOL   H19339463   5.113   3.132   4.549  0.8313 -0.3819 -0.0260
   36MOL   H19439464   5.129   2.835   4.538 -1.5191  1.3551  1.4454
   36MOL   H19539465   5.270   2.918   4.505  0.0106  1.7168  2.2175
   36MOL   H19639466   5.140   3.032   4.300  1.1428  0.1521  1.1200
   36MOL   H19739467   4.998   2.947   4.359  0.9771 -0.7304  2.0031
   36MOL   H19839468   5.239   2.778   4.288 -0.2489 -2.2135  1.3337
   36MOL   H19939469   5.071   2.737   4.306 -0.8092  0.7243 -0.5368
   36MOL   H20039470   5.032   2.904   4.106  0.0321  0.7914  0.4791
   36MOL   H20139471   5.209   2.880   4.077  0.4072  0.4124  0.1333
   36MOL   H20239472   4.985   2.666   4.099 -0.0431  1.1859  0.9139
   36MOL   H20339473   5.157   2.643   4.052  0.8558  1.5415 -0.2463
   36MOL   H20439474   4.930   2.788   3.900  0.7590  0.4123  2.4650
   36MOL   H20539475   5.094   2.801   3.855  1.6624 -2.6212 -0.6215
   36MOL   H20639476   5.134   2.565   3.846  0.2667  1.2327  0.3064
   36MOL   H20739477   4.958   2.543   3.865 -0.9974  1.8524  1.3610
   36MOL   H20839478   5.045   2.720   3.644 -0.8336  0.7225  0.7326
   36MOL   H20939479   4.893   2.668   3.695 -0.0345  0.5896  1.4325
   36MOL   H21039480   4.952   2.430   3.636 -1.9155  0.3049 -1.4592
   36MOL   H21139481   4.974   2.537   3.501 -0.3731  0.1543  0.1280
   36MOL   H21239482   5.158   2.371   3.747  0.9927 -0.6513  0.3308
   36MOL   H21339483   5.425   2.398   3.638 -0.2247 -0.2188  0.3905
   36MOL   H21439484   5.330   2.285   3.543  2.3269 -1.9578 -0.3460
   36MOL   H21539485   5.354   2.117   3.702  0.5907 -0.5942  1.7146
   36MOL   H21639486   5.488   2.216   3.738  0.8145  1.4998  0.7266
   36MOL   H21739487   5.351   2.316   3.933  0.9422  0.2192  0.7394
   36MOL   H21839488   5.214   2.215   3.890 -0.3993  3.4772  0.0942
   36MOL   H21939489   5.362   2.123   4.078 -3.2290  1.3669 -0.3945
   36MOL   H22039490   5.496   2.117   3.958  0.3092 -0.7120 -0.5387
   36MOL   H22139491   5.396   1.941   3.832 -1.0236  0.9208 -0.6625
   36MOL   H22239492   5.249   1.973   3.926 -0.6285 -0.6872  1.5889
   36MOL   H22339493   5.423   1.911   4.130  2.8569 -1.8079 -0.0490
   36MOL   H22439494   5.516   1.835   4.010  0.2127 -0.7087 -0.7742
   36MOL   H22539495   5.256   1.755   4.103 -1.2528  0.5673 -1.4376
   36MOL   C22639496   5.332   1.640   3.950 -0.0882 -0.4599 -0.3896
   36MOL   O22739497   5.406   1.632   3.850  0.0899  0.3677 -0.0657
   36MOL   C22839498   5.229   1.525   3.984 -0.1654 -0.6173  0.0578
   36MOL   C22939499   5.269   1.419   4.086  0.3432 -0.0912  0.0850
   36MOL   C23039500   5.149   1.350   4.151  0.3520  0.0427  0.1094
   36MOL   C23139501   5.187   1.237   4.242  0.5230 -0.1847 -0.2560
   36MOL   C23239502   5.305   1.259   4.339  0.5344 -0.5865 -0.2538
   36MOL   C23339503   5.276   1.364   4.439  0.4813 -0.1095 -0.4064
   36MOL   C23439504   5.392   1.377   4.536 -0.1231 -0.3613  0.1056
   36MOL   C23539505   5.369   1.462   4.660  0.3240  0.3903  0.2421
   36MOL   C23639506   5.478   1.461   4.763 -0.0138  0.0931 -0.1593
   36MOL   C23739507   5.496   1.314   4.819  0.2024 -0.4985  0.1423
   36MOL   C23839508   5.550   1.326   4.962 -0.2293  0.4460 -0.3639
   36MOL   O23939509   5.470   1.314   5.059  0.3490 -0.1331 -0.8300
   36MOL   N24039510   5.684   1.329   4.977  0.0019  0.0890 -0.6751
   36MOL   C24139511   5.756   1.310   5.095 -0.3785 -0.0659 -0.1732
   36MOL   C24239512   5.764   1.441   5.178 -0.0256  0.1660  0.0378
   36MOL   C24339513   5.780   1.567   5.087  0.0913  0.5194 -0.3622
   36MOL   C24439514   5.823   1.689   5.163  0.8464 -0.0542 -0.7820
   36MOL   C24539515   5.878   1.796   5.083  0.0458  0.0865 -0.0583
   36MOL   C24639516   5.878   1.941   5.147  0.4919  0.5063 -0.0688
   36MOL   N24739517   5.959   1.942   5.267  0.2276 -0.3830  0.3970
   36MOL   H24839518   5.197   1.480   3.889  1.0497 -0.1072 -0.6049
   36MOL   H24939519   5.138   1.576   4.014  0.3101 -1.0841  2.3483
   36MOL   H25039520   5.312   1.329   4.042  0.1605  0.3308 -0.9507
   36MOL   H25139521   5.331   1.465   4.163 -0.5593  0.3012  0.5876
   36MOL   H25239522   5.105   1.425   4.216 -0.7290 -1.1624  0.7936
   36MOL   H25339523   5.069   1.330   4.079 -0.0654 -0.1814  0.6286
   36MOL   H25439524   5.218   1.151   4.183  3.4735 -1.0566  2.4310
   36MOL   H25539525   5.097   1.206   4.295 -0.2134  2.9872  0.4693
   36MOL   H25639526   5.394   1.283   4.280 -1.6022  0.0130 -3.3864
   36MOL   H25739527   5.337   1.165   4.383  1.9919  0.6831  1.4549
   36MOL   H25839528   5.259   1.461   4.392 -0.6851  0.6782  1.6050
   36MOL   H25939529   5.189   1.335   4.498  1.0823  1.2489  1.1865
   36MOL   H26039530   5.486   1.400   4.486  0.4239  0.2281  1.3711
   36MOL   H26139531   5.411   1.279   4.580  1.4252  0.8047  2.1344
   36MOL   H26239532   5.356   1.559   4.613 -1.7030  0.8176  1.6334
   36MOL   H26339533   5.276   1.439   4.712  0.0296 -0.7521 -0.7531
   36MOL   H26439534   5.573   1.498   4.722 -0.1691  0.5898 -0.0821
   36MOL   H26539535   5.452   1.535   4.839 -1.1678  0.7343 -1.1572
   36MOL   H26639536   5.397   1.268   4.818 -0.4060  0.7822  0.6524
   36MOL   H26739537   5.566   1.263   4.752  1.6409 -0.4114  1.5433
   36MOL   H26839538   5.741   1.331   4.894 -0.6925 -0.7892 -1.1788
   36MOL   H26939539   5.858   1.279   5.071 -0.2709  0.1481  0.0059
   36MOL   H27039540   5.710   1.228   5.151  1.1839 -0.2948  0.8212
   36MOL   H27139541   5.848   1.436   5.247 -2.3193  1.1196  3.0216
   36MOL   H27239542   5.677   1.465   5.239 -0.9467  0.5514 -1.3998
   36MOL   H27339543   5.845   1.540   5.004  1.8583  1.9494  0.5149
   36MOL   H27439544   5.685   1.586   5.036  0.1715 -0.7308 -0.9932
   36MOL   H27539545   5.894   1.656   5.239 -1.7903  1.3230  2.4161
   36MOL   H27639546   5.737   1.723   5.221  0.5527 -0.3467 -1.0521
   36MOL   H27739547   5.822   1.799   4.990  0.1717 -0.9014 -0.1722
   36MOL   H27839548   5.983   1.783   5.054 -0.1288 -0.5911 -0.3953
   36MOL   H27939549   5.772   1.964   5.161 -0.4627 -3.1897 -0.6918
   36MOL   H28039550   5.923   2.009   5.075 -0.8148  0.3120 -1.0821
   36MOL   H28139551   6.058   1.956   5.257 -0.0646 -0.5065 -3.4081
   36MOL   C28239552   5.914   1.939   5.390 -0.2106 -0.1533  0.0213
   36MOL   O28339553   5.799   1.935   5.421  0.4691  0.7143 -0.8035
   36MOL   C28439554   6.025   1.939   5.498 -0.1881 -0.0294 -0.8455
   36MOL   C28539555   5.997   1.830   5.605 -0.1766 -0.0613  0.5484
   36MOL   C28639556   6.023   1.687   5.566 -0.3221 -0.6237 -0.3717
   36MOL   C28739557   6.005   1.578   5.675  0.4406  0.1403 -0.4014
   36MOL   C28839558   5.860   1.541   5.695 -0.7959  0.6848  0.1238
   36MOL   C28939559   5.803   1.457   5.575  0.8146  0.0275  0.1134
   36MOL   C29039560   5.680   1.364   5.607 -0.3597  0.3549 -0.5682
   36MOL   C29139561   5.601   1.303   5.492 -0.2365 -0.2048  0.8111
   36MOL   C29239562   5.509   1.184   5.526  0.0157 -1.0013  0.1452
   36MOL   C29339563   5.437   1.126   5.405  0.4525  0.2241 -0.3989
   36MOL   C29439564   5.507   1.010   5.328 -0.1466 -0.3847 -0.2094
   36MOL   O29539565   5.538   0.903   5.388  0.1195 -0.0345 -0.3723
   36MOL   N29639566   5.534   1.028   5.200 -0.3602 -0.4697  0.2724
   36MOL   C29739567   5.615   0.936   5.117 -0.5685 -0.0907  0.2957
   36MOL   C29839568   5.565   0.925   4.975  0.0429 -0.1588  0.3442
   36MOL   C29939569   5.664   0.857   4.879 -0.3053  0.5229  0.9613
   36MOL   C30039570   5.600   0.836   4.740 -0.5260 -0.2909 -0.8559
   36MOL   C30139571   5.595   0.965   4.665  0.5136 -0.4752 -0.1780
   36MOL   C30239572   5.518   0.947   4.539  1.0660  0.5845  0.8852
   36MOL   N30339573   5.603   0.878   4.440  0.2347  1.4851  0.1958
   36MOL   H30439574   6.121   1.926   5.448  0.0663  2.1212 -0.9702
   36MOL   H30539575   6.026   2.041   5.536  0.2184 -0.0527 -0.7950
   36MOL   H30639576   5.900   1.845   5.653 -0.8665  1.3203 -1.1918
   36MOL   H30739577   6.064   1.847   5.689  0.3378 -2.7856  0.7428
   36MOL   H30839578   5.970   1.672   5.472 -1.0320  2.2442 -0.4928
   36MOL   H30939579   6.127   1.679   5.537 -0.5942  0.3470 -1.6300
   36MOL   H31039580   6.045   1.612   5.770  1.3761 -0.8898 -0.4183
   36MOL   H31139581   6.067   1.491   5.653  3.0683  1.5581  1.1107
   36MOL   H31239582   5.832   1.482   5.782  0.4612  0.4357  0.3546
   36MOL   H31339583   5.795   1.628   5.706 -0.2025  0.9198  1.9049
   36MOL   H31439584   5.778   1.517   5.487  1.0375 -0.0789 -0.0237
   36MOL   H31539585   5.880   1.388   5.540 -0.6985 -1.0546 -1.1787
   36MOL   H31639586   5.607   1.414   5.670 -2.2692 -1.0184 -1.6554
   36MOL   H31739587   5.714   1.286   5.675 -1.8567 -1.2588 -1.6426
   36MOL   H31839588   5.665   1.263   5.414 -2.1356 -2.0832  0.1893
   36MOL   H31939589   5.550   1.390   5.452  1.9116  1.1633  0.9234
   36MOL   H32039590   5.563   1.105   5.577  0.1306 -0.9087  0.1671
   36MOL   H32139591   5.432   1.212   5.599 -0.5931 -1.7523 -0.2080
   36MOL   H32239592   5.346   1.083   5.447 -0.1096  0.6671 -1.1392
   36MOL   H32339593   5.396   1.199   5.335 -0.2343  1.5068  1.3139
   36MOL   H32439594   5.485   1.100   5.149 -0.5653 -0.2024  0.8430
   36MOL   H32539595   5.630   0.834   5.149 -1.4449 -0.2196  0.3160
   36MOL   H32639596   5.712   0.986   5.114 -0.8900  0.6137  1.3082
   36MOL   H32739597   5.552   1.029   4.943  0.3285 -0.4558 -0.7569
   36MOL   H32839598   5.468   0.876   4.972  0.4773 -0.9535 -1.0090
   36MOL   H32939599   5.686   0.757   4.915  0.0127  0.0698 -0.4706
   36MOL   H33039600   5.761   0.906   4.878 -0.4291  0.7904 -1.8365
   36MOL   H33139601   5.669   0.768   4.690  0.9621  0.9937 -0.5718
   36MOL   H33239602   5.515   0.768   4.746 -0.5776 -0.0521  1.4112
   36MOL   H33339603   5.691   1.014   4.645  0.2878  0.5369  1.0950
   36MOL   H33439604   5.539   1.037   4.725  0.9222  0.0901 -0.4667
   36MOL   H33539605   5.430   0.885   4.554  1.3126  0.2761  1.0574
   36MOL   H33639606   5.484   1.038   4.489 -0.2538 -1.1728 -1.4791
   36MOL   H33739607   5.679   0.934   4.404  0.3366  0.1144 -1.7946
   36MOL   C33839608   5.584   0.760   4.379 -0.3996 -0.3408  0.5263
   36MOL   O33939609   5.479   0.701   4.400  0.1077 -0.3215 -0.2943
   36MOL   C34039610   5.683   0.707   4.275 -0.0846  0.2563  0.1106
   36MOL   C34139611   5.628   0.623   4.158 -0.1959 -0.3257 -0.1503
   36MOL   C34239612   5.520   0.683   4.063  0.1234 -0.0208  0.3532
   36MOL   C34339613   5.557   0.808   3.971  1.1458  0.6187  0.2014
   36MOL   C34439614   5.577   0.933   4.053 -0.2520  0.0940  0.2471
   36MOL   C34539615   5.606   1.053   3.958  0.0571  0.1397 -0.4757
   36MOL   C34639616   5.489   1.084   3.866 -0.7123 -0.0954  0.2150
   36MOL   C34739617   5.525   1.207   3.776  0.0997  0.7190 -0.6602
   36MOL   C34839618   5.409   1.270   3.704 -0.3267  0.5901  0.1386
   36MOL   C34939619   5.441   1.394   3.618 -0.5613  0.4462 -0.5450
   36MOL   C35039620   5.322   1.446   3.543  0.4248 -0.3521 -0.0971
   36MOL   O35139621   5.279   1.374   3.457  0.1982 -0.0236 -0.9084
   36MOL   N35239622   5.277   1.569   3.568  0.7681 -0.6224 -0.0636
   36MOL   C35339623   5.149   1.622   3.513 -1.4058  0.0178  0.8667
   36MOL   C35439624   5.089   1.741   3.595  0.3854 -0.2180  0.6125
   36MOL   C35539625   5.020   1.698   3.724 -0.2961  0.0260 -0.2765
   36MOL   C35639626   4.963   1.822   3.791 -0.8154  1.0016  0.2029
   36MOL   C35739627   4.875   1.791   3.917 -0.0648  0.1272 -0.1383
   36MOL   C35839628   4.826   1.910   3.997 -0.0007 -0.1984 -0.0133
   36MOL   N35939629   4.751   1.883   4.120 -0.5587 -0.3008 -0.2885
   36MOL   H36039630   5.750   0.643   4.333  1.3883 -0.1754 -2.0106
   36MOL   H36139631   5.756   0.783   4.247 -0.0698 -0.1765 -1.0562
   36MOL   H36239632   5.715   0.600   4.096 -0.4180  0.1172 -0.6261
   36MOL   H36339633   5.594   0.528   4.201  2.3577  0.2059  3.2809
   36MOL   H36439634   5.430   0.706   4.119 -0.6068 -1.0424 -0.3748
   36MOL   H36539635   5.478   0.603   4.002 -0.8958 -1.0272  2.3600
   36MOL   H36639636   5.642   0.786   3.907  0.8007  0.4706 -0.2116
   36MOL   H36739637   5.469   0.814   3.906  0.4293  0.1902  1.1165
   36MOL   H36839638   5.499   0.954   4.126 -2.4063  0.2793 -2.0356
   36MOL   H36939639   5.671   0.915   4.106  0.4308 -2.7635 -1.8207
   36MOL   H37039640   5.612   1.132   4.033 -1.6106 -0.8364  0.7459
   36MOL   H37139641   5.703   1.047   3.909  1.3185  0.1549  1.9292
   36MOL   H37239642   5.474   1.005   3.793  0.9783 -0.4622  0.2291
   36MOL   H37339643   5.398   1.101   3.923 -0.4341  2.9549 -0.1428
   36MOL   H37439644   5.569   1.286   3.836 -1.4714  0.6220  0.6521
   36MOL   H37539645   5.609   1.184   3.710  1.3223  2.1258  0.3663
   36MOL   H37639646   5.329   1.295   3.773  0.1654 -1.0025  1.3294
   36MOL   H37739647   5.367   1.191   3.641  0.9177  1.5962 -2.0186
   36MOL   H37839648   5.485   1.478   3.672 -0.2634 -0.8294  1.2429
   36MOL   H37939649   5.506   1.362   3.537  0.8634 -0.0299  0.7595
   36MOL   H38039650   5.305   1.626   3.646  2.2516 -0.8274 -0.4397
   36MOL   H38139651   5.076   1.545   3.487 -1.0342  0.3551 -1.2134
   36MOL   H38239652   5.169   1.651   3.410  3.2015 -2.4926  0.9144
   36MOL   H38339653   5.016   1.791   3.532  0.7697  1.1419  1.2114
   36MOL   H38439654   5.170   1.810   3.620 -1.3884  2.6228 -1.1435
   36MOL   H38539655   4.932   1.642   3.692 -1.0635  1.1587 -0.1861
   36MOL   H38639656   5.089   1.648   3.792  1.9817  3.8399  0.3244
   36MOL   H38739657   5.052   1.879   3.819  0.4192 -0.1533 -1.2883
   36MOL   H38839658   4.900   1.887   3.731 -1.0237 -0.1075 -0.7907
   36MOL   H38939659   4.921   1.716   3.981 -0.2286  0.4844  0.3993
   36MOL   H39039660   4.788   1.733   3.887  0.8255 -0.8984 -0.7815
   36MOL   H39139661   4.915   1.955   4.041 -0.0379 -0.9857  0.8660
   36MOL   H39239662   4.776   1.979   3.929  1.3552  0.6871 -0.1354
   36MOL   H39339663   4.783   1.810   4.181 -1.6088  0.8158  1.6351
   36MOL   C39439664   4.638   1.941   4.161 -0.7595  0.0134 -0.5432
   36MOL   O39539665   4.580   2.028   4.100 -0.8102 -0.3746 -0.1237
   36MOL   C39639666   4.584   1.895   4.295  0.0816 -0.1663 -0.4253
   36MOL   C39739667   4.436   1.848   4.279 -0.0626 -0.2017  0.7644
   36MOL   C39839668   4.424   1.697   4.240 -0.6262 -0.9818  0.0960
   36MOL   C39939669   4.281   1.655   4.205  0.4171  0.1415 -0.1817
   36MOL   C40039670   4.178   1.634   4.317  0.6480  0.9496  0.1339
   36MOL   C40139671   4.038   1.622   4.266 -0.2461  0.1729  0.7393
   36MOL   C40239672   3.939   1.654   4.376  0.3339  0.0878  0.0387
   36MOL   C40339673   3.800   1.615   4.336  0.4836 -0.6756 -0.8257
   36MOL   C40439674   3.688   1.666   4.442  0.4087 -0.0113  0.1195
   36MOL   C40539675   3.702   1.598   4.579  0.4979  0.2133  0.0139
   36MOL   C40639676   3.647   1.460   4.584 -0.4074  0.9051  0.0991
   36MOL   O40739677   3.526   1.440   4.571  0.5307  0.2585  0.3927
   36MOL   N40839678   3.743   1.370   4.606 -0.0198  0.2786  0.2686
   36MOL   C40939679   3.717   1.222   4.619  0.3361  0.0922 -0.4100
   36MOL   C41039680   3.677   1.171   4.484  0.5523  0.4722  0.8097
   36MOL   C41139681   3.781   1.174   4.370  0.5471 -0.3557  0.3866
   36MOL   C41239682   3.707   1.176   4.239  0.1885 -0.0633  0.6922
   36MOL   C41339683   3.653   1.034   4.205  0.3832  0.0439  0.0750
   36MOL   C41439684   3.628   1.018   4.054 -0.9195 -0.1675 -0.1151
   36MOL   N41539685   3.574   0.886   4.029  0.0196 -0.2558 -0.8585
   36MOL   H41639686   4.594   1.985   4.356 -0.0393 -2.2954  2.8519
   36MOL   H41739687   4.639   1.819   4.351 -0.7470 -0.2258  0.3128
   36MOL   H41839688   4.387   1.906   4.201 -0.7369 -1.7496  0.0135
   36MOL   H41939689   4.395   1.874   4.377  0.2985  1.8314  0.4000
   36MOL   H42039690   4.464   1.629   4.316 -1.4462 -0.3701  1.0847
   36MOL   H42139691   4.497   1.681   4.161 -0.1125  0.3646  0.2871
   36MOL   H42239692   4.293   1.563   4.148  2.2449 -0.2999  0.8656
   36MOL   H42339693   4.234   1.719   4.131 -0.5043  2.0942  2.0244
   36MOL   H42439694   4.215   1.550   4.375  0.1517  0.4803 -0.2267
   36MOL   H42539695   4.177   1.714   4.392  1.2788  0.2823  0.8630
   36MOL   H42639696   4.020   1.691   4.183 -0.8984  1.3824  1.8605
   36MOL   H42739697   4.030   1.524   4.220  2.2259 -0.0577  0.7170
   36MOL   H42839698   3.972   1.588   4.456 -0.5444  0.2575  0.5431
   36MOL   H42939699   3.956   1.755   4.411  0.7616 -0.4547  1.4257
   36MOL   H43039700   3.773   1.657   4.239 -1.6651 -0.3324 -0.1221
   36MOL   H43139701   3.795   1.506   4.329 -0.9101 -0.6744 -0.0485
   36MOL   H43239702   3.596   1.633   4.393  0.2577 -1.3917  1.2745
   36MOL   H43339703   3.689   1.774   4.453 -1.3272 -0.2362  3.4198
   36MOL   H43439704   3.806   1.606   4.612  0.7534 -1.4450 -0.3701
   36MOL   H43539705   3.651   1.660   4.653  0.5563 -2.5226  2.4217
   36MOL   H43639706   3.836   1.410   4.607 -0.2058  0.7142  0.2691
   36MOL   H43739707   3.635   1.203   4.688  0.9637  0.7162  0.5146
   36MOL   H43839708   3.793   1.162   4.669 -0.3601 -0.3434  0.1342
   36MOL   H43939709   3.589   1.221   4.443  2.2769  2.7474 -0.1715
   36MOL   H44039710   3.654   1.066   4.501  1.3178  0.1213 -0.2679
   36MOL   H44139711   3.836   1.267   4.380 -1.2020  0.4134  3.4303
   36MOL   H44239712   3.866   1.108   4.382  1.9504  0.4805 -4.0326
   36MOL   H44339713   3.629   1.252   4.235  0.7172  0.4303 -0.2866
   36MOL   H44439714   3.768   1.204   4.153 -0.0711  0.8566  0.8003
   36MOL   H44539715   3.718   0.958   4.248 -0.0928  0.5789  1.7871
   36MOL   H44639716   3.558   1.015   4.255 -0.4763  0.7353 -1.2701
   36MOL   H44739717   3.549   1.080   4.012  0.3630  0.6540 -1.3520
   36MOL   H44839718   3.728   1.029   4.010 -0.6992 -1.0657  0.1502
   36MOL   H44939719   3.522   0.851   4.108 -2.6968  0.0187 -2.4650
   36MOL   C45039720   3.582   0.816   3.916 -0.0308 -0.2417  0.0155
   36MOL   O45139721   3.631   0.872   3.820 -0.5457 -0.0228 -0.5611
   36MOL   C45239722   3.517   0.674   3.909 -0.0962 -0.6571 -0.1522
   36MOL   C45339723   3.402   0.657   3.806  0.7514  0.0113 -0.5887
   36MOL   C45439724   3.309   0.778   3.781  0.3075 -0.3552  0.3433
   36MOL   C45539725   3.180   0.730   3.715  0.2938  0.5359 -0.0870
   36MOL   C45639726   3.191   0.678   3.573 -0.1043  0.4935  0.4992
   36MOL   C45739727   3.048   0.681   3.511  0.2894  0.4259  0.4073
   36MOL   C45839728   3.061   0.663   3.353 -0.4632 -0.3639 -0.3012
   36MOL   C45939729   2.927   0.686   3.276 -0.4667  0.5120 -0.6927
   36MOL   C46039730   2.807   0.597   3.319  0.1016 -0.5336  0.3318
   36MOL   C46139731   2.673   0.628   3.240 -0.2620  0.4199 -0.0369
   36MOL   C46239732   2.682   0.618   3.091  0.2451 -0.2566  0.4914
   36MOL   O46339733   2.693   0.513   3.024 -0.5465  0.1809  0.1731
   36MOL   N46439734   2.665   0.737   3.026 -0.7283 -0.1425 -0.3373
   36MOL   C46539735   2.692   0.756   2.884  0.2435  0.2014  0.0092
   36MOL   C46639736   2.745   0.899   2.863  0.4367 -0.4209  0.2932
   36MOL   C46739737   2.897   0.912   2.881 -0.3147  0.0960  0.3501
   36MOL   C46839738   2.982   0.853   2.763  0.2733  0.5340  0.3697
   36MOL   C46939739   3.125   0.895   2.762  0.7985 -0.4553  0.0299
   36MOL   C47039740   3.214   0.834   2.876  0.7608  0.5183 -0.3468
   36MOL   N47139741   3.339   0.909   2.886 -0.5168  0.5280 -0.4538
   36MOL   H47239742   3.590   0.599   3.881  1.9949  0.4143  2.2315
   36MOL   H47339743   3.477   0.639   4.004  1.0609 -1.7493 -0.0586
   36MOL   H47439744   3.347   0.567   3.832 -0.6120  0.8653 -0.4714
   36MOL   H47539745   3.456   0.634   3.714  3.9288 -0.2010  1.2529
   36MOL   H47639746   3.364   0.848   3.718  0.3060 -0.9683 -0.3432
   36MOL   H47739747   3.287   0.846   3.862 -2.5524  0.5680 -1.1468
   36MOL   H47839748   3.112   0.815   3.710 -1.1767 -0.5574  0.5553
   36MOL   H47939749   3.137   0.655   3.783  3.1098 -1.2037 -0.1309
   36MOL   H48039750   3.242   0.583   3.555  0.3488  0.7592  0.3986
   36MOL   H48139751   3.244   0.766   3.538  2.0948 -0.6814  0.7922
   36MOL   H48239752   3.003   0.777   3.535  1.9272  1.5218 -0.7790
   36MOL   H48339753   2.986   0.602   3.554  0.4346  0.0376 -0.0870
   36MOL   H48439754   3.126   0.742   3.318 -3.3122  2.1796 -0.0899
   36MOL   H48539755   3.104   0.566   3.328 -0.3051 -0.6708  1.1045
   36MOL   H48639756   2.893   0.790   3.281  0.1930  0.6280  2.0015
   36MOL   H48739757   2.938   0.680   3.168  0.2030  3.0136 -0.7848
   36MOL   H48839758   2.799   0.602   3.428  1.1247  0.7262  0.3635
   36MOL   H48939759   2.836   0.491   3.319 -1.3707 -0.9497  0.5131
   36MOL   H49039760   2.594   0.559   3.272  1.5194 -1.4252  0.5275
   36MOL   H49139761   2.627   0.723   3.268  0.3398  0.3242  1.2952
   36MOL   H49239762   2.653   0.824   3.076 -2.3222 -0.4099 -0.1992
   36MOL   H49339763   2.595   0.738   2.838 -0.1860  0.1855  0.9034
   36MOL   H49439764   2.759   0.680   2.843 -1.5423 -1.0535 -0.6170
   36MOL   H49539765   2.713   0.924   2.762  1.6940 -0.0867 -0.0242
   36MOL   H49639766   2.696   0.965   2.935  0.7152  0.3559 -0.2236
   36MOL   H49739767   2.944   0.871   2.970  2.1671 -1.7358 -1.7151
   36MOL   H49839768   2.911   1.020   2.878  1.1467 -0.0372  1.9652
   36MOL   H49939769   2.940   0.876   2.665 -2.8223 -1.2506  1.1966
   36MOL   H50039770   2.978   0.744   2.763  2.2329  0.4302 -1.4986
   36MOL   H50139771   3.167   0.860   2.667 -0.7243  1.6302 -1.4554
   36MOL   H50239772   3.136   1.003   2.770  3.1504 -0.4776 -2.1457
   36MOL   H50339773   3.160   0.853   2.968  1.3758  0.3234  0.0554
   36MOL   H50439774   3.228   0.726   2.883  2.0090  0.8415  2.7991
   36MOL   H50539775   3.325   1.004   2.918  0.1726  0.6360 -0.4749
   36MOL   C50639776   3.458   0.878   2.839  0.1053  0.6192 -0.3915
   36MOL   O50739777   3.484   0.775   2.778  0.1455  0.3363  0.2839
   36MOL   C50839778   3.562   0.976   2.882 -0.4107  0.0141 -1.2174
   36MOL   C50939779   3.708   0.947   2.825  0.2620 -0.2048  0.1825
   36MOL   C51039780   3.813   1.050   2.875  0.3571  0.9091  0.7124
   36MOL   C51139781   3.807   1.180   2.793  0.3790 -0.2870 -0.0855
   36MOL   C51239782   3.932   1.274   2.799 -0.1781  0.1332 -0.4040
   36MOL   C51339783   3.922   1.406   2.727 -0.0071 -0.4350 -0.9036
   36MOL   C51439784   4.058   1.475   2.716 -0.7411 -0.2533 -0.5392
   36MOL   C51539785   4.033   1.622   2.688 -0.0254  0.3097 -0.4699
   36MOL   C51639786   3.958   1.661   2.565  0.1065  0.5571 -1.3008
   36MOL   C51739787   3.950   1.813   2.556  0.0568 -0.6708 -0.4535
   36MOL   C51839788   3.909   1.861   2.418  0.6961  0.1816 -0.3938
   36MOL   O51939789   3.906   1.780   2.323 -0.6579 -0.3571  0.0402
   36MOL   N52039790   3.861   1.989   2.405  0.0010  0.0755 -0.7867
   36MOL   C52139791   3.802   2.052   2.283  0.1871 -0.2425  0.0798
   36MOL   C52239792   3.710   2.172   2.312 -0.8004 -0.2571  0.1875
   36MOL   C52339793   3.707   2.276   2.197  0.1474 -0.6895  0.0124
   36MOL   C52439794   3.641   2.411   2.240 -0.0101  0.0388  0.6633
   36MOL   C52539795   3.633   2.506   2.120  0.2776  0.3043 -0.4547
   36MOL   C52639796   3.600   2.652   2.152  1.2577  0.2195 -0.0670
   36MOL   N52739797   3.652   2.730   2.041 -0.7544 -0.9539  1.1466
   36MOL   H52839798   3.560   0.988   2.990  0.1582  1.8786 -1.3955
   36MOL   H52939799   3.538   1.074   2.843  0.7424 -0.1517 -2.3722
   36MOL   H53039800   3.704   0.942   2.716 -0.2719  0.4085  0.1717
   36MOL   H53139801   3.742   0.848   2.856 -1.1281 -0.4847  0.8655
   36MOL   H53239802   3.912   1.008   2.863  0.4376  1.3413 -0.1877
   36MOL   H53339803   3.801   1.066   2.983 -1.9718 -1.3851  0.8365
   36MOL   H53439804   3.796   1.158   2.687  0.1289 -2.2984  0.3273
   36MOL   H53539805   3.723   1.242   2.824  0.0405 -1.5117  1.5092
   36MOL   H53639806   3.952   1.293   2.904  2.2729 -0.6517 -0.7048
   36MOL   H53739807   4.023   1.217   2.777 -0.8749 -0.6101 -1.4425
   36MOL   H53839808   3.882   1.402   2.626 -0.6423  3.3327 -0.8559
   36MOL   H53939809   3.849   1.465   2.782  1.7411 -0.0744  1.1189
   36MOL   H54039810   4.119   1.462   2.805  0.4773 -1.4554 -1.5412
   36MOL   H54139811   4.098   1.414   2.635  3.4887  2.3411 -0.5885
   36MOL   H54239812   3.978   1.664   2.772 -1.3169 -2.5478  0.1807
   36MOL   H54339813   4.124   1.682   2.689  0.9814 -1.1774 -1.4725
   36MOL   H54439814   3.862   1.611   2.563  0.5432 -0.4005  0.7811
   36MOL   H54539815   4.009   1.607   2.485  1.9865 -1.3873  1.1161
   36MOL   H54639816   3.878   1.854   2.626  0.8408  0.5413 -0.3230
   36MOL   H54739817   4.045   1.861   2.580 -0.3299  0.9195 -2.0158
   36MOL   H54839818   3.844   2.039   2.491 -0.5783 -3.0462  0.9721
   36MOL   H54939819   3.742   1.976   2.234  0.8097 -0.5006 -0.2800
   36MOL   H55039820   3.886   2.080   2.220 -0.3081  1.2238  0.0529
   36MOL   H55139821   3.750   2.227   2.397  0.3228 -2.0256  0.8464
   36MOL   H55239822   3.611   2.144   2.348  0.1130 -2.7438  0.9170
   36MOL   H55339823   3.659   2.232   2.109 -1.0010  1.1388 -0.2983
   36MOL   H55439824   3.813   2.296   2.180  0.1244 -0.5431  0.0415
   36MOL   H55539825   3.697   2.442   2.329 -1.3055  1.0607  1.1349
   36MOL   H55639826   3.541   2.390   2.275 -0.4960 -0.3838 -0.9256
   36MOL   H55739827   3.731   2.506   2.072  0.0009  0.3119 -1.0209
   36MOL   H55839828   3.563   2.472   2.044 -1.7300 -1.0176  1.9176
   36MOL   H55939829   3.492   2.670   2.157  1.2138 -0.4851  1.8019
   36MOL   H56039830   3.648   2.693   2.240  0.9640  1.0295 -0.2766
   36MOL   H56139831   3.752   2.738   2.033 -1.0157  0.5369 -1.1094
   36MOL   C56239832   3.581   2.775   1.938  0.0111  0.3066 -0.1459
   36MOL   O56339833   3.459   2.754   1.932 -0.1990  0.2429  0.0032
   36MOL   C56439834   3.655   2.854   1.830  0.0020 -0.7892 -0.6308
   36MOL   C56539835   3.630   3.002   1.855 -0.4308  0.1420 -0.0025
   36MOL   C56639836   3.529   3.069   1.762 -0.6907 -1.1966  0.9006
   36MOL   C56739837   3.479   3.215   1.796  0.5989 -0.0756  0.3691
   36MOL   C56839838   3.409   3.232   1.936 -0.1168  0.0130  0.1865
   36MOL   C56939839   3.296   3.130   1.963 -0.0897  0.3121 -0.3504
   36MOL   C57039840   3.218   3.142   2.101  0.3727  0.5919 -0.0950
   36MOL   C57139841   3.276   3.053   2.212 -0.1226 -0.0660 -0.1054
   36MOL   C57239842   3.221   3.080   2.353  0.1640  0.1752 -0.4835
   36MOL   C57339843   3.279   2.985   2.461  0.8305  0.2288  0.2286
   36MOL   C57439844   3.225   2.848   2.454  0.1202  0.0778 -1.0554
   36MOL   O57539845   3.100   2.835   2.449 -0.3157  0.1692  0.3830
   36MOL   N57639846   3.316   2.750   2.452  0.2661  0.7980 -0.1834
   36MOL   C57739847   3.293   2.606   2.419 -0.0678 -0.1953 -0.3878
   36MOL   C57839848   3.382   2.523   2.503 -0.0567 -0.4445 -0.3971
   36MOL   C57939849   3.360   2.377   2.515 -0.0112 -0.1210  0.0435
   36MOL   C58039850   3.475   2.314   2.589 -0.3284  0.3014 -0.3454
   36MOL   C58139851   3.469   2.162   2.606  0.3699 -0.0612 -0.1620
   36MOL   C58239852   3.595   2.102   2.669  0.1821 -1.4268  0.3222
   36MOL   N58339853   3.576   1.963   2.693 -0.1782  0.7217 -0.3157
   36MOL   H58439854   3.761   2.828   1.833  0.0923 -0.2456  1.2454
   36MOL   H58539855   3.621   2.812   1.735 -2.1043 -0.8418  0.1285
   36MOL   H58639856   3.606   3.013   1.961  1.7247 -0.5238  0.5816
   36MOL   H58739857   3.726   3.052   1.849 -0.7032  0.6049 -0.5793
   36MOL   H58839858   3.446   3.003   1.737 -0.7560  0.3357 -3.3842
   36MOL   H58939859   3.583   3.066   1.668 -0.8421 -1.0463  0.8089
   36MOL   H59039860   3.570   3.275   1.796 -0.7527  2.1226  3.3321
   36MOL   H59139861   3.412   3.250   1.717  0.8366 -0.3322  0.0569
   36MOL   H59239862   3.484   3.240   2.014 -2.4137  0.8070  2.3696
   36MOL   H59339863   3.375   3.334   1.949  0.0186  0.1526 -0.5250
   36MOL   H59439864   3.220   3.151   1.888 -0.3682 -1.0018 -0.4560
   36MOL   H59539865   3.345   3.033   1.963 -0.3379  0.0740  3.4958
   36MOL   H59639866   3.222   3.245   2.138 -0.3600  0.3952  0.5496
   36MOL   H59739867   3.112   3.128   2.082  0.4238 -1.5453  0.9896
   36MOL   H59839868   3.381   3.085   2.211  0.1723 -0.9539  1.3383
   36MOL   H59939869   3.283   2.947   2.186  0.5410 -0.0328 -0.0870
   36MOL   H60039870   3.113   3.068   2.351  0.0986  0.1043  2.1447
   36MOL   H60139871   3.236   3.187   2.367  0.5056  0.1623 -0.7452
   36MOL   H60239872   3.387   2.995   2.448  0.4987  2.5503 -1.1758
   36MOL   H60339873   3.257   3.016   2.563 -0.1383  0.6624 -0.1047
   36MOL   H60439874   3.410   2.779   2.476  0.6735 -0.6614  0.0532
   36MOL   H60539875   3.306   2.584   2.313  1.3573  0.2167 -0.3107
   36MOL   H60639876   3.190   2.576   2.432  0.5492 -1.8425  0.8389
   36MOL   H60739877   3.364   2.563   2.603  2.4734  3.1301 -1.2774
   36MOL   H60839878   3.484   2.552   2.476 -0.7699  1.2516 -1.3305
   36MOL   H60939879   3.345   2.343   2.413 -1.1726 -0.5621  0.3548
   36MOL   H61039880   3.266   2.359   2.565 -0.8103 -0.9485 -1.7176
   36MOL   H61139881   3.573   2.340   2.548 -0.6329 -1.9280 -2.6584
   36MOL   H61239882   3.476   2.364   2.686  0.8556  0.8423 -0.6294
   36MOL   H61339883   3.465   2.111   2.510 -0.1620  0.4986 -0.4421
   36MOL   H61439884   3.376   2.133   2.656 -1.6606  0.9138 -3.2262
   36MOL   H61539885   3.685   2.107   2.607  1.1671 -0.1791  1.8024
   36MOL   H61639886   3.614   2.157   2.761 -0.5886 -0.2029 -0.2437
   36MOL   H61739887   3.502   1.917   2.643  0.7941 -0.5936 -0.5694
   36MOL   C61839888   3.645   1.898   2.784  0.6251  0.0681 -0.6550
   36MOL   O61939889   3.732   1.953   2.853 -0.7896 -0.5828  0.0900
   36MOL   C62039890   3.600   1.752   2.806 -0.2002  0.4577  0.2319
   36MOL   C62139891   3.640   1.696   2.946 -0.1495  0.1454 -0.4241
   36MOL   C62239892   3.584   1.763   3.073 -0.3200  0.4983 -0.1881
   36MOL   C62339893   3.610   1.677   3.202  0.0239  0.0535  0.8215
   36MOL   C62439894   3.549   1.742   3.326  0.7470 -0.2421 -0.1122
   36MOL   C62539895   3.569   1.660   3.464  0.0686 -0.3792 -0.5320
   36MOL   C62639896   3.521   1.512   3.474  0.2982  0.0238  1.0339
   36MOL   C62739897   3.372   1.479   3.413  0.1902  0.2668  0.3077
   36MOL   C62839898   3.258   1.505   3.511  0.0597 -0.0946 -0.0991
   36MOL   C62939899   3.119   1.495   3.442 -0.6268 -0.0428  0.3310
   36MOL   C63039900   3.006   1.474   3.544  0.3176 -0.0964 -0.0446
   36MOL   O63139901   3.037   1.429   3.658  0.0003 -0.3722  0.1164
   36MOL   N63239902   2.884   1.501   3.508 -0.7496  0.2773  0.0418
   36MOL   C63339903   2.762   1.499   3.588 -0.3916  0.0933  0.7543
   36MOL   C63439904   2.654   1.435   3.501  0.2728 -0.3245 -0.7771
   36MOL   C63539905   2.526   1.405   3.582 -0.2570 -0.2833  1.1482
   36MOL   C63639906   2.413   1.335   3.501  0.0166  0.9987 -1.1958
   36MOL   C63739907   2.274   1.345   3.573 -0.7141  1.0219  0.2473
   36MOL   C63839908   2.190   1.466   3.549  0.6301 -0.2065  0.6221
   36MOL   N63939909   2.251   1.591   3.590 -0.1570 -0.0891 -0.6267
   36MOL   H64039910   3.642   1.689   2.727 -0.3354 -0.6263  1.0182
   36MOL   H64139911   3.492   1.745   2.798 -0.0130 -3.2671 -0.0649
   36MOL   H64239912   3.749   1.688   2.948 -0.1961 -0.6025  2.5161
   36MOL   H64339913   3.611   1.591   2.942 -0.6562  0.1712  1.7311
   36MOL   H64439914   3.478   1.782   3.057 -0.7520 -1.1599  0.5782
   36MOL   H64539915   3.620   1.865   3.085 -0.0859  0.0250  3.8811
   36MOL   H64639916   3.564   1.579   3.185 -2.4105  1.6227 -2.3118
   36MOL   H64739917   3.718   1.677   3.208  0.1960 -0.3556 -1.7275
   36MOL   H64839918   3.593   1.840   3.339 -1.5081  0.9270 -0.9734
   36MOL   H64939919   3.441   1.758   3.322  0.8605  0.2537 -1.1547
   36MOL   H65039920   3.518   1.715   3.543 -1.8954  1.1872 -2.7929
   36MOL   H65139921   3.669   1.670   3.505  0.5567  0.3720 -1.8863
   36MOL   H65239922   3.592   1.445   3.425  0.2164  0.5857  0.1477
   36MOL   H65339923   3.515   1.477   3.577 -1.4102 -0.0436  0.9257
   36MOL   H65439924   3.359   1.538   3.322  0.5460 -0.7653 -0.4280
   36MOL   H65539925   3.374   1.374   3.384  1.8562  0.6981 -1.2191
   36MOL   H65639926   3.267   1.601   3.562  0.3368 -0.3241  0.2864
   36MOL   H65739927   3.267   1.424   3.582  0.2135  1.3027  1.4984
   36MOL   H65839928   3.097   1.586   3.385  0.5901  1.3101  1.9796
   36MOL   H65939929   3.128   1.408   3.377  1.9300 -0.4646  1.1853
   36MOL   H66039930   2.860   1.518   3.411 -1.3231 -2.4827 -0.3335
   36MOL   H66139931   2.780   1.448   3.682 -1.6008 -1.3085  0.2528
   36MOL   H66239932   2.727   1.601   3.600  0.1485  0.5220 -1.1019
   36MOL   H66339933   2.687   1.338   3.462  1.1695  0.2683 -1.5376
   36MOL   H66439934   2.630   1.506   3.421  1.0729 -0.8215 -1.4763
   36MOL   H66539935   2.544   1.356   3.678 -0.3006 -0.4872  1.0511
   36MOL   H66639936   2.488   1.505   3.601  0.6817  0.6233 -1.4675
   36MOL   H66739937   2.457   1.238   3.476 -0.1559  0.7445 -0.5297
   36MOL   H66839938   2.399   1.383   3.404 -1.1562  0.1348 -1.4725
   36MOL   H66939939   2.215   1.262   3.533 -1.2077  0.5505  1.8953
   36MOL   H67039940   2.283   1.341   3.682  0.4719  2.7611  0.2134
   36MOL   H67139941   2.172   1.475   3.442  2.5249 -2.0476  0.1137
   36MOL   H67239942   2.097   1.466   3.606 -0.1264  0.4565 -0.6057
   36MOL   H67339943   2.330   1.580   3.653 -0.3375  0.9918 -0.1957
   36MOL   C67439944   2.230   1.710   3.538 -0.0159 -0.1280  0.1858
   36MOL   O67539945   2.152   1.729   3.445 -0.1799 -0.5586  0.2228
   36MOL   C67639946   2.310   1.830   3.598  0.1112  0.1793 -0.6692
   36MOL   C67739947   2.224   1.961   3.605  0.0029 -0.2856  0.1879
   36MOL   C67839948   2.102   1.957   3.702  0.3797  0.8028 -0.2325
   36MOL   C67939949   2.137   1.964   3.851 -0.2339 -0.0653  0.1111
   36MOL   C68039950   2.016   1.957   3.939 -0.5153 -0.0229 -0.5411
   36MOL   C68139951   2.047   1.951   4.089  0.3110 -0.2196 -0.0816
   36MOL   C68239952   2.066   2.093   4.148  0.1059 -0.2203 -0.7490
   36MOL   C68339953   1.946   2.180   4.151  0.8270  0.1422  0.4115
   36MOL   C68439954   1.978   2.315   4.210  0.5806  0.3266  0.4016
   36MOL   C68539955   1.863   2.406   4.239 -0.3161  0.2863  0.1619
   36MOL   C68639956   1.766   2.358   4.345 -0.2205  0.0779  0.5739
   36MOL   O68739957   1.763   2.245   4.384  0.4981  0.2011  0.4243
   36MOL   N68839958   1.697   2.460   4.398  0.5261 -0.1031 -0.3015
   36MOL   C68939959   1.618   2.456   4.522 -1.0285  0.7291 -0.0563
   36MOL   C69039960   1.593   2.591   4.586  0.0395 -0.6316 -0.2677
   36MOL   C69139961   1.475   2.598   4.684 -0.1657 -0.1009 -0.4104
   36MOL   C69239962   1.480   2.727   4.760 -0.3133 -0.5615 -0.5322
   36MOL   C69339963   1.338   2.786   4.777 -0.4257  0.4914 -0.0729
   36MOL   C69439964   1.252   2.681   4.866 -0.1485  0.1502  0.0238
   36MOL   N69539965   1.109   2.727   4.887  0.0203 -0.3963  0.1198
   36MOL   H69639966   2.399   1.853   3.540  0.4826  1.5311  0.4077
   36MOL   H69739967   2.350   1.808   3.697  1.3134  3.4571 -0.3548
   36MOL   H69839968   2.196   1.988   3.503 -0.0487 -0.7290  0.0827
   36MOL   H69939969   2.296   2.029   3.648 -0.8579  1.6557 -1.3250
   36MOL   H70039970   2.047   2.048   3.678 -0.2862  0.1850 -1.1050
   36MOL   H70139971   2.028   1.877   3.694 -0.6027  1.8028 -1.3867
   36MOL   H70239972   2.208   2.043   3.874  0.4875 -0.1094 -1.8865
   36MOL   H70339973   2.200   1.879   3.876 -0.9965 -0.4390  0.8098
   36MOL   H70439974   1.956   1.867   3.926 -3.0349  1.3640  0.9725
   36MOL   H70539975   1.962   2.048   3.914  0.8829  0.6784 -1.0857
   36MOL   H70639976   1.964   1.897   4.136 -0.8296  3.0487  1.8657
   36MOL   H70739977   2.135   1.888   4.102 -0.0837 -0.2480  2.8146
   36MOL   H70839978   2.101   2.070   4.248 -2.9172 -2.0594 -0.0612
   36MOL   H70939979   2.145   2.145   4.094 -0.1594  1.9122  0.8661
   36MOL   H71039980   1.898   2.197   4.054  0.9611  2.4573  0.7351
   36MOL   H71139981   1.880   2.117   4.211  0.0814 -0.8797 -1.4234
   36MOL   H71239982   2.033   2.377   4.138  2.7460  0.6084  2.2321
   36MOL   H71339983   2.035   2.310   4.303 -1.6003  0.7550  1.7758
   36MOL   H71439984   1.899   2.507   4.257  0.4427  0.3612 -1.5943
   36MOL   H71539985   1.805   2.427   4.149 -1.2533 -0.1850  0.6506
   36MOL   H71639986   1.696   2.547   4.346  0.3364  0.1950  0.1977
   36MOL   H71739987   1.523   2.408   4.502  0.1853 -1.7441 -0.0977
   36MOL   H71839988   1.683   2.397   4.587  0.3438  0.4760 -1.6110
   36MOL   H71939989   1.560   2.654   4.504  1.0518 -2.1344 -1.8872
   36MOL   H72039990   1.687   2.631   4.625 -1.7696  2.4974  1.0419
   36MOL   H72139991   1.384   2.572   4.631  0.0280  0.7579 -1.1681
   36MOL   H72239992   1.481   2.509   4.748 -1.1273 -0.4284 -0.7722
   36MOL   H72339993   1.531   2.804   4.704 -0.8785 -0.6285 -1.1470
   36MOL   H72439994   1.525   2.727   4.860 -1.2380 -1.9680 -0.0902
   36MOL   H72539995   1.282   2.785   4.684 -0.5682  1.1579  0.0017
   36MOL   H72639996   1.334   2.885   4.823 -0.4049  1.6111 -2.4246
   36MOL   H72739997   1.254   2.582   4.819  1.5676  0.1744 -0.0126
   36MOL   H72839998   1.302   2.672   4.962  0.9788 -0.9652 -0.6393
   36MOL   H72939999   1.090   2.771   4.976 -0.3210 -0.6805  0.1897
   36MOL   C73040000   1.014   2.725   4.794 -0.5307  0.4231  0.3740
   36MOL   O73140001   1.036   2.675   4.684 -0.6922 -0.2830  0.2669
   36MOL   C73240002   0.875   2.777   4.831  0.4417  0.4897 -0.1600
   36MOL   C73340003   0.865   2.925   4.809  0.3139  0.0300  1.0020
   36MOL   C73440004   0.909   3.014   4.927 -0.0124  0.6084  0.2173
   36MOL   C73540005   0.888   3.159   4.893 -0.2588  0.1879 -0.8316
   36MOL   C73640006   0.938   3.245   5.012  0.3972 -0.2513  0.3662
   36MOL   C73740007   1.092   3.240   5.040  0.2003 -0.5008 -0.3181
   36MOL   C73840008   1.175   3.278   4.920 -0.1353 -0.8406  0.3974
   36MOL   C73940009   1.328   3.279   4.947 -0.0152 -0.0165 -0.1727
   36MOL   C74040010   1.387   3.423   4.942  0.4376  0.1356  0.1213
   36MOL   C74140011   1.342   3.501   5.066 -0.0446 -0.3804  0.1065
   36MOL   C74240012   1.405   3.638   5.063  0.6583  0.0041  0.2881
   36MOL   O74340013   1.516   3.656   5.016 -0.6941  0.1546 -0.2117
   36MOL   N74440014   1.319   3.740   5.096 -0.0823  0.9042 -0.1212
   36MOL   C74540015   1.340   3.880   5.084  0.4203 -0.1717 -0.8875
   36MOL   C74640016   1.223   3.953   5.157 -0.0701  0.3499  0.1829
   36MOL   C74740017   1.226   4.102   5.142  0.3640 -0.1394  0.0327
   36MOL   C74840018   1.113   4.187   5.199 -0.1132  0.1259 -0.2970
   36MOL   C74940019   1.144   4.345   5.202 -0.5239  0.7246  0.1683
   36MOL   C75040020   1.150   4.384   5.053  0.0404 -1.0827  0.4375
   36MOL   N75140021   1.141   4.527   5.036 -0.3223 -0.4974 -0.2299
   36MOL   H75240022   0.846   2.734   4.927  3.5587 -0.6635  0.3352
   36MOL   H75340023   0.803   2.726   4.768  1.1650 -1.4884  0.5971
   36MOL   H75440024   0.761   2.948   4.786  0.4870 -0.2007 -0.0034
   36MOL   H75540025   0.921   2.938   4.717 -1.6916 -1.4952 -0.4869
   36MOL   H75640026   1.011   2.989   4.956  1.0117  0.6038 -3.1645
   36MOL   H75740027   0.846   2.991   5.012  0.9898 -1.1184  0.5358
   36MOL   H75840028   0.786   3.187   4.868 -0.4420 -1.0343 -1.4690
   36MOL   H75940029   0.947   3.186   4.806  1.3194  0.5414  0.3229
   36MOL   H76040030   0.882   3.219   5.102  0.0781  0.2046  0.2984
   36MOL   H76140031   0.907   3.347   4.994 -1.7290 -0.9326  0.0360
   36MOL   H76240032   1.111   3.317   5.115  2.7192  0.9248 -2.3467
   36MOL   H76340033   1.123   3.149   5.091  3.0999  1.4293  1.4978
   36MOL   H76440034   1.163   3.209   4.837  0.2491 -2.2208  1.4656
   36MOL   H76540035   1.147   3.381   4.897  1.3717 -0.3477  0.7402
   36MOL   H76640036   1.336   3.234   5.045 -1.9809  0.7867  0.3917
   36MOL   H76740037   1.361   3.210   4.869 -0.4592  0.1347 -0.4994
   36MOL   H76840038   1.380   3.482   4.851  1.1591  0.9968  0.6189
   36MOL   H76940039   1.495   3.411   4.957  0.4927 -0.8078 -0.9907
   36MOL   H77040040   1.234   3.513   5.071  0.1185  0.4301  2.5885
   36MOL   H77140041   1.373   3.465   5.165  0.3278  0.7362  0.4094
   36MOL   H77240042   1.222   3.712   5.102 -0.7208  2.7523 -1.5233
   36MOL   H77340043   1.360   3.917   4.984  1.6942 -0.1995 -0.6545
   36MOL   H77440044   1.422   3.901   5.152 -0.2387  0.1553 -0.1782
   36MOL   H77540045   1.217   3.930   5.263 -2.5786 -0.6579 -0.1614
   36MOL   H77640046   1.130   3.920   5.111  0.1930  0.0964 -0.1734
   36MOL   H77740047   1.254   4.120   5.038  0.6729  2.3461  0.5099
   36MOL   H77840048   1.321   4.137   5.183 -1.6230  2.6276  2.5251
   36MOL   H77940049   1.023   4.167   5.142 -1.4014  2.8274  0.6973
   36MOL   H78040050   1.094   4.161   5.303 -0.6187 -0.6240 -0.5821
   36MOL   H78140051   1.231   4.378   5.260 -0.6763  0.4614  0.5496
   36MOL   H78240052   1.054   4.393   5.241 -1.9061 -0.5972 -1.3137
   36MOL   H78340053   1.246   4.351   5.014  0.1213  1.1105 -1.2748
   36MOL   H78440054   1.080   4.331   4.989 -1.0490  1.4123 -0.5005
   36MOL   H78540055   1.227   4.580   5.031 -0.2390 -0.3983  1.8261
   36MOL   C78640056   1.025   4.600   5.037  0.0650 -0.3654 -0.4406
   36MOL   O78740057   0.911   4.548   5.045  0.0375  0.5351 -0.0159
   36MOL   C78840058   1.039   4.750   5.034 -0.0376  0.3649 -0.1101
   36MOL   C78940059   0.912   4.831   5.031  0.3183  0.5803  0.3403
   36MOL   C79040060   0.919   4.981   4.993  0.2166  0.1404 -0.0868
   36MOL   C79140061   0.784   5.048   4.980  0.0589  0.3775  0.5041
   36MOL   C79240062   0.790   5.194   4.931  0.2319  0.1460  0.1359
   36MOL   C79340063   0.882   5.271   5.029 -0.3236  0.5083  0.1299
   36MOL   C79440064   0.880   5.418   4.998  0.6437 -0.3520 -0.3226
   36MOL   C79540065   0.973   5.499   5.091 -0.0397  0.3629 -0.1867
   36MOL   C79640066   0.914   5.512   5.235 -0.1347 -0.5120  0.3022
   36MOL   C79740067   1.015   5.572   5.329 -0.3375  0.4684  0.0371
   36MOL   C79840068   0.951   5.621   5.456 -0.2512 -0.4555 -0.6115
   36MOL   O79940069   0.831   5.607   5.482 -0.0601  0.0052  0.3306
   36MOL   N80040070   1.028   5.681   5.548  0.3751  0.0394 -0.6137
   36MOL   C80140071   0.984   5.746   5.674  0.3421 -0.1639 -0.5563
   36MOL   C80240072   1.092   5.728   5.785  0.1880 -0.2692  0.5420
   36MOL   C80340073   1.119   5.588   5.818 -0.3674 -0.3882  0.1531
   36MOL   C80440074   1.238   5.563   5.911  0.7342 -1.1391 -0.0250
   36MOL   C80540075   1.235   5.427   5.978  0.2022  0.4409 -0.2937
   36MOL   C80640076   1.350   5.400   6.081 -0.2565  0.3984  0.0414
   36MOL   N80740077   1.342   5.264   6.128  0.1654  1.1132  0.0335
   36MOL   H80840078   1.087   4.777   4.940  1.6919 -1.2803  0.2610
   36MOL   H80940079   1.101   4.770   5.122 -0.4057 -3.6358  1.1425
   36MOL   H81040080   0.844   4.777   4.966  0.3571 -0.7707  1.3926
   36MOL   H81140081   0.866   4.811   5.128  1.4353 -1.5429  0.4652
   36MOL   H81240082   0.966   4.975   4.895  1.6723 -0.6799  0.6338
   36MOL   H81340083   0.982   5.028   5.069  1.3393  1.0075 -1.5234
   36MOL   H81440084   0.735   4.996   4.898 -0.0443  1.6058 -0.2320
   36MOL   H81540085   0.717   5.038   5.065  1.4197 -0.2176  1.5386
   36MOL   H81640086   0.820   5.202   4.827  0.6581  1.0213  0.3231
   36MOL   H81740087   0.688   5.232   4.945 -0.3371 -0.4676 -2.2597
   36MOL   H81840088   0.832   5.260   5.125  2.2974 -2.7634  1.2226
   36MOL   H81940089   0.985   5.236   5.038 -0.4241 -0.3303 -1.7125
   36MOL   H82040090   0.898   5.432   4.892 -1.2568  0.2990 -0.5816
   36MOL   H82140091   0.778   5.456   5.009  0.8374 -0.4269  1.9347
   36MOL   H82240092   1.076   5.464   5.090  0.0223  0.4901  1.3817
   36MOL   H82340093   0.971   5.602   5.055 -4.5716  0.0797 -1.1414
   36MOL   H82440094   0.867   5.421   5.273 -1.5428 -0.2487 -0.7519
   36MOL   H82540095   0.834   5.584   5.221 -0.2983 -0.9261 -0.9741
   36MOL   H82640096   1.098   5.504   5.347 -1.1234 -0.8483 -1.1660
   36MOL   H82740097   1.058   5.661   5.285  1.1952 -0.9836 -1.4803
   36MOL   H82840098   1.127   5.686   5.530  0.6491  1.9445  1.2444
   36MOL   H82940099   0.900   5.700   5.726  1.1877 -0.2270  0.7640
   36MOL   H83040100   0.948   5.848   5.661  2.0315  0.1823 -2.9375
   36MOL   H83140101   1.059   5.778   5.877 -2.9353  4.4046 -2.8521
   36MOL   H83240102   1.178   5.787   5.754 -3.0877  3.5610 -1.9304
   36MOL   H83340103   1.028   5.545   5.858  0.4184 -0.5419  1.8071
   36MOL   H83440104   1.138   5.528   5.729  1.6868 -0.6808  0.7426
   36MOL   H83540105   1.228   5.626   5.998 -0.0014  0.4085 -1.2095
   36MOL   H83640106   1.334   5.590   5.867 -0.0261  0.5151 -0.6903
   36MOL   H83740107   1.234   5.349   5.902 -1.3344 -0.5946  0.7501
   36MOL   H83840108   1.137   5.417   6.024  0.8150 -1.4687  0.6636
   36MOL   H83940109   1.346   5.467   6.167 -0.3106  2.2643 -1.3887
   36MOL   H84040110   1.443   5.405   6.025 -0.8009 -0.4478 -0.9457
   36MOL   H84140111   1.356   5.190   6.061  0.7160  0.9280  0.3590
   36MOL   C84240112   1.315   5.231   6.258 -0.0760  0.4401  0.3068
   36MOL   O84340113   1.292   5.311   6.351 -0.1625  0.0411  0.4516
   36MOL   C84440114   1.304   5.079   6.280  0.1473  0.5631 -0.3340
   36MOL   C84540115   1.245   5.054   6.420  0.2466 -0.2752  0.0498
   36MOL   C84640116   1.182   4.917   6.449  0.4245  0.6218 -0.0804
   36MOL   C84740117   1.034   4.919   6.402  0.2253  0.5419  0.0519
   36MOL   C84840118   0.968   4.786   6.404 -0.5437 -0.3092  0.2470
   36MOL   C84940119   0.838   4.791   6.325 -0.7419  0.7388 -0.9967
   36MOL   C85040120   0.747   4.670   6.343  0.1078 -0.2353 -0.2073
   36MOL   C85140121   0.599   4.690   6.294 -0.2229 -0.1015 -0.2330
   36MOL   C85240122   0.532   4.545   6.296  0.0380 -0.2156  0.4916
   36MOL   C85340123   0.400   4.531   6.218 -0.2118  0.4379 -0.0458
   36MOL   C85440124   0.357   4.384   6.186 -0.2869  0.3933  0.0136
   36MOL   O85540125   0.424   4.289   6.227 -0.5682  0.2923 -0.0274
   36MOL   N85640126   0.244   4.365   6.117 -0.4987  0.5856  0.0806
   36MOL   C85740127   0.186   4.236   6.069 -0.4529 -0.3301 -0.1019
   36MOL   C85840128   0.036   4.241   6.048 -0.2657 -0.7865 -0.0659
   36MOL   C85940129   7.669   4.108   5.999 -0.3279  0.5512  0.9248
   36MOL   C86040130   7.518   4.095   6.003  0.7017  1.0065  0.0683
   36MOL   C86140131   7.463   3.950   5.986 -0.1576  0.1955 -0.0789
   36MOL   C86240132   7.324   3.938   5.929 -0.0705  1.0083  0.1868
   36MOL   N86340133   7.223   4.005   6.005 -0.3587 -0.7096 -0.4858
   36MOL   H86440134   1.404   5.041   6.259  0.7995  1.8819  0.3393
   36MOL   H86540135   1.235   5.045   6.202 -0.2511  0.9593 -0.1552
   36MOL   H86640136   1.161   5.119   6.444  0.5830  0.2206 -0.1152
   36MOL   H86740137   1.324   5.075   6.491  0.7809  3.0670 -1.4370
   36MOL   H86840138   1.246   4.841   6.404 -0.4094  0.5830 -1.2229
   36MOL   H86940139   1.179   4.905   6.557  1.4240  1.9657  0.1082
   36MOL   H87040140   1.042   4.955   6.299 -0.2057  2.0459  0.5339
   36MOL   H87140141   0.965   4.988   6.450  0.6901  0.2037  1.2227
   36MOL   H87240142   1.029   4.710   6.354 -0.3059 -0.8147  1.2843
   36MOL   H87340143   0.953   4.757   6.508  0.5368 -1.3004  0.1405
   36MOL   H87440144   0.778   4.870   6.370 -0.5085  0.3834 -0.0555
   36MOL   H87540145   0.854   4.817   6.220  0.5891 -0.7340 -1.1842
   36MOL   H87640146   0.799   4.588   6.294  1.0984  1.4891 -2.1024
   36MOL   H87740147   0.737   4.628   6.443  0.2173  0.9217  0.3001
   36MOL   H87840148   0.598   4.719   6.189 -2.6922 -2.2438 -0.8477
   36MOL   H87940149   0.548   4.767   6.352 -1.4282 -0.4574 -0.8062
   36MOL   H88040150   0.511   4.528   6.401 -1.1346  0.3608  0.3598
   36MOL   H88140151   0.607   4.474   6.262  0.8348 -0.5707  2.8967
   36MOL   H88240152   0.326   4.560   6.293 -2.6292 -0.1831 -2.1326
   36MOL   H88340153   0.397   4.587   6.125 -0.7573  3.3032  1.6189
   36MOL   H88440154   0.192   4.443   6.079  1.3385  1.7373 -0.1706
   36MOL   H88540155   0.198   4.160   6.147  2.5296 -0.4734 -0.6389
   36MOL   H88640156   0.254   4.209   5.988  2.3040  0.2835  1.9126
   36MOL   H88740157   0.024   4.322   5.976  2.3974 -1.6002 -1.4699
   36MOL   H88840158   7.669   4.252   6.139 -1.0353 -1.0217 -0.5271
   36MOL   H88940159   0.024   4.022   6.048  1.8806  1.5177  0.5909
   36MOL   H89040160   0.009   4.092   5.896 -2.8934  0.7793  0.0672
   36MOL   H89140161   7.493   4.149   5.912 -1.3635  0.8424  0.5139
   36MOL   H89240162   7.462   4.156   6.073 -0.4539 -0.5338  0.5209
   36MOL   H89340163   7.520   3.895   5.911 -0.8170 -0.3073 -0.2065
   36MOL   H89440164   7.476   3.906   6.084  2.3591 -1.4740 -1.1024
   36MOL   H89540165   7.334   3.970   5.825  1.4611  0.4245  0.1482
   36MOL   H89640166   7.287   3.836   5.929 -0.6424  1.1851 -1.6244
   36MOL   H89740167   7.259   4.058   6.082 -1.9751 -2.2645  1.4027
   36MOL   C89840168   7.092   4.010   5.976 -0.3488 -0.0024  0.5900
   36MOL   O89940169   7.045   3.979   5.871  0.4160  0.2958  0.0499
   36MOL   C90040170   7.002   4.052   6.092 -0.2020  0.2764 -0.4593
   36MOL   C90140171   6.899   4.161   6.053 -0.5424  0.1865  0.5142
   36MOL   C90240172   6.959   4.297   6.020  0.0699 -0.6509 -0.5319
   36MOL   C90340173   6.856   4.378   5.943  0.1106  0.2764  0.7271
   36MOL   C90440174   6.898   4.526   5.941  0.3933 -0.1220  0.6855
   36MOL   C90540175   6.815   4.618   5.849  0.0269 -0.8810  0.5880
   36MOL   C90640176   6.833   4.767   5.860 -0.2790  0.6395 -0.1466
   36MOL   C90740177   6.976   4.811   5.847 -0.5564 -0.0834 -0.3341
   36MOL   C90840178   7.010   4.959   5.862  0.1225  0.1037 -1.4268
   36MOL   C90940179   6.964   5.027   5.987  0.0874 -0.1900 -0.8774
   36MOL   C91040180   6.820   5.092   5.975 -0.4942  0.8475 -0.7474
   36MOL   O91140181   6.806   5.180   5.888 -0.2539  0.8645  0.1070
   36MOL   N91240182   6.730   5.049   6.062 -0.0965  0.0248  0.6300
   36MOL   C91340183   6.611   5.114   6.102 -0.4733 -0.7093  0.9817
   36MOL   C91440184   6.614   5.160   6.248 -0.0748  1.3169 -0.1367
   36MOL   C91540185   6.479   5.220   6.282 -1.0669 -0.1457 -0.5131
   36MOL   C91640186   6.493   5.281   6.424  0.2429  0.3963  0.4129
   36MOL   C91740187   6.375   5.357   6.476  0.2765 -0.6307 -0.5073
   36MOL   C91840188   6.371   5.365   6.631 -0.2688  0.4553  0.0761
   36MOL   N91940189   6.249   5.434   6.667  0.0974 -0.3648 -0.1105
   36MOL   H92040190   6.963   3.954   6.120  3.3248 -0.9009  0.5568
   36MOL   H92140191   7.054   4.095   6.178  2.7771  0.3447 -2.2253
   36MOL   H92240192   6.826   4.175   6.133 -0.7934  0.0647  0.3033
   36MOL   H92340193   6.843   4.117   5.971  1.8454  0.5307 -1.3351
   36MOL   H92440194   7.045   4.279   5.955  0.1946 -3.7352  0.4028
   36MOL   H92540195   6.994   4.355   6.106  1.4059 -1.1194 -0.7432
   36MOL   H92640196   6.858   4.355   5.836  0.7910 -0.8110  0.9734
   36MOL   H92740197   6.756   4.351   5.977  1.0007 -0.2603  2.9611
   36MOL   H92840198   7.002   4.531   5.908  0.4359 -0.8686  0.6910
   36MOL   H92940199   6.896   4.568   6.042  0.9002  2.4492 -0.3385
   36MOL   H93040200   6.843   4.594   5.746  0.4437  1.1226  0.2127
   36MOL   H93140201   6.707   4.603   5.854 -0.1991  0.0819 -1.1381
   36MOL   H93240202   6.816   4.799   5.963  0.6382  0.9729 -0.0961
   36MOL   H93340203   6.759   4.820   5.800 -0.5903 -0.9851 -1.2212
   36MOL   H93440204   7.006   4.771   5.750 -0.7979 -0.0382 -0.4265
   36MOL   H93540205   7.038   4.770   5.927 -1.0120 -2.5056 -1.1758
   36MOL   H93640206   7.118   4.955   5.852  0.2890 -1.6924  0.7395
   36MOL   H93740207   6.992   5.016   5.771 -2.0305 -2.4398 -2.6671
   36MOL   H93840208   6.975   4.963   6.074 -0.2845  0.8806 -0.0235
   36MOL   H93940209   7.023   5.117   6.003  0.3207 -0.0436 -2.4386
   36MOL   H94040210   6.755   4.973   6.124  1.7128  1.4341  1.6962
   36MOL   H94140211   6.532   5.042   6.078 -0.9565 -0.4254  1.7132
   36MOL   H94240212   6.599   5.204   6.040  0.3691 -1.4252 -0.2433
   36MOL   H94340213   6.622   5.074   6.314 -1.1219  1.6733  0.4697
   36MOL   H94440214   6.696   5.229   6.265 -0.8154  2.0192  0.6352
   36MOL   H94540215   6.457   5.309   6.223 -1.4281  1.2079  1.6057
   36MOL   H94640216   6.401   5.146   6.265 -1.7273  0.1788  0.9598
   36MOL   H94740217   6.583   5.343   6.427  0.1862  0.5086 -0.1067
   36MOL   H94840218   6.509   5.194   6.488 -2.0576  0.3884  1.0108
   36MOL   H94940219   6.370   5.453   6.423 -0.7204 -0.1952  0.3583
   36MOL   H95040220   6.292   5.292   6.447 -0.8710  0.8636 -0.6319
   36MOL   H95140221   6.465   5.400   6.673 -0.8380  0.1525  1.6649
   36MOL   H95240222   6.370   5.265   6.674  0.1194  0.3052 -0.2673
   36MOL   H95340223   6.234   5.532   6.651  2.0130 -0.7090 -4.6676
   36MOL   C95440224   6.145   5.374   6.727  0.1428 -0.8697  0.8496
   36MOL   O95540225   6.138   5.251   6.744 -0.2329  0.2784 -0.1428
   36MOL   C95640226   6.031   5.466   6.786 -0.6948 -0.8183  0.3330
   36MOL   C95740227   5.898   5.444   6.713 -1.0189  0.2930  0.2511
   36MOL   C95840228   5.912   5.499   6.566  0.1540  0.3151  0.9901
   36MOL   C95940229   5.780   5.504   6.488 -0.0251 -0.5581 -0.0372
   36MOL   C96040230   5.797   5.548   6.346  0.1580 -0.6830 -0.3274
   36MOL   C96140231   5.661   5.533   6.268 -0.3427 -0.1723  0.0239
   36MOL   C96240232   5.671   5.585   6.123 -0.3743  0.1068 -0.1878
   36MOL   C96340233   5.712   5.737   6.115  1.1824 -0.7270  0.1722
   36MOL   C96440234   5.722   5.770   5.960 -0.8057 -0.4916 -0.0157
   36MOL   C96540235   5.776   5.909   5.930  0.1189 -0.2984  0.1605
   36MOL   C96640236   5.923   5.940   5.974 -0.1780  0.7087  0.3515
   36MOL   O96740237   6.011   5.853   5.965  0.0151  0.0890  0.1801
   36MOL   N96840238   5.947   6.062   6.026 -0.3695 -0.2990  0.3759
   36MOL   C96940239   6.071   6.119   6.066 -0.3435  0.6291  0.5237
   36MOL   C97040240   6.040   6.265   6.042 -0.5644  0.0977 -0.1844
   36MOL   C97140241   6.135   6.362   6.110 -0.1724  0.3590  0.3440
   36MOL   C97240242   6.074   6.492   6.133 -0.0019 -0.2828  0.5306
   36MOL   C97340243   6.166   6.592   6.213  0.4441  0.9554 -0.4836
   36MOL   C97440244   6.104   6.728   6.245  0.0625  0.3993  0.5013
   36MOL   N97540245   5.982   6.720   6.321  0.4616  0.0979 -0.2094
   36MOL   H97640246   6.026   5.447   6.894 -1.3712  1.9505  0.8318
   36MOL   H97740247   6.067   5.568   6.775  2.7298 -1.8886  0.9099
   36MOL   H97840248   5.819   5.498   6.765  0.0096  1.3274  0.7801
   36MOL   H97940249   5.872   5.338   6.703  0.1230  0.0390 -0.0840
   36MOL   H98040250   5.963   5.595   6.561  2.6146 -0.9573  1.2085
   36MOL   H98140251   5.979   5.430   6.516  0.3798  1.4191 -0.2619
   36MOL   H98240252   5.741   5.403   6.488 -1.4780 -0.0074  1.0951
   36MOL   H98340253   5.699   5.560   6.533 -0.2336  1.1557 -2.4410
   36MOL   H98440254   5.823   5.654   6.339 -0.0004 -0.3730  3.1756
   36MOL   H98540255   5.876   5.504   6.286  1.4016  1.9770 -0.7397
   36MOL   H98640256   5.631   5.428   6.270 -0.3481 -0.1660  0.4568
   36MOL   H98740257   5.575   5.585   6.312 -0.4218  0.0958 -0.4492
   36MOL   H98840258   5.728   5.523   6.054  0.3420  1.3745 -0.7570
   36MOL   H98940259   5.568   5.586   6.086 -0.6946 -0.1297  0.6816
   36MOL   H99040260   5.649   5.802   6.176 -0.0937 -1.3213 -0.4692
   36MOL   H99140261   5.810   5.739   6.161  1.0957 -0.0991  0.3442
   36MOL   H99240262   5.627   5.762   5.906 -0.1963 -1.3491 -0.9767
   36MOL   H99340263   5.794   5.703   5.912  0.2492 -0.0576  0.9493
   36MOL   H99440264   5.773   5.924   5.822  1.6827 -3.8695 -0.4588
   36MOL   H99540265   5.699   5.972   5.975 -0.0900 -1.8875  2.0691
   36MOL   H99640266   5.868   6.125   6.020  0.7131  1.0538 -0.0406
   36MOL   H99740267   6.163   6.080   6.022 -1.4916 -1.9757  0.3271
   36MOL   H99840268   6.083   6.110   6.174  3.6337 -0.6784  0.0717
   36MOL   H99940269   5.943   6.302   6.078 -0.3132  1.9706 -1.3658
   36MOL     H140270   6.048   6.297   5.938 -0.0262  0.6469  0.0257
   36MOL     H240271   6.213   6.374   6.036 -0.8627  1.7243 -0.1796
   36MOL     H340272   6.192   6.319   6.193  2.3869  0.6842 -1.2182
   36MOL     H440273   6.032   6.535   6.041  0.2273  0.7881  0.9130
   36MOL     H540274   5.989   6.478   6.200  0.0698 -1.0064  0.4729
   36MOL     H640275   6.260   6.605   6.159  0.2297  1.6184 -0.7021
   36MOL     H740276   6.195   6.547   6.308 -1.5970  0.8662  0.1158
   36MOL     H840277   6.180   6.793   6.290 -0.4147  1.3766 -0.0769
   36MOL     H940278   6.082   6.787   6.155  1.9610  2.1726  1.1637
   36MOL    H1040279   5.894   6.740   6.275  0.4722  1.0339  0.1615
   36MOL    C1140280   5.967   6.681   6.445  0.4038 -0.0246 -0.1333
   36MOL    O1240281   6.051   6.643   6.520 -0.2810 -0.0363 -0.0623
   36MOL    C1340282   5.821   6.689   6.494 -0.3441  0.1547 -0.2914
   36MOL    C1440283   5.810   6.725   6.641  0.4192  0.4484  0.5621
   36MOL    C1540284   5.661   6.719   6.689 -0.0830 -0.2586 -0.1949
   36MOL    C1640285   5.636   6.829   6.798 -0.7268  0.0101 -0.3546
   36MOL    C1740286   5.494   6.819   6.851 -0.4878 -0.5796  0.0825
   36MOL    C1840287   5.475   6.911   6.973  0.0733 -0.0635  0.2614
   36MOL    C1940288   5.332   6.957   6.984 -0.8178  0.2844 -0.3028
   36MOL    C2040289   5.303   7.071   7.084  0.4910 -0.1956  0.5393
   36MOL    C2140290   5.154   7.105   7.079 -0.5936  0.0256 -0.4841
   36MOL    C2240291   5.107   7.230   7.154 -0.1745  0.2088  0.8001
   36MOL    C2340292   5.095   7.229   7.305  0.0972  0.3745 -0.0453
   36MOL    O2440293   5.104   7.121   7.365  0.2553 -0.1324 -0.3250
   36MOL    N2540294   5.088   7.351   7.361  0.1360 -0.2511  0.0407
   36MOL    C2640295   5.083   7.379   7.504 -0.0715 -0.0538 -0.1145
   36MOL    C2740296   4.941   7.436   7.527  0.2250  0.3386  0.5256
   36MOL    C2840297   4.907   7.447   7.679  0.2656 -0.7280  0.2366
   36MOL    C2940298   4.766   7.510   0.016  0.2944 -0.5223 -0.2145
   36MOL    C3040299   4.652   7.438   7.641  0.6651 -0.6747  0.3976
   36MOL    C3140300   4.511   7.490   0.003 -0.5822  0.5673  0.3752
   36MOL    N3240301   4.497   7.628   7.661 -0.1528  0.5950  0.1074
   36MOL    H3340302   5.784   6.588   6.473 -0.1176 -0.2596  1.2583
   36MOL    H3440303   5.766   6.760   6.431 -2.1217 -0.8770  0.0469
   36MOL    H3540304   5.862   6.819   6.656 -1.6285  1.8674 -1.0318
   36MOL    H3640305   5.862   6.654   6.706  0.2662  1.0943  1.3964
   36MOL    H3740306   5.650   6.615   6.719 -0.1056  0.2829  1.7444
   36MOL    H3840307   5.597   6.733   6.602  0.4136 -1.9541 -0.8541
   36MOL    H3940308   5.704   6.822   6.883 -2.3136  0.9887  1.0174
   36MOL    H4040309   5.653   6.929   6.758  0.4426  0.6710  1.7641
   36MOL    H4140310   5.421   6.842   6.774  0.8243 -0.6470 -1.2092
   36MOL    H4240311   5.468   6.718   6.882  3.0167 -1.0547  1.7142
   36MOL    H4340312   5.514   6.863   7.062  0.7062  1.9199  1.0731
   36MOL    H4440313   5.532   7.003   6.961 -0.6301  0.2918 -0.4783
   36MOL    H4540314   5.306   6.997   6.887 -0.2943  2.0000  0.2507
   36MOL    H4640315   5.274   6.868   7.007 -0.6731 -0.0607 -1.2620
   36MOL    H4740316   5.330   7.036   7.184  0.0333  1.0244  1.0989
   36MOL    H4840317   5.363   7.157   7.056 -1.3015  1.1756  0.8438
   36MOL    H4940318   5.095   7.018   7.109  0.7467 -0.7448 -0.0334
   36MOL    H5040319   5.121   7.124   6.977 -0.1292 -0.4618 -0.7250
   36MOL    H5140320   5.169   7.317   7.132  0.9249 -0.7996 -0.1620
   36MOL    H5240321   5.003   7.248   7.125 -0.8447 -2.6936  1.2517
   36MOL    H5340322   5.113   7.430   7.303 -0.2817 -0.1261  0.0313
   36MOL    H5440323   5.169   7.439   7.535 -0.5172  1.1668 -1.1841
   36MOL    H5540324   5.100   7.283   7.552  1.4827 -1.1038 -2.6526
   36MOL    H5640325   4.865   7.366   7.494  0.2833  0.3360  0.3986
   36MOL    H5740326   4.938   7.533   7.479 -1.7485 -0.0423 -0.1436
   36MOL    H5840327   4.978   7.520   0.026 -1.3956  0.2628  1.4591
   36MOL    H5940328   4.923   7.355   0.043 -0.4029 -0.5116  0.7869
   36MOL    H6040329   4.775   7.607   7.658 -0.2698 -1.4278 -2.1311
   36MOL    H6140330   4.748   7.530   0.121  1.9997 -0.9010  0.1807
   36MOL    H6240331   4.654   7.331   7.664  0.0949 -0.3175  2.1849
   36MOL    H6340332   4.647   7.445   7.532 -5.6822  0.4384  0.5987
   36MOL    H6440333   4.504   7.486   0.111 -1.9628  0.0375  0.2817
   36MOL    H6540334   4.434   7.430   7.645  0.3459  2.3280 -3.3622
   36MOL    H6640335   4.524   0.013   0.029 -0.2233  1.7568 -1.3018
   36MOL    C6740336   4.442   7.675   7.548 -0.0593 -0.2438  0.8317
   36MOL    O6840337   4.386   7.608   7.460 -0.1775 -0.5421  0.2229
   36MOL    C6940338   4.463   0.141   7.525 -0.1019  0.1787 -0.0220
   36MOL    C7040339   4.480   0.192   7.379 -0.4070  0.7467 -0.2756
   36MOL    C7140340   4.620   0.163   7.316 -0.4024  0.2590 -0.1412
   36MOL    C7240341   4.635   0.021   7.263  0.0609 -0.3322 -0.2012
   36MOL    C7340342   4.771   7.674   7.197 -0.0987 -0.4744 -0.7244
   36MOL    C7440343   4.772   7.544   7.112  0.7834  0.0640 -1.0471
   36MOL    C7540344   4.676   7.533   6.991  0.1105 -0.0090 -0.3316
   36MOL    C7640345   4.672   7.384   6.933  0.4624 -0.6163  0.1300
   36MOL    C7740346   4.567   7.374   6.828  0.0177  0.3126 -0.4368
   36MOL    C7840347   4.439   7.289   6.865 -0.1356 -0.2742  0.3178
   36MOL    C7940348   4.456   7.143   6.899 -0.6021 -0.3530  0.5571
   36MOL    O8040349   4.561   7.086   6.871  0.4741 -0.1539  0.0873
   36MOL    N8140350   4.353   7.077   6.951 -0.3120  0.0008  0.5598
   36MOL    C8240351   4.355   6.937   6.993 -0.5605 -0.1324 -0.6364
   36MOL    C8340352   4.407   6.842   6.880 -0.5625 -0.2240  0.5341
   36MOL    C8440353   4.354   6.698   6.885  0.4790 -0.2000  0.1197
   36MOL    C8540354   4.406   6.606   6.772  0.2087  0.0005 -0.1642
   36MOL    C8640355   4.334   6.465   6.781  0.3423  0.1534 -0.5724
   36MOL    C8740356   4.397   6.369   6.681  0.8253 -0.3193  0.4724
   36MOL    N8840357   4.331   6.394   6.551  0.4269 -1.0293  0.3419
   36MOL    H8940358   4.547   0.184   7.581 -0.6523  0.7676  0.3592
   36MOL    H9040359   4.375   0.195   7.560  0.8574  0.7372  1.5777
   36MOL    H9140360   4.421   0.138   7.305  1.2603 -1.8823  0.2548
   36MOL    H9240361   4.466   0.300   7.383  1.2479  0.9056  2.4823
   36MOL    H9340362   4.649   0.227   7.233  1.4166 -0.2824  0.0590
   36MOL    H9440363   4.703   0.177   7.385 -1.1019 -0.1730  0.8102
   36MOL    H9540364   4.608   7.631   7.331 -2.4361 -0.0767 -0.8523
   36MOL    H9640365   4.555   0.014   7.189 -0.4467 -1.3483  0.4220
   36MOL    H9740366   4.802   0.056   7.124  2.6168 -0.4262  0.3968
   36MOL    H9840367   4.846   7.676   7.276 -0.1883  0.8959 -0.6611
   36MOL    H9940368   4.873   7.521   7.079 -0.1409 -1.3657 -3.0000
   36MOL   H10040369   4.737   7.470   7.184 -0.3361 -0.2518 -1.8992
   36MOL   H10140370   4.709   7.606   6.917 -0.6256  0.7369  0.0696
   36MOL   H10240371   4.570   7.549   7.012 -0.2890 -1.3410 -1.2218
   36MOL   H10340372   4.770   7.369   6.887  0.7919 -3.0640  1.5869
   36MOL   H10440373   4.663   7.310   7.013  1.7640 -0.3848  0.5086
   36MOL   H10540374   4.610   7.318   6.745 -0.0311 -0.2512 -0.0844
   36MOL   H10640375   4.554   7.470   6.779  2.2689 -0.4103 -2.5247
   36MOL   H10740376   4.392   7.344   6.947 -0.9261 -0.6501  0.1174
   36MOL   H10840377   4.374   7.308   6.780  0.8177  0.2212 -0.3112
   36MOL   H10940378   4.260   7.115   6.946 -0.8836 -1.0298  2.7418
   36MOL   H11040379   4.254   6.900   7.015 -0.9517  0.5785 -1.2405
   36MOL   H11140380   4.417   6.927   7.082  0.1701  1.9047 -0.9077
   36MOL   H11240381   4.515   6.844   6.894 -0.3090 -0.4862 -1.1792
   36MOL   H11340382   4.394   6.886   6.781 -0.8749 -1.0455  0.2042
   36MOL   H11440383   4.245   6.702   6.879  0.2319  0.2080  3.5826
   36MOL   H11540384   4.373   6.644   6.978 -0.2818 -2.0256 -0.7578
   36MOL   H11640385   4.384   6.657   6.678  0.4663  1.8179  0.7392
   36MOL   H11740386   4.513   6.594   6.789  0.1339 -0.0165  0.3092
   36MOL   H11840387   4.363   6.432   6.880  2.4297  2.4267 -0.3577
   36MOL   H11940388   4.227   6.473   6.764  0.0634 -2.6939 -0.3616
   36MOL   H12040389   4.506   6.380   6.684  0.4924  4.0537 -0.5839
   36MOL   H12140390   4.376   6.266   6.711 -1.8188 -0.9109 -3.1268
   36MOL   H12240391   4.360   6.314   6.497 -0.3559 -2.1760  1.5968
   36MOL   H12340392   4.234   6.375   6.567  0.3269  0.7101  1.9878
   37MOL     C140393   4.633   6.063   6.376  0.2556 -0.5650  0.1009
   37MOL     O240394   4.530   6.059   6.441 -0.6905  1.1062 -0.1579
   37MOL     C340395   4.654   6.177   6.279 -0.2790  0.7144 -0.1672
   37MOL     C440396   4.652   6.318   6.341  0.5179  0.0471  0.0579
   37MOL     C540397   4.761   6.344   6.457  0.8131  0.5197 -0.0294
   37MOL     C640398   4.735   6.482   6.520  0.1260 -0.6812  0.5365
   37MOL     C740399   4.814   6.521   6.650  0.3782  0.0922  0.6070
   37MOL     C840400   4.800   6.662   6.699 -0.6148 -0.2968  0.1923
   37MOL     C940401   4.892   6.698   6.818 -0.1606  0.5810 -0.4095
   37MOL    C1040402   4.880   6.841   6.863  0.1479  0.2979  0.4269
   37MOL    C1140403   4.964   6.935   6.784 -0.2578  0.1295 -0.1800
   37MOL    C1240404   4.896   7.076   6.774 -1.3008  0.6020  0.0081
   37MOL    C1340405   4.820   7.088   6.648  0.2864  0.3794  0.3455
   37MOL    O1440406   4.882   7.136   6.554 -0.4880  0.3085 -0.1619
   37MOL    N1540407   4.695   7.052   6.638 -0.0630 -0.2382  0.6459
   37MOL    C1640408   4.610   7.072   6.522  0.0961  0.0280  0.2766
   37MOL    C1740409   4.548   6.931   6.499 -0.2038 -0.2348 -0.3965
   37MOL    C1840410   4.444   6.924   6.390  0.7124  0.0320  0.2653
   37MOL    C1940411   4.404   6.777   6.377 -0.6114  0.1023 -0.5480
   37MOL    C2040412   4.292   6.761   6.269  0.0951  0.3866 -0.4230
   37MOL    C2140413   4.235   6.615   6.253 -0.7170 -0.6481  1.1338
   37MOL    N2240414   4.171   6.573   6.379 -0.2182  0.2447  0.1126
   37MOL    H2340415   4.580   6.168   6.200 -0.9403  2.2092  0.2523
   37MOL    H2440416   4.757   6.169   6.245  0.1091 -0.3393  1.1923
   37MOL    H2540417   4.553   6.339   6.383 -0.5312 -0.2911 -2.1705
   37MOL    H2640418   4.654   6.386   6.256 -0.7546  0.5782  0.4450
   37MOL    H2740419   4.864   6.324   6.429  0.6655  1.8017 -1.5500
   37MOL    H2840420   4.757   6.268   6.535 -1.6298  1.2901  0.6344
   37MOL    H2940421   4.770   6.557   6.448 -0.6879 -1.4635 -0.6911
   37MOL    H3040422   4.628   6.501   6.525  0.5188  1.3646  2.0332
   37MOL    H3140423   4.919   6.499   6.627  0.0888  1.0600 -1.7286
   37MOL    H3240424   4.805   6.450   6.732 -2.3677  1.6901  1.7312
   37MOL    H3340425   4.846   6.713   6.613  0.7166 -0.9808  0.4759
   37MOL    H3440426   4.698   6.694   6.717 -0.6049 -0.6838  0.9397
   37MOL    H3540427   4.860   6.646   6.908  3.9801 -1.6519 -0.0807
   37MOL    H3640428   4.993   6.660   6.803 -0.3054 -0.3384  0.9422
   37MOL    H3740429   4.780   6.876   6.888  0.3929  1.0621  0.3405
   37MOL    H3840430   4.926   6.839   6.961 -1.4550  0.9180  1.2165
   37MOL    H3940431   5.014   6.895   6.696 -0.8782 -2.3010  0.5205
   37MOL    H4040432   5.049   6.950   6.851  1.2751 -0.0800 -2.0164
   37MOL    H4140433   4.830   7.091   6.860 -2.2039  1.9723 -0.9254
   37MOL    H4240434   4.983   7.142   6.774 -0.8839  0.0509 -0.6634
   37MOL    H4340435   4.650   7.027   6.725 -0.1172  0.7757  0.9204
   37MOL    H4440436   4.665   7.104   6.434 -1.1820  1.8470  0.1315
   37MOL    H4540437   4.539   7.153   6.536  0.4958  0.6138 -1.0243
   37MOL    H4640438   4.506   6.904   6.595 -0.8825  2.7322  0.1677
   37MOL    H4740439   4.628   6.864   6.466 -0.7036 -0.4144 -1.2791
   37MOL    H4840440   4.364   6.992   6.419 -0.9997 -1.1595 -1.5164
   37MOL    H4940441   4.491   6.964   6.300  0.5234  1.0231  0.6045
   37MOL    H5040442   4.367   6.746   6.475  0.9964 -3.7354 -1.0690
   37MOL    H5140443   4.486   6.715   6.341 -1.5845 -0.2469 -2.2245
   37MOL    H5240444   4.204   6.821   6.292 -0.8192 -1.3010  0.6615
   37MOL    H5340445   4.313   6.801   6.170 -0.7427  0.0117 -0.7641
   37MOL    H5440446   4.176   6.633   6.163  2.3351  0.1576 -0.7927
   37MOL    H5540447   4.317   6.549   6.227 -1.7886 -0.2388 -3.6774
   37MOL    H5640448   4.232   6.538   6.451  3.5667  0.3824 -2.8427
   37MOL    H5740449   4.721   6.001   6.393  0.3273 -1.1301 -2.2963
   37MOL    C5840450   4.035   6.586   6.393 -0.0124 -0.6197 -0.2688
   37MOL    O5940451   3.962   6.619   6.300 -0.2864  0.1725 -0.0366
   37MOL    C6040452   3.981   6.571   6.536 -0.3836 -0.1856  0.1684
   37MOL    C6140453   4.043   6.665   6.638  0.3309 -0.4701 -0.6760
   37MOL    C6240454   4.007   6.816   6.612 -0.0833 -0.2245  0.0810
   37MOL    C6340455   4.091   6.896   6.704 -0.5852  0.6009 -0.3215
   37MOL    C6440456   4.035   7.040   6.703  0.3900  0.4556 -0.8802
   37MOL    C6540457   3.918   7.058   6.808  0.2150  0.5337  0.1598
   37MOL    C6640458   3.973   7.062   6.955  0.3135 -0.7775 -0.1850
   37MOL    C6740459   3.857   7.058   7.054  0.3786  0.2234 -0.1227
   37MOL    C6840460   3.909   7.068   7.199 -1.0536 -0.3631 -0.1901
   37MOL    C6940461   3.797   7.072   7.305  0.2992  0.1349  0.3264
   37MOL    C7040462   3.704   6.950   7.317  1.0905  0.2326 -0.2382
   37MOL    O7140463   3.736   6.846   7.261 -0.4899  0.3565 -0.2896
   37MOL    N7240464   3.607   6.961   7.408  0.3602 -0.3652 -0.5631
   37MOL    C7340465   3.520   6.851   7.442  0.1392  0.0076 -0.4634
   37MOL    C7440466   3.580   6.763   7.556 -0.1886 -0.2576  0.4392
   37MOL    C7540467   3.479   6.664   7.619 -0.1416  0.0556 -0.0622
   37MOL    C7640468   3.546   6.584   0.046  0.2922  0.2827 -0.7600
   37MOL    C7740469   3.465   6.475   0.111  0.3340  0.9100 -0.8428
   37MOL    C7840470   3.548   6.393   0.221  0.2498 -0.5583 -0.1462
   37MOL    N7940471   3.476   6.277   0.273  0.3906  0.1440 -0.1307
   37MOL    H8040472   3.991   6.466   6.563  0.7467 -0.8292 -2.6338
   37MOL    H8140473   3.874   6.591   6.543 -0.3389  0.8068 -1.7638
   37MOL    H8240474   4.017   6.634   6.739 -1.2376 -2.1873 -1.5709
   37MOL    H8340475   4.150   6.646   6.647  0.4950  0.3960 -0.7988
   37MOL    H8440476   3.899   6.825   6.630  0.4275 -1.0690  3.9456
   37MOL    H8540477   4.032   6.853   6.513 -2.2238 -0.7481 -0.6794
   37MOL    H8640478   4.194   6.896   6.667 -0.1323 -1.7554  0.8862
   37MOL    H8740479   4.095   6.852   6.803  2.4094  0.7224 -0.3555
   37MOL    H8840480   4.103   7.124   6.719 -1.6806  2.2826 -1.3749
   37MOL    H8940481   3.986   7.053   6.607  0.1836 -0.6921 -0.9336
   37MOL    H9040482   3.848   6.975   6.798 -0.2386  0.8959  0.2800
   37MOL    H9140483   3.861   7.151   6.805  0.6092  0.7523 -0.5453
   37MOL    H9240484   4.016   7.162   6.959 -1.1424 -0.1001 -1.2854
   37MOL    H9340485   4.047   6.986   6.981  1.3413 -0.8086 -3.0637
   37MOL    H9440486   3.797   7.148   7.044  1.1634  0.7004 -0.5458
   37MOL    H9540487   3.793   6.971   7.035  1.3923 -0.6088  0.2632
   37MOL    H9640488   3.958   7.165   7.214  1.2618 -1.6053  0.4457
   37MOL    H9740489   3.976   6.984   7.212  0.7124  1.0928  0.3626
   37MOL    H9840490   3.834   7.091   7.406 -0.9527  2.1717  0.4300
   37MOL    H9940491   3.733   7.157   7.282 -1.7631 -1.4991 -0.0850
   37MOL   H10040492   3.594   7.050   7.455  0.6839 -1.3222  1.3759
   37MOL   H10140493   3.506   6.796   7.350 -0.7373 -0.1576 -0.2305
   37MOL   H10240494   3.428   6.901   7.473  1.8477  2.0308  1.5657
   37MOL   H10340495   3.654   6.695   7.513 -1.6810 -2.3618  1.1173
   37MOL   H10440496   3.618   6.828   7.635  0.2594 -1.0881  0.9132
   37MOL   H10540497   3.443   6.593   7.544 -1.3864  1.7003 -1.0687
   37MOL   H10640498   3.402   6.729   7.661 -0.9695 -1.1749  0.3575
   37MOL   H10740499   3.635   6.532   0.012  0.4079  0.6743 -1.0686
   37MOL   H10840500   3.583   6.653   0.122  0.1220 -0.1594 -0.2797
   37MOL   H10940501   3.432   6.405   0.035 -0.3324  0.1730  0.1101
   37MOL   H11040502   3.373   6.518   0.150 -0.9529 -0.8954 -1.7953
   37MOL   H11140503   3.565   6.451   0.312  1.4151 -1.2576  0.0894
   37MOL   H11240504   3.647   6.364   0.188  0.8268  0.7165  0.4689
   37MOL   H11340505   3.376   6.290   0.281  0.3104 -0.9000  0.7113
   37MOL   C11440506   3.527   6.157   0.296  0.2726 -0.1125 -0.4387
   37MOL   O11540507   3.645   6.139   0.282  0.2107  0.8318  0.0211
   37MOL   C11640508   3.429   6.042   0.338 -0.2298  0.1572  0.2446
   37MOL   C11740509   3.502   5.911   0.378  0.1469 -0.1435 -0.1695
   37MOL   C11840510   3.533   5.824   0.253 -0.2195  0.1518  0.1307
   37MOL   C11940511   3.414   5.747   0.183 -0.2512  0.2161 -0.3229
   37MOL   C12040512   3.476   5.633   0.095 -0.0604 -0.5199 -0.3500
   37MOL   C12140513   3.363   5.545   0.027 -0.3880 -0.1113  0.2979
   37MOL   C12240514   3.273   5.616   7.617  0.0759  0.1931  0.0681
   37MOL   C12340515   3.189   5.511   7.548 -0.3088  0.2550  0.2783
   37MOL   C12440516   3.093   5.572   7.446 -0.2755 -0.4691 -0.1568
   37MOL   C12540517   3.013   5.465   7.375 -0.3681  0.4968  0.1588
   37MOL   C12640518   2.888   5.518   7.304 -0.3914  0.0654 -0.7851
   37MOL   O12740519   2.821   5.605   7.367 -0.1720  0.4411 -0.1974
   37MOL   N12840520   2.852   5.465   7.191 -0.4715 -0.4025 -0.3534
   37MOL   C12940521   2.720   5.501   7.127  0.0170 -0.4143 -0.0312
   37MOL   C13040522   2.603   5.426   7.180  0.0624  0.3100  0.3255
   37MOL   C13140523   2.468   5.454   7.113  0.2372  0.2102 -0.1729
   37MOL   C13240524   2.341   5.384   7.189 -0.4024 -0.2537 -0.6698
   37MOL   C13340525   2.222   5.355   7.099 -0.0573  0.1781 -0.4754
   37MOL   C13440526   2.130   5.477   7.060  0.1118 -0.7681 -0.3195
   37MOL   N13540527   1.991   5.442   7.028 -0.2357 -0.2039  0.4404
   37MOL   H13640528   3.382   6.077   0.430  0.5572  3.4423 -0.5349
   37MOL   H13740529   3.355   6.022   0.260 -0.1555 -3.6984  1.1021
   37MOL   H13840530   3.445   5.844   0.443 -1.9552  0.7586 -1.0246
   37MOL   H13940531   3.599   5.937   0.421  2.0151 -0.5650 -3.9346
   37MOL   H14040532   3.568   5.894   0.177 -1.4708  1.6160  0.8600
   37MOL   H14140533   3.619   5.764   0.281 -0.7864 -0.3213  0.8663
   37MOL   H14240534   3.363   5.704   0.269  1.5532 -3.5859 -1.0678
   37MOL   H14340535   3.350   5.816   0.129 -2.2801 -0.6876  0.8758
   37MOL   H14440536   3.535   5.684   0.018  0.2317 -1.4105 -0.7362
   37MOL   H14540537   3.542   5.565   0.149 -3.1117 -1.5225  2.2438
   37MOL   H14640538   3.299   5.503   0.105 -1.6661 -0.5736 -0.9799
   37MOL   H14740539   3.416   5.464   7.670 -0.2324  0.4161 -0.4138
   37MOL   H14840540   3.209   5.686   7.670 -0.8965  1.0426 -2.1408
   37MOL   H14940541   3.326   5.685   7.551  2.2611 -2.5681 -1.1586
   37MOL   H15040542   3.136   5.455   7.625  1.0083  1.0871  1.7936
   37MOL   H15140543   3.270   5.458   7.498 -0.3002  0.8376 -0.3351
   37MOL   H15240544   3.151   5.616   7.366 -2.1039 -0.6570 -1.6211
   37MOL   H15340545   3.018   5.640   7.487 -0.0489 -1.7623  2.5192
   37MOL   H15440546   2.979   5.393   7.449 -1.3141  0.0286 -0.7149
   37MOL   H15540547   3.076   5.404   7.310 -1.3162 -2.2148  1.6689
   37MOL   H15640548   2.903   5.386   7.155 -1.4034 -0.8154 -0.7900
   37MOL   H15740549   2.738   5.468   7.025 -0.2672  1.5031 -0.7310
   37MOL   H15840550   2.702   5.609   7.131  0.6536 -0.2668 -0.9417
   37MOL   H15940551   2.583   5.457   7.283  0.4364 -2.1527  1.1932
   37MOL   H16040552   2.609   5.318   7.167 -0.9701  0.3043 -0.1085
   37MOL   H16140553   2.436   5.559   7.114  4.2015  1.4926  2.7263
   37MOL   H16240554   2.482   5.426   7.008  4.1895 -2.2930  0.9256
   37MOL   H16340555   2.385   5.293   7.230 -0.1009  0.1556 -0.0946
   37MOL   H16440556   2.313   5.439   7.278 -1.2525  0.3023 -1.2683
   37MOL   H16540557   2.161   5.287   7.158  0.9307 -1.3536 -1.1865
   37MOL   H16640558   2.259   5.296   7.015 -3.7697 -0.2100 -1.9254
   37MOL   H16740559   2.109   5.537   7.148  2.1590 -0.3035 -0.1081
   37MOL   H16840560   2.173   5.538   6.980  0.2078 -0.5288 -0.0856
   37MOL   H16940561   1.926   5.443   7.105 -1.6096  0.6139 -0.6951
   37MOL   C17040562   1.944   5.386   6.912  0.1294  0.4553 -0.0165
   37MOL   O17140563   2.025   5.366   6.816  0.1052 -0.0181 -0.8148
   37MOL   C17240564   1.791   5.336   6.917 -0.0133 -0.5638 -0.0502
   37MOL   C17340565   1.774   5.207   6.845 -0.6158 -0.0436  0.5379
   37MOL   C17440566   1.714   5.233   6.706  0.6744  0.9100  0.3451
   37MOL   C17540567   1.678   5.104   6.626  0.0694 -0.0896  0.1864
   37MOL   C17640568   1.621   5.122   6.485  0.0240  0.3691 -0.5622
   37MOL   C17740569   1.725   5.184   6.395 -0.2059 -0.0339  0.0766
   37MOL   C17840570   1.677   5.204   6.251 -0.2699 -0.3998  0.1552
   37MOL   C17940571   1.786   5.266   6.163  0.0243 -0.0864  0.5633
   37MOL   C18040572   1.922   5.197   6.150 -1.7090 -0.1830 -0.0955
   37MOL   C18140573   2.029   5.270   6.233 -0.6417  0.3466  0.4889
   37MOL   C18240574   2.049   5.409   6.186  0.1712  0.0945 -0.2094
   37MOL   O18340575   2.065   5.432   6.065 -0.4451 -0.3332  0.0813
   37MOL   N18440576   2.025   5.507   6.275  0.5481 -0.6529 -0.3750
   37MOL   C18540577   2.033   5.654   6.245 -0.2152 -0.0373  0.4007
   37MOL   C18640578   2.146   5.710   6.332  0.2630  0.3555  0.8466
   37MOL   C18740579   2.162   5.861   6.316 -0.1845 -0.4821 -0.4255
   37MOL   C18840580   2.266   5.910   6.419  0.4014 -0.0545 -0.0479
   37MOL   C18940581   2.289   6.059   6.423  0.1239 -0.3115 -0.4560
   37MOL   C19040582   2.409   6.101   6.517  0.4463 -0.4315  0.6654
   37MOL   N19140583   2.539   6.093   6.444 -0.1692  0.5674 -0.5013
   37MOL   H19240584   1.777   5.314   7.022 -1.0459  2.8485  0.5827
   37MOL   H19340585   1.719   5.415   6.893  0.1054 -0.0474  1.2610
   37MOL   H19440586   1.706   5.146   6.905 -0.0092  1.5098  2.8441
   37MOL   H19540587   1.865   5.148   6.853  0.0542  0.6855 -1.3334
   37MOL   H19640588   1.793   5.290   6.657 -1.2260  0.8373 -2.8818
   37MOL   H19740589   1.630   5.301   6.699 -1.3231 -1.5587 -0.3034
   37MOL   H19840590   1.755   5.027   6.625 -0.3298 -0.5380  2.2561
   37MOL   H19940591   1.602   5.072   6.696  0.1851 -0.4896  0.1281
   37MOL   H20040592   1.581   5.030   6.444  0.2268  0.0003  0.0580
   37MOL   H20140593   1.537   5.191   6.494  1.2039  1.8074 -0.2493
   37MOL   H20240594   1.815   5.123   6.387 -1.1236 -1.7308  2.0201
   37MOL   H20340595   1.757   5.282   6.430  2.6326 -0.3256 -1.5940
   37MOL   H20440596   1.650   5.110   6.203  2.3570 -0.7142 -0.8078
   37MOL   H20540597   1.589   5.269   6.251  0.5772  0.7809 -0.8316
   37MOL   H20640598   1.759   5.290   6.060  0.9356  2.4444  0.8795
   37MOL   H20740599   1.798   5.366   6.204  0.1569 -0.0191  0.3638
   37MOL   H20840600   1.949   5.211   6.045 -0.2129 -0.5676  0.2295
   37MOL   H20940601   1.920   5.091   6.174  0.2932  0.0379  1.1556
   37MOL   H21040602   2.004   5.275   6.339  0.6641  1.2007  0.7723
   37MOL   H21140603   2.117   5.206   6.235 -2.3596 -2.1835 -1.5379
   37MOL   H21240604   1.976   5.495   6.362  0.3493  1.6576 -0.1368
   37MOL   H21340605   1.936   5.694   6.274  1.0161  1.2819  2.8787
   37MOL   H21440606   2.046   5.686   6.142 -1.4735  0.4153  0.3743
   37MOL   H21540607   2.121   5.690   6.436  0.5307  1.1814  1.0717
   37MOL   H21640608   2.240   5.657   6.315 -0.4325 -0.0787 -1.9910
   37MOL   H21740609   2.194   5.882   6.214 -1.8022 -0.4140 -0.9415
   37MOL   H21840610   2.066   5.911   6.329  0.5312  0.4732  1.3816
   37MOL   H21940611   2.362   5.865   6.398  0.3499  0.4587 -1.4228
   37MOL   H22040612   2.236   5.874   6.517  1.2042  0.3958  0.3629
   37MOL   H22140613   2.194   6.105   6.450  1.0560  0.8501  0.8869
   37MOL   H22240614   2.316   6.097   6.325 -0.5937  3.0433  0.6004
   37MOL   H22340615   2.396   6.029   6.598  0.7184 -3.6018 -2.0048
   37MOL   H22440616   2.403   6.203   6.554 -1.2364 -0.9517  1.8801
   37MOL   H22540617   2.607   6.030   6.485 -0.1215 -0.3667 -1.9701
   37MOL   C22640618   2.587   6.190   6.368  0.4177  0.0192  0.2199
   37MOL   O22740619   2.515   6.285   6.332 -0.0155  0.1874 -0.2093
   37MOL   C22840620   2.738   6.181   6.323  0.6950 -0.5003  0.7709
   37MOL   C22940621   2.754   6.252   6.192  0.1461 -0.3534  0.5898
   37MOL   C23040622   2.898   6.245   6.136 -0.3299 -0.5098  1.1154
   37MOL   C23140623   2.904   6.324   6.007  0.5537  0.0908  0.1497
   37MOL   C23240624   3.046   6.325   5.942  0.0592  0.5359  0.2087
   37MOL   C23340625   3.071   6.423   5.823  0.2913  0.7492 -0.5243
   37MOL   C23440626   3.213   6.440   5.784 -0.0142  0.4672  0.8126
   37MOL   C23540627   3.214   6.538   5.664  0.0720 -0.5792 -0.1591
   37MOL   C23640628   3.357   6.575   5.621 -0.1315 -0.7377 -0.2237
   37MOL   C23740629   3.449   6.662   5.719  0.1174 -0.1798  0.8054
   37MOL   C23840630   3.417   6.809   5.707 -0.5981 -0.1733 -1.3689
   37MOL   O23940631   3.331   6.847   5.629 -0.3682  0.4912 -0.2324
   37MOL   N24040632   3.493   6.887   5.780  0.2800  0.0370  0.2410
   37MOL   C24140633   3.473   7.034   5.796  0.4869  0.3216  0.2712
   37MOL   C24240634   3.538   7.091   5.925 -0.2525  0.8605 -0.3469
   37MOL   C24340635   3.528   7.246   5.928  0.3697 -0.0249  0.4359
   37MOL   C24440636   3.605   7.300   6.054  0.2585 -0.8124  0.0132
   37MOL   C24540637   3.752   7.325   6.029  0.0551 -0.8007  0.4560
   37MOL   C24640638   3.824   7.373   6.157 -0.1354 -0.5460 -0.6592
   37MOL   N24740639   3.770   7.499   6.215 -0.4253 -0.9614  0.4775
   37MOL   H24840640   2.779   6.082   6.302  1.2539 -0.5667  2.1072
   37MOL   H24940641   2.801   6.236   6.394  0.2658  1.7113 -0.5037
   37MOL   H25040642   2.688   6.206   6.118  0.0327 -0.8255  0.9824
   37MOL   H25140643   2.715   6.352   6.207 -1.9789 -1.1609  0.6988
   37MOL   H25240644   2.972   6.292   6.201 -0.4302  1.5901 -0.2449
   37MOL   H25340645   2.926   6.140   6.123  1.3555  0.1837 -1.1340
   37MOL   H25440646   2.887   6.430   6.024  0.9085  0.3749 -1.2488
   37MOL   H25540647   2.831   6.279   5.940  0.2573 -2.9839  2.3961
   37MOL   H25640648   3.062   6.221   5.911  1.3913 -0.1450  3.0304
   37MOL   H25740649   3.124   6.341   6.016 -0.0857 -0.3433  0.5626
   37MOL   H25840650   3.012   6.385   5.740  1.4182  0.0592 -1.0243
   37MOL   H25940651   3.039   6.522   5.856 -1.4912  0.4487 -1.3220
   37MOL   H26040652   3.263   6.347   5.756 -0.1966  0.6353 -0.0738
   37MOL   H26140653   3.265   6.502   5.857  0.3553 -0.7461  1.5982
   37MOL   H26240654   3.157   6.491   5.583  1.4206 -0.2353 -1.3341
   37MOL   H26340655   3.145   6.620   5.683 -0.1628 -0.7390 -0.3128
   37MOL   H26440656   3.410   6.483   5.597  0.8182 -0.1164 -0.5635
   37MOL   H26540657   3.365   6.623   5.523 -1.1297  2.3977  1.1385
   37MOL   H26640658   3.430   6.628   5.821  0.4399 -0.0277  0.9176
   37MOL   H26740659   3.553   6.644   5.692  0.7895 -0.7495  3.6212
   37MOL   H26840660   3.552   6.841   5.847 -1.4427 -2.2467  0.2526
   37MOL   H26940661   3.366   7.050   5.808  0.8794  3.5486 -0.2310
   37MOL   H27040662   3.515   7.090   5.713 -3.4448  1.7642 -0.8534
   37MOL   H27140663   3.643   7.062   5.919 -0.2034  0.6409  1.2973
   37MOL   H27240664   3.495   7.047   6.015 -1.8248  0.1580 -1.4176
   37MOL   H27340665   3.567   7.290   5.837  1.0665 -0.0515  0.7142
   37MOL   H27440666   3.428   7.282   5.950  0.8078  1.2722  0.3208
   37MOL   H27540667   3.584   7.226   6.132 -1.4415  0.2579  0.5983
   37MOL   H27640668   3.550   7.389   6.083  0.6029 -0.8764  0.9177
   37MOL   H27740669   3.774   7.390   5.945 -0.1729 -1.1573  0.1204
   37MOL   H27840670   3.804   7.234   5.998 -2.0822 -1.8051 -0.2965
   37MOL   H27940671   3.930   7.369   6.133  0.0312  2.2718 -0.5359
   37MOL   H28040672   3.818   7.288   6.225  1.1181 -0.7005 -0.7235
   37MOL   H28140673   3.672   7.524   6.215 -0.0735  0.4997  0.0630
   37MOL   C28240674   3.853   7.596   6.264 -0.1037 -0.3894  0.5451
   37MOL   O28340675   3.976   7.579   6.283 -0.4547 -0.0034 -0.4579
   37MOL   C28440676   3.796   0.039   6.286 -0.1438 -0.3013  0.1286
   37MOL   C28540677   3.860   0.140   6.386  0.3781  0.0694  0.1362
   37MOL   C28640678   3.949   0.241   6.319 -0.1553 -0.5827  0.7415
   37MOL   C28740679   4.008   0.337   6.426  0.2958 -0.0977  1.4050
   37MOL   C28840680   4.057   0.476   6.385 -0.2622  0.0828 -0.3756
   37MOL   C28940681   4.124   0.531   6.510 -0.9862 -0.8954 -0.0127
   37MOL   C29040682   4.022   0.575   6.617 -0.4968  0.0610  0.4515
   37MOL   C29140683   4.092   0.664   6.728  0.3057  0.7782 -0.1485
   37MOL   C29240684   3.984   0.706   6.838 -0.0115 -0.3575  0.0722
   37MOL   C29340685   4.045   0.798   6.953 -0.5282 -0.2258 -0.5065
   37MOL   C29440686   4.082   0.944   6.918  0.8697 -0.4351 -0.2142
   37MOL   O29540687   4.001   1.032   6.950 -0.3351  0.1045  0.0595
   37MOL   N29640688   4.205   0.961   6.876 -0.8412  0.3918  0.9181
   37MOL   C29740689   4.245   1.087   6.819 -0.2009  0.1559 -0.0470
   37MOL   C29840690   4.197   1.111   6.672  0.1557  0.4740  0.2795
   37MOL   C29940691   4.275   1.035   6.568  0.0213  0.2898 -0.6578
   37MOL   C30040692   4.243   1.064   6.421 -0.8115 -0.1582  0.6674
   37MOL   C30140693   4.289   0.957   6.324 -0.0649  0.9669  0.0330
   37MOL   C30240694   4.257   0.987   6.178 -0.5933 -0.1145 -0.3654
   37MOL   N30340695   4.356   0.925   6.089  0.1377 -0.4646 -0.0319
   37MOL   H30440696   3.786   0.080   6.185 -1.7007 -2.1139 -0.4913
   37MOL   H30540697   3.691   0.024   6.313 -0.3939  0.3538 -0.4702
   37MOL   H30640698   3.903   0.080   6.466  0.7334 -1.4828 -1.2050
   37MOL   H30740699   3.780   0.203   6.425 -1.5540 -3.2407  1.6829
   37MOL   H30840700   4.011   0.191   6.245 -1.7200  0.3935 -1.2747
   37MOL   H30940701   3.887   0.318   6.274  0.6196  0.4891  1.4755
   37MOL   H31040702   4.089   0.287   6.479 -0.1589  1.5585  3.7157
   37MOL   H31140703   3.934   0.345   6.505  0.9525  0.4069  1.9758
   37MOL   H31240704   4.130   0.469   6.305  1.4782 -2.0544  1.2969
   37MOL   H31340705   3.974   0.541   6.358  1.9529  3.0875 -0.1461
   37MOL   H31440706   4.194   0.464   6.559  0.0506 -0.2558 -0.6007
   37MOL   H31540707   4.188   0.615   6.483 -0.4352  0.3018  4.4959
   37MOL   H31640708   3.967   0.490   6.657  0.7027 -0.9446 -0.0136
   37MOL   H31740709   3.948   0.635   6.564  1.8549  1.2360 -1.5834
   37MOL   H31840710   4.144   0.747   6.681 -1.7254  1.5528 -1.0663
   37MOL   H31940711   4.170   0.599   6.769  0.6130  0.7718 -0.7274
   37MOL   H32040712   3.909   0.757   6.778 -0.5759 -0.9919  0.2361
   37MOL   H32140713   3.940   0.622   6.890 -1.3082  2.2921  3.4877
   37MOL   H32240714   3.985   0.778   7.042  2.1607  2.1758  1.9382
   37MOL   H32340715   4.134   0.738   6.974 -0.6661 -1.0822 -2.2610
   37MOL   H32440716   4.270   0.884   6.869 -2.2040 -0.7737  0.9560
   37MOL   H32540717   4.354   1.087   6.814 -0.1821  1.9774  0.0500
   37MOL   H32640718   4.224   1.168   6.889  0.1724  1.4803 -1.4562
   37MOL   H32740719   4.199   1.220   6.658 -3.2938  0.5012 -0.3318
   37MOL   H32840720   4.089   1.095   6.670 -0.1106  1.6894  2.9096
   37MOL   H32940721   4.265   0.928   6.588 -1.4075  0.6333  0.5178
   37MOL   H33040722   4.384   1.040   6.576 -0.1477 -0.9814  3.1536
   37MOL   H33140723   4.137   1.084   6.404 -0.8272 -0.5502  0.2850
   37MOL   H33240724   4.292   1.156   6.391 -1.3313  0.0547  0.4603
   37MOL   H33340725   4.235   0.869   6.358 -0.8326  1.2725 -0.3784
   37MOL   H33440726   4.398   0.945   6.328 -0.1041  1.3450  4.9897
   37MOL   H33540727   4.155   0.957   6.153 -0.4609  1.1515 -2.5712
   37MOL   H33640728   4.271   1.092   6.153  2.2519 -0.4874 -0.4954
   37MOL   H33740729   4.421   0.985   6.041  0.1152 -1.6344 -1.5792
   37MOL   C33840730   4.351   0.794   6.049 -0.0062 -0.3088  0.1253
   37MOL   O33940731   4.277   0.709   6.101 -0.1447  0.0162  0.1416
   37MOL   C34040732   4.449   0.758   5.936  0.1870  0.3729 -0.0990
   37MOL   C34140733   4.572   0.672   5.972 -0.8960  0.1799 -0.8699
   37MOL   C34240734   4.686   0.752   6.038  0.4538 -0.1030  0.0506
   37MOL   C34340735   4.664   0.817   6.176  0.6770 -0.2216  0.4156
   37MOL   C34440736   4.783   0.814   6.281  0.6693  0.3309 -0.1652
   37MOL   C34540737   4.757   0.708   6.385  0.0060  0.1963 -0.3599
   37MOL   C34640738   4.639   0.734   6.481 -0.3208  0.3490  0.0106
   37MOL   C34740739   4.620   0.619   6.591 -0.2166  0.0670 -0.1124
   37MOL   C34840740   4.521   0.659   6.699 -0.1428 -0.3747  0.2701
   37MOL   C34940741   4.483   0.550   6.801  0.6531 -0.6824 -0.0189
   37MOL   C35040742   4.407   0.610   6.926  0.4421  1.0373  0.4826
   37MOL   O35140743   4.389   0.729   6.951 -0.4637 -0.5597  0.8602
   37MOL   N35240744   4.373   0.517   7.012  0.1716  0.1580  0.6520
   37MOL   C35340745   4.302   0.540   7.137  0.5962  0.0185  0.5274
   37MOL   C35440746   4.175   0.453   7.131 -0.1350 -0.0706  0.2834
   37MOL   C35540747   4.097   0.443   7.262 -0.3474  0.4379 -0.7905
   37MOL   C35640748   4.152   0.333   7.352  0.5392 -0.5597  0.3510
   37MOL   C35740749   4.040   0.300   7.447  0.1729  0.0629  0.1543
   37MOL   C35840750   4.077   0.182   7.533  0.1608 -0.1791 -0.7005
   37MOL   N35940751   3.964   0.132   7.615 -0.2022  0.2220 -0.4603
   37MOL   H36040752   4.465   0.840   5.866 -1.2435  0.4096 -0.3814
   37MOL   H36140753   4.390   0.694   5.872  0.1728  0.2092  0.0759
   37MOL   H36240754   4.545   0.589   6.037  0.1664 -0.4529 -1.2271
   37MOL   H36340755   4.612   0.625   5.882 -1.5828 -0.9677 -0.5758
   37MOL   H36440756   4.713   0.834   5.971 -0.8633  1.3056  1.2154
   37MOL   H36540757   4.779   0.697   6.031 -0.0869 -1.4285  2.6117
   37MOL   H36640758   4.654   0.922   6.149 -0.9331 -0.2199  0.9609
   37MOL   H36740759   4.568   0.790   6.220 -1.1947  1.6557 -2.3253
   37MOL   H36840760   4.879   0.801   6.230  0.3103  1.6703 -1.2263
   37MOL   H36940761   4.791   0.902   6.344  1.8401  0.6032 -0.6787
   37MOL   H37040762   4.742   0.613   6.332 -3.4528  0.0288  0.8238
   37MOL   H37140763   4.847   0.685   6.442 -2.6949 -2.1982  3.1195
   37MOL   H37240764   4.663   0.827   6.532 -0.6639 -0.0885  0.9725
   37MOL   H37340765   4.549   0.746   6.421 -1.6410 -2.1539  1.4021
   37MOL   H37440766   4.586   0.528   6.542  0.0133 -0.2364  0.2993
   37MOL   H37540767   4.721   0.596   6.626 -0.5167  0.6740  1.1761
   37MOL   H37640768   4.431   0.693   6.648 -0.1892 -0.1329  0.5109
   37MOL   H37740769   4.547   0.750   6.754  2.1656  0.8168 -2.6972
   37MOL   H37840770   4.426   0.473   6.747  2.0388  0.0455 -2.6126
   37MOL   H37940771   4.576   0.497   6.823  0.8458 -0.0619  0.6771
   37MOL   H38040772   4.400   0.419   7.007 -1.0720 -0.3373  2.7869
   37MOL   H38140773   4.277   0.646   7.150  2.8190  0.4767  1.3350
   37MOL   H38240774   4.376   0.522   7.214 -0.2003 -1.9345  0.8554
   37MOL   H38340775   4.192   0.352   7.093 -0.9430 -0.0766 -0.0743
   37MOL   H38440776   4.105   0.500   7.061 -0.4885  0.5282  1.0343
   37MOL   H38540777   4.072   0.540   7.305  0.8592  0.0158  0.9068
   37MOL   H38640778   4.001   0.406   7.225 -0.2249  1.6692 -2.4260
   37MOL   H38740779   4.182   0.249   7.290  1.2614 -1.0603  1.3681
   37MOL   H38840780   4.251   0.356   7.392  0.9617  0.1601 -1.0464
   37MOL   H38940781   3.948   0.277   7.394 -1.3387 -0.0102  2.7036
   37MOL   H39040782   4.019   0.386   7.511  2.4213  0.9442 -0.2458
   37MOL   H39140783   4.115   0.099   7.474  0.1534 -0.6508 -0.0457
   37MOL   H39240784   4.156   0.213   7.601 -3.2915  0.0608  3.4609
   37MOL   H39340785   3.970   0.169   0.017 -1.0097  0.9814 -0.6878
   37MOL   C39440786   3.855   0.077   7.572  0.6090  0.3178  0.3230
   37MOL   O39540787   3.830   0.030   7.460 -0.0910  0.3482 -0.2510
   37MOL   C39640788   3.747   0.059   7.678  0.5854  0.2594  0.4108
   37MOL   C39740789   3.602   0.097   7.643  0.2652  0.2523 -0.2476
   37MOL   C39840790   3.582   0.246   7.651 -0.1378 -1.1064  0.1721
   37MOL   C39940791   3.637   0.335   7.543 -0.0213 -1.1130  0.4142
   37MOL   C40040792   3.660   0.477   7.581 -0.6012 -0.5952  0.3381
   37MOL   C40140793   3.716   0.552   7.461 -0.0932  0.1770 -0.5581
   37MOL   C40240794   3.738   0.694   7.490 -0.0464 -0.0482 -0.5221
   37MOL   C40340795   3.802   0.767   7.372 -0.0724  0.3978  0.1037
   37MOL   C40440796   3.853   0.914   7.400  0.3593  0.0823  0.4423
   37MOL   C40540797   3.910   0.982   7.271  0.3571  0.3444 -0.4843
   37MOL   C40640798   3.955   1.127   7.284  0.7472 -0.1228  0.1349
   37MOL   O40740799   3.959   1.174   7.399  0.0292  0.3262 -0.6487
   37MOL   N40840800   3.993   1.192   7.173  0.1172 -0.0821 -0.7275
   37MOL   C40940801   4.062   1.324   7.172 -0.0955 -0.0229 -0.5695
   37MOL   C41040802   3.988   1.424   7.084 -0.2964  0.1172 -0.6808
   37MOL   C41140803   4.013   1.398   6.931 -0.2036  0.0600  1.0236
   37MOL   C41240804   3.973   1.514   6.840  0.0172  0.1213  0.8904
   37MOL   C41340805   4.021   1.512   6.697  0.2111 -0.2240  0.5999
   37MOL   C41440806   3.995   1.649   6.633  0.2482 -0.2795  0.4804
   37MOL   N41540807   4.048   1.647   6.491  0.2115  0.4204  0.1979
   37MOL   H41640808   3.770   0.105   0.082  1.7608  2.1504 -0.7495
   37MOL   H41740809   3.751   7.642   7.690  0.2889  0.2687  0.5892
   37MOL   H41840810   3.548   0.055   0.037  3.0463 -0.7061  1.1148
   37MOL   H41940811   3.564   0.051   7.552 -0.1153 -0.4532  0.2587
   37MOL   H42040812   3.624   0.278   0.055 -1.2684  1.0570 -0.0392
   37MOL   H42140813   3.473   0.252   7.645 -0.1055 -0.9769 -0.2859
   37MOL   H42240814   3.566   0.331   7.460 -0.1834  0.2838  0.4839
   37MOL   H42340815   3.728   0.301   7.494 -0.6038  1.1070 -2.3158
   37MOL   H42440816   3.563   0.522   7.602 -1.6009 -1.8941 -1.2806
   37MOL   H42540817   3.727   0.485   7.666 -1.6325  0.0165  1.0974
   37MOL   H42640818   3.803   0.501   7.419  0.2639 -0.2852  0.7172
   37MOL   H42740819   3.657   0.553   7.370  1.5664  0.4809 -1.6685
   37MOL   H42840820   3.642   0.735   7.520  0.4246  0.5472  0.1924
   37MOL   H42940821   3.799   0.702   7.580 -0.3881 -1.3505 -0.1707
   37MOL   H43040822   3.882   0.712   7.322 -0.0246  0.7551 -0.2207
   37MOL   H43140823   3.727   0.779   7.294 -0.2226 -1.9417 -0.1542
   37MOL   H43240824   3.931   0.909   7.476  0.7369  2.0091  0.2078
   37MOL   H43340825   3.769   0.970   7.441 -0.3528 -1.4403  1.0937
   37MOL   H43440826   3.981   0.909   7.232 -0.9991 -0.7664 -0.8913
   37MOL   H43540827   3.829   0.983   7.198 -0.5328  1.6872  0.4965
   37MOL   H43640828   4.000   1.142   7.086  0.7498  0.8326 -1.2048
   37MOL   H43740829   4.167   1.322   7.142  0.3710  1.3145  0.9149
   37MOL   H43840830   4.074   1.368   7.271 -0.8269 -2.0178  0.4379
   37MOL   H43940831   4.008   1.526   7.116  0.0085  0.2012 -1.1336
   37MOL   H44040832   3.884   1.398   7.105 -0.3607  1.6720  1.0919
   37MOL   H44140833   4.119   1.387   6.907  0.1436 -0.8105  2.8791
   37MOL   H44240834   3.960   1.309   6.896  2.0323 -0.6312 -0.7121
   37MOL   H44340835   3.865   1.525   6.830  0.2752  0.5236 -1.6453
   37MOL   H44440836   4.006   1.609   6.883  1.3190  0.6852 -1.2543
   37MOL   H44540837   4.128   1.491   6.698  0.4224  0.8018  0.5286
   37MOL   H44640838   3.979   1.432   6.635 -0.5985  0.5141  0.1675
   37MOL   H44740839   3.888   1.664   6.628  0.3601  0.4810  0.3951
   37MOL   H44840840   4.043   1.730   6.688 -1.1579  0.4791  0.6180
   37MOL   H44940841   4.139   1.688   6.479 -0.1881  1.1613 -0.3635
   37MOL   C45040842   3.979   1.614   6.380  0.5854  0.8668 -0.7750
   37MOL   O45140843   3.864   1.573   6.389 -0.2787  0.2858  0.1768
   37MOL   C45240844   4.055   1.619   6.251  0.0175 -0.5064 -0.1058
   37MOL   C45340845   4.147   1.495   6.218  0.0134 -0.1972  0.5451
   37MOL   C45440846   4.077   1.355   6.215 -0.0246  0.1668  0.3134
   37MOL   C45540847   3.969   1.360   6.104  0.8489  0.7296 -0.0180
   37MOL   C45640848   3.894   1.234   6.084  0.2104  0.2183  0.2319
   37MOL   C45740849   3.777   1.249   5.989  1.1026  0.8243  0.1716
   37MOL   C45840850   3.689   1.128   5.968  0.1942  0.4952 -0.3399
   37MOL   C45940851   3.596   1.141   5.849  0.2740 -0.7806 -0.4562
   37MOL   C46040852   3.473   1.233   5.835 -0.1981 -0.3861 -0.5706
   37MOL   C46140853   3.352   1.176   5.902  0.1366 -0.8640  0.2698
   37MOL   C46240854   3.336   1.201   6.048  0.4245 -0.0184  0.3519
   37MOL   O46340855   3.291   1.303   6.087 -0.2242  0.2847  0.4874
   37MOL   N46440856   3.376   1.104   6.134 -0.4502  0.2319  0.0325
   37MOL   C46540857   3.375   1.118   6.278  0.0576 -0.0880 -0.0364
   37MOL   C46640858   3.321   0.988   6.342  1.0945 -0.1994  0.2661
   37MOL   C46740859   3.304   0.995   6.485 -0.4874 -0.1728 -0.5694
   37MOL   C46840860   3.230   0.879   6.539 -0.0133  0.4809 -0.9637
   37MOL   C46940861   3.220   0.890   6.692  0.2694 -0.1078  0.0010
   37MOL   C47040862   3.147   0.765   6.742 -0.5277  0.4695 -0.3130
   37MOL   N47140863   3.162   0.743   6.885  0.0192  0.6622  0.0715
   37MOL   H47240864   3.982   1.639   6.173 -0.4576  1.9144  0.9343
   37MOL   H47340865   4.121   1.704   6.236  0.2165 -0.1483  2.5675
   37MOL   H47440866   4.231   1.488   6.288 -0.5226  2.0656  1.4629
   37MOL   H47540867   4.203   1.511   6.126  2.2626  0.5675  1.9777
   37MOL   H47640868   4.035   1.322   6.310 -1.5625 -1.9474 -1.0564
   37MOL   H47740869   4.155   1.281   6.196  0.4012  0.7693 -0.3181
   37MOL   H47840870   4.012   1.388   6.008  0.7701  0.7242 -0.0553
   37MOL   H47940871   3.901   1.437   6.141  0.8856  1.0059 -0.5223
   37MOL   H48040872   3.853   1.209   6.181 -0.6893  0.2302 -0.1393
   37MOL   H48140873   3.958   1.157   6.042 -2.1088 -2.2922  1.1513
   37MOL   H48240874   3.827   1.272   5.894 -0.4421  3.3354 -0.0968
   37MOL   H48340875   3.717   1.338   6.008 -0.8904 -0.3910 -0.3140
   37MOL   H48440876   3.758   1.046   5.952 -2.3519 -1.8665  0.3845
   37MOL   H48540877   3.638   1.108   6.062 -0.0118  1.4219 -0.2429
   37MOL   H48640878   3.646   1.179   5.760 -0.8454  1.0225 -0.3499
   37MOL   H48740879   3.569   1.042   5.813  0.1223 -0.0627 -2.3849
   37MOL   H48840880   3.437   1.241   5.732  0.4056 -1.4818 -0.8768
   37MOL   H48940881   3.486   1.335   5.871  0.1549 -0.5342 -0.2738
   37MOL   H49040882   3.259   1.198   5.851  0.0935 -1.7844 -0.0594
   37MOL   H49140883   3.341   1.070   5.877 -0.3616 -0.1848 -2.5121
   37MOL   H49240884   3.408   1.017   6.094 -2.1485 -0.0628 -0.7484
   37MOL   H49340885   3.306   1.195   6.314  2.9499  1.7054  1.8696
   37MOL   H49440886   3.476   1.144   6.309 -0.0907  0.2406  0.1673
   37MOL   H49540887   3.230   0.952   6.295 -0.4435  2.1467  1.3736
   37MOL   H49640888   3.392   0.908   6.319 -0.3231 -1.7666  1.1786
   37MOL   H49740889   3.249   1.088   6.501 -0.4716 -0.3897  0.7568
   37MOL   H49840890   3.399   1.003   6.537 -0.4432  0.0655 -0.6844
   37MOL   H49940891   3.275   0.782   6.517  4.3730  1.6260  2.2696
   37MOL   H50040892   3.129   0.885   6.498 -1.0633 -0.7919  1.3073
   37MOL   H50140893   3.319   0.898   6.736  1.1241 -1.2984 -1.6542
   37MOL   H50240894   3.168   0.979   6.726 -2.1240 -0.7738 -1.7486
   37MOL   H50340895   3.045   0.786   6.712 -0.2821  0.9328 -0.8320
   37MOL   H50440896   3.169   0.680   6.677  0.6367  0.6835 -0.2223
   37MOL   H50540897   3.188   0.828   6.934  0.6143  0.9395 -0.7172
   37MOL   C50640898   3.145   0.620   6.936 -0.2025  0.6522  0.0110
   37MOL   O50740899   3.116   0.521   6.870 -0.0762  0.4000 -0.2745
   37MOL   C50840900   3.168   0.613   7.087 -0.5982  0.2154  0.3313
   37MOL   C50940901   3.311   0.577   7.113  0.5039 -0.4694 -0.4015
   37MOL   C51040902   3.347   0.543   7.264  0.1155  0.1411  0.0687
   37MOL   C51140903   3.311   0.657   7.356  0.1092  0.9101  0.1204
   37MOL   C51240904   3.387   0.789   7.336 -0.1434  0.3885 -0.1674
   37MOL   C51340905   3.376   0.894   7.449 -0.3983 -0.6368 -0.4299
   37MOL   C51440906   3.229   0.948   7.462  0.3933 -0.2158 -0.2243
   37MOL   C51540907   3.211   1.044   7.575  0.4279 -0.0517  0.1717
   37MOL   C51640908   3.068   1.090   7.601 -0.2955 -0.1052  1.0615
   37MOL   C51740909   2.968   0.986   7.656 -0.6992  0.3413  0.0877
   37MOL   C51840910   2.997   0.952   0.110  0.7459  0.1981  0.7590
   37MOL   O51940911   2.993   1.041   0.197  0.5825  0.2998  0.3852
   37MOL   N52040912   2.994   0.822   0.141  0.1677  0.1685 -0.5191
   37MOL   C52140913   3.003   0.772   0.276 -0.5395  0.0912 -0.2560
   37MOL   C52240914   2.894   0.669   0.320  0.8103  0.7526 -0.7093
   37MOL   C52340915   2.756   0.728   0.338  0.7383  0.1796  0.2538
   37MOL   C52440916   2.652   0.618   0.341 -0.2251 -0.0652  0.4356
   37MOL   C52540917   2.515   0.655   0.401 -1.1191  0.3633 -0.3801
   37MOL   C52640918   2.404   0.549   0.408 -0.0614 -0.3226 -0.2664
   37MOL   N52740919   2.451   0.419   0.458  0.0641  0.4177 -0.3259
   37MOL   H52840920   3.105   0.533   7.124  1.2424 -0.7046  1.5032
   37MOL   H52940921   3.148   0.707   7.139 -0.3891  0.5078 -0.1103
   37MOL   H53040922   3.368   0.660   7.071 -1.4889  0.6035 -1.0350
   37MOL   H53140923   3.346   0.494   7.052 -1.7721 -3.5168  2.2361
   37MOL   H53240924   3.451   0.513   7.277  0.0533  0.0523  0.3631
   37MOL   H53340925   3.285   0.455   7.281  1.5061 -0.5781  1.5118
   37MOL   H53440926   3.206   0.681   7.342  0.3729  0.7735 -2.3279
   37MOL   H53540927   3.338   0.623   7.456 -2.3748 -1.7825 -0.0273
   37MOL   H53640928   3.492   0.774   7.312 -0.5582  1.5819 -3.0817
   37MOL   H53740929   3.339   0.830   7.247 -0.0640  0.1891 -0.3016
   37MOL   H53840930   3.413   0.856   7.544 -0.8743 -1.6278 -0.6421
   37MOL   H53940931   3.446   0.975   7.425 -0.5872 -0.6170 -0.9258
   37MOL   H54040932   3.194   0.982   7.365  0.5464 -0.2496 -0.2908
   37MOL   H54140933   3.162   0.867   7.489 -1.4592  0.7793 -1.7792
   37MOL   H54240934   3.259   1.016   7.668 -0.5866 -0.0791  0.6881
   37MOL   H54340935   3.261   1.132   7.534 -0.5741  0.8825  0.9408
   37MOL   H54440936   3.031   1.124   7.505  1.0598 -2.1262 -0.2195
   37MOL   H54540937   3.069   1.175   7.670  1.7589 -0.6396  1.7221
   37MOL   H54640938   2.862   0.999   7.635 -0.4844 -2.7591 -3.5057
   37MOL   H54740939   2.980   0.888   7.609  0.1099 -0.4876  1.9727
   37MOL   H54840940   2.981   0.747   0.074  0.7976 -1.7945  1.5026
   37MOL   H54940941   2.996   0.848   0.353  2.4391  0.2969 -0.1586
   37MOL   H55040942   3.099   0.722   0.293 -0.7973  0.6035  3.1433
   37MOL   H55140943   2.934   0.616   0.407  2.1589  1.9738 -0.5694
   37MOL   H55240944   2.891   0.585   0.250 -2.0257 -2.2316  2.7364
   37MOL   H55340945   2.730   0.801   0.261 -0.4132 -0.4725  0.0043
   37MOL   H55440946   2.761   0.777   0.435  1.2707  0.2151  0.2092
   37MOL   H55540947   2.675   0.527   0.398 -2.4975  0.1304  1.7708
   37MOL   H55640948   2.629   0.587   0.239 -0.1559  1.0497  0.0774
   37MOL   H55740949   2.545   0.701   0.495  2.9162  1.5284 -2.0973
   37MOL   H55840950   2.474   0.728   0.331 -0.8148 -0.4433 -1.4214
   37MOL   H55940951   2.328   0.574   0.482 -1.1351 -1.0848 -1.0966
   37MOL   H56040952   2.355   0.532   0.312  0.7005 -1.4017 -0.4735
   37MOL   H56140953   2.461   0.344   0.391  2.9409  0.8957 -0.5132
   37MOL   C56240954   2.475   0.380   0.582 -0.2540  0.5170 -0.5119
   37MOL   O56340955   2.470   0.452   0.683 -0.2364 -0.0737 -0.1625
   37MOL   C56440956   2.518   0.229   0.605  0.5046  0.1181  0.2089
   37MOL   C56540957   2.500   0.168   0.747  1.0069  0.4438 -0.8478
   37MOL   C56640958   2.466   0.021   0.735 -0.6859  0.6611  0.0060
   37MOL   C56740959   2.583   7.634   0.676 -0.0692 -0.2588 -0.2070
   37MOL   C56840960   2.555   7.491   0.664 -0.8102 -0.4065 -0.1798
   37MOL   C56940961   2.655   7.416   0.569 -0.3439  0.2049  0.7531
   37MOL   C57040962   2.628   7.262   0.551 -0.2266  0.1834  0.7486
   37MOL   C57140963   2.510   7.226   0.474 -0.0050  0.0849 -0.1779
   37MOL   C57240964   2.526   7.083   0.412 -0.1421 -0.5477  0.7022
   37MOL   C57340965   2.400   7.038   0.333 -0.1958  0.0110 -0.8110
   37MOL   C57440966   2.417   6.902   0.264 -0.4385  0.1832 -0.0492
   37MOL   O57540967   2.521   6.840   0.284  0.0307 -0.2182  0.4359
   37MOL   N57640968   2.330   6.869   0.173  0.5808  0.0313 -0.4141
   37MOL   C57740969   2.322   6.749   0.090 -0.1853 -0.1464  1.2724
   37MOL   C57840970   2.393   6.763   7.638 -0.4531 -0.3257  0.0829
   37MOL   C57940971   2.347   6.884   7.550  0.2623  0.2706 -0.3600
   37MOL   C58040972   2.283   6.836   7.414 -0.3087 -0.2803 -0.7332
   37MOL   C58140973   2.380   6.826   7.290 -0.7875  0.4750 -0.2877
   37MOL   C58240974   2.460   6.955   7.266 -0.2585  0.3506  0.4038
   37MOL   N58340975   2.536   6.958   7.136 -0.7303  0.2584  0.7912
   37MOL   H58440976   2.469   0.160   0.537 -0.5866  0.6726  0.4247
   37MOL   H58540977   2.619   0.222   0.566  0.7399  1.0573  0.6325
   37MOL   H58640978   2.592   0.186   0.803 -0.4789 -0.7486  2.0854
   37MOL   H58740979   2.424   0.213   0.812  0.3172 -1.4945 -0.2950
   37MOL   H58840980   2.376   0.002   0.677 -1.2421 -0.8474  1.3173
   37MOL   H58940981   2.448   7.670   0.834  0.4679  0.8112  0.2827
   37MOL   H59040982   2.608   7.684   0.582  1.1421 -1.0684 -0.3342
   37MOL   H59140983   2.670   7.638   0.741  1.1316 -0.9206 -1.7369
   37MOL   H59240984   2.572   7.450   0.764  0.3783 -0.1827 -0.2856
   37MOL   H59340985   2.455   7.473   0.625 -0.8333 -1.4038  0.3165
   37MOL   H59440986   2.642   7.455   0.468  1.5514 -2.3493 -0.5289
   37MOL   H59540987   2.761   7.430   0.587  0.1965 -0.4820 -1.6076
   37MOL   H59640988   2.709   7.229   0.487 -0.5585  2.0972 -0.7331
   37MOL   H59740989   2.628   7.216   0.650  1.7425  0.8626  1.0798
   37MOL   H59840990   2.502   7.286   0.383 -2.3033 -1.6710 -1.2046
   37MOL   H59940991   2.422   7.238   0.538  0.2144 -0.1889  0.1785
   37MOL   H60040992   2.565   7.013   0.486 -0.3459 -1.0370  0.3427
   37MOL   H60140993   2.605   7.092   0.338 -0.9332  0.5655 -0.0352
   37MOL   H60240994   2.313   7.036   0.397  0.7257  0.7021  0.4869
   37MOL   H60340995   2.390   7.119   0.261  0.4166 -0.5508 -1.5374
   37MOL   H60440996   2.265   6.944   0.152  0.5151  0.0089 -0.2912
   37MOL   H60540997   2.217   6.725   0.068 -0.6594  1.8448  1.2954
   37MOL   H60640998   2.358   6.665   0.149  3.6113  1.7269  1.7299
   37MOL   H60740999   2.414   6.672   7.582 -1.4907 -0.5264  0.0141
   37MOL   H60841000   2.496   6.784   7.666 -0.6943  0.2061  0.6009
   37MOL   H60941001   2.425   6.960   7.558  2.3009 -1.8487  0.5774
   37MOL   H61041002   2.271   6.920   7.620 -1.3512 -2.3298 -0.7186
   37MOL   H61141003   2.232   6.739   7.419 -1.3287  0.2578 -0.5009
   37MOL   H61241004   2.199   6.901   7.392  0.8946  1.5161 -0.0742
   37MOL   H61341005   2.323   6.796   7.202 -1.9918  1.9963 -0.0378
   37MOL   H61441006   2.443   6.738   7.306 -0.7191  0.2612 -1.6517
   37MOL   H61541007   2.391   7.036   7.288 -0.0906 -0.0390  2.4163
   37MOL   H61641008   2.538   6.980   7.338  0.7589 -0.2414 -0.4560
   37MOL   H61741009   2.634   6.940   7.147 -0.9208 -0.7839  0.8873
   37MOL   C61841010   2.480   6.989   7.019  0.6010  0.0492  0.6453
   37MOL   O61941011   2.359   7.005   7.003 -0.2306 -0.1401 -0.1974
   37MOL   C62041012   2.564   7.043   6.904 -0.1502  0.2358 -0.0752
   37MOL   C62141013   2.587   7.197   6.915  0.7298 -0.7730  0.7672
   37MOL   C62241014   2.660   7.247   7.038  0.1976 -0.7851 -0.4345
   37MOL   C62341015   2.649   7.394   7.051  0.6282  0.2344  1.0983
   37MOL   C62441016   2.722   7.437   7.178 -0.1932  0.3054 -0.2129
   37MOL   C62541017   2.876   7.438   7.164 -0.0753 -0.4319  0.3330
   37MOL   C62641018   2.938   7.508   7.288  0.0343 -0.1686 -0.0841
   37MOL   C62741019   2.893   7.656   7.314  0.4611 -0.6826  0.2459
   37MOL   C62841020   2.984   0.038   7.423  0.3056  0.1412  0.5830
   37MOL   C62941021   3.121   0.070   7.368  0.1116 -0.0833 -0.2786
   37MOL   C63041022   3.111   0.192   7.275  0.4394  0.2122 -0.6890
   37MOL   O63141023   3.049   0.297   7.302 -0.4006 -0.3608 -0.3289
   37MOL   N63241024   3.166   0.168   7.156  0.5600  0.4024 -0.4296
   37MOL   C63341025   3.122   0.236   7.034  0.2195  0.0724 -0.0154
   37MOL   C63441026   3.047   0.140   6.944 -0.4520 -0.5574  0.0317
   37MOL   C63541027   3.155   0.037   6.896  0.3698 -0.3698 -0.0828
   37MOL   C63641028   3.095   7.608   6.827 -0.0263 -0.1191  0.2530
   37MOL   C63741029   3.215   7.525   6.782 -0.1540  0.0445  0.0337
   37MOL   C63841030   3.167   7.419   6.676 -0.7528 -0.5712  0.1004
   37MOL   N63941031   3.050   7.338   6.716  0.2393  0.4852  0.5119
   37MOL   H64041032   2.532   7.012   6.805  2.5044  0.6342 -1.0763
   37MOL   H64141033   2.660   6.993   6.911  0.0548  0.5072 -0.9750
   37MOL   H64241034   2.493   7.252   6.916  1.7084  0.9238 -0.4186
   37MOL   H64341035   2.630   7.239   6.825  0.0902 -1.0971  0.3077
   37MOL   H64441036   2.765   7.218   7.033  1.1551  2.4412  0.2144
   37MOL   H64541037   2.626   7.203   7.132  1.3929  0.2512  0.5013
   37MOL   H64641038   2.701   7.445   6.970  0.6107  0.2893  1.1224
   37MOL   H64741039   2.546   7.428   7.056 -0.4043 -2.6166 -0.1564
   37MOL   H64841040   2.687   7.536   7.207 -0.3236  0.6989 -1.7051
   37MOL   H64941041   2.677   7.375   7.257  0.4723 -2.5726 -2.0139
   37MOL   H65041042   2.919   7.485   7.075 -2.0150  0.9990  0.1195
   37MOL   H65141043   2.934   7.346   7.153 -1.4993 -1.1956 -1.0047
   37MOL   H65241044   2.923   7.454   7.382  4.1719 -1.4955 -0.0986
   37MOL   H65341045   3.045   7.495   7.278 -0.0287  0.4703 -1.7451
   37MOL   H65441046   2.883   0.027   7.225 -0.5165  0.3865  1.0952
   37MOL   H65541047   2.799   7.657   7.369  2.3176  0.0464  3.5871
   37MOL   H65641048   2.999   7.661   7.507  1.0866  2.7685  2.6786
   37MOL   H65741049   2.935   0.120   7.476 -0.4101 -1.3268  2.2551
   37MOL   H65841050   3.191   0.097   7.447 -0.1794 -0.2783  0.0478
   37MOL   H65941051   3.167   7.676   7.318  0.2638  0.7382 -1.5712
   37MOL   H66041052   3.217   0.082   7.144 -0.5670 -0.3794  0.2520
   37MOL   H66141053   3.054   0.319   7.055 -1.6465 -1.4479  0.1425
   37MOL   H66241054   3.213   0.275   6.990  0.7365 -2.4245 -1.2868
   37MOL   H66341055   3.003   0.203   6.867  0.0768 -0.3427 -0.0951
   37MOL   H66441056   2.971   0.082   6.996  0.1142 -0.7071  0.6998
   37MOL   H66541057   3.226   0.098   6.841 -1.4171  1.1013 -0.8144
   37MOL   H66641058   3.213   0.004   6.982  0.5176 -0.2441 -0.1353
   37MOL   H66741059   3.042   7.636   6.736 -0.8270  0.1123  0.7859
   37MOL   H66841060   3.033   7.559   6.901  0.7661 -0.7039  0.5379
   37MOL   H66941061   3.293   7.588   6.739 -0.1887  0.6131  0.7785
   37MOL   H67041062   3.266   7.486   6.871  1.7084  0.2039 -0.9240
   37MOL   H67141063   3.128   7.474   6.591  2.3932  2.2720  0.4041
   37MOL   H67241064   3.250   7.369   6.627 -0.4837  0.0214 -0.0561
   37MOL   H67341065   2.957   7.374   6.699  0.1842 -0.2046 -0.6922
   37MOL   C67441066   3.067   7.212   6.757  0.8303  0.6292  0.5142
   37MOL   O67541067   3.181   7.173   6.773  0.1027 -0.0841 -0.4114
   37MOL   C67641068   2.940   7.125   6.773  0.0530  0.3950 -0.0699
   37MOL   C67741069   2.970   6.974   6.759 -0.1100  0.5841 -0.3257
   37MOL   C67841070   2.967   6.909   6.618 -0.0304 -0.1746  0.0740
   37MOL   C67941071   3.072   6.950   6.518 -0.2995 -0.1835 -0.1659
   37MOL   C68041072   3.026   7.069   6.431 -0.3223  0.9966  0.6507
   37MOL   C68141073   3.147   7.125   6.352 -0.7124  0.1935  0.1533
   37MOL   C68241074   3.121   7.259   6.284 -0.1999 -0.3905 -0.0104
   37MOL   C68341075   3.244   7.306   6.194 -0.6372  0.7905  0.3940
   37MOL   C68441076   3.237   7.456   6.153  0.0268 -0.2834  0.4784
   37MOL   C68541077   3.261   7.562   6.258 -0.0087 -0.3120  0.1388
   37MOL   C68641078   3.396   7.568   6.323 -0.8400  1.2024 -0.2877
   37MOL   O68741079   3.496   7.534   6.262  0.0986 -1.0089  0.3466
   37MOL   N68841080   3.405   7.593   6.453  0.2168 -0.1686 -0.6497
   37MOL   C68941081   3.522   7.614   6.533  0.4721 -0.3748  0.4236
   37MOL   C69041082   3.621   7.496   6.551  0.4427  0.0457 -0.6081
   37MOL   C69141083   3.752   7.538   6.619  0.1508  0.6815 -0.0490
   37MOL   C69241084   3.846   7.423   6.649  0.6197  0.0259 -0.2305
   37MOL   C69341085   3.983   7.451   6.717  0.0493  0.5788 -1.0171
   37MOL   C69441086   4.091   7.520   6.629 -0.2470  0.6689 -0.0856
   37MOL   N69541087   4.104   7.455   6.502  0.1591  0.2086  0.5653
   37MOL   H69641088   2.859   7.153   6.707 -0.6528 -2.4364 -0.4431
   37MOL   H69741089   2.912   7.143   6.877  1.4436  0.9908  0.2139
   37MOL   H69841090   2.901   6.923   6.826  0.1427 -0.1765 -0.6444
   37MOL   H69941091   3.065   6.954   6.809 -0.6215  0.3628  0.5617
   37MOL   H70041092   2.998   6.806   6.632 -1.6767 -0.5874  0.8392
   37MOL   H70141093   2.866   6.913   6.577 -0.4133 -0.2655  0.9909
   37MOL   H70241094   3.103   6.874   6.447  0.1767 -1.1387  1.0487
   37MOL   H70341095   3.167   6.969   6.568  0.5139  0.4533 -1.9370
   37MOL   H70441096   2.981   7.147   6.492 -3.2530 -0.7941  0.8916
   37MOL   H70541097   2.946   7.034   6.366 -0.4545  3.2973 -0.4450
   37MOL   H70641098   3.229   7.156   6.417 -0.7814 -2.2249  1.4381
   37MOL   H70741099   3.197   7.048   6.293 -0.2864  0.8138 -0.2976
   37MOL   H70841100   3.029   7.251   6.226  1.3253 -1.8733 -2.3077
   37MOL   H70941101   3.100   7.335   6.359  1.3964 -0.6280  0.7100
   37MOL   H71041102   3.339   7.296   6.246 -0.5488 -1.7625 -0.1857
   37MOL   H71141103   3.244   7.234   6.112 -2.6226  2.2656 -0.9568
   37MOL   H71241104   3.147   7.481   6.097  1.0117  0.7525 -0.6656
   37MOL   H71341105   3.321   7.471   6.086 -0.9464  0.9375 -0.4947
   37MOL   H71441106   3.234   7.664   6.230 -1.0957 -0.1066  1.8467
   37MOL   H71541107   3.194   7.537   6.340 -0.6195  1.1140  0.1034
   37MOL   H71641108   3.314   7.616   6.492 -0.4452 -2.1382 -0.9607
   37MOL   H71741109   3.585   7.691   6.488 -0.6999 -0.2225 -1.0009
   37MOL   H71841110   3.485   7.660   6.626  0.3669 -1.5994  0.9929
   37MOL   H71941111   3.644   7.459   6.451  1.6568  0.1797 -0.3822
   37MOL   H72041112   3.559   7.427   6.607 -1.4261  2.0205 -0.1738
   37MOL   H72141113   3.807   7.607   6.554  1.0767 -1.7640 -1.9844
   37MOL   H72241114   3.730   7.588   6.713 -1.6654  1.2469 -0.7695
   37MOL   H72341115   3.848   7.361   6.559  3.2167 -2.3305  1.3766
   37MOL   H72441116   3.799   7.358   6.722  2.1653  0.1077  0.8664
   37MOL   H72541117   4.010   7.351   6.752 -2.4069  0.7095  1.4354
   37MOL   H72641118   3.979   7.510   6.808  2.0076 -0.2822 -0.3368
   37MOL   H72741119   4.061   7.623   6.613 -2.2960  0.2041  0.6570
   37MOL   H72841120   4.189   7.518   6.677 -1.2629 -0.7285  2.0156
   37MOL   H72941121   4.063   7.500   6.421  1.3860  1.0934  0.4190
   37MOL   C73041122   4.176   7.345   6.477 -0.9348  0.2714 -0.1733
   37MOL   O73141123   4.239   7.283   6.562 -0.2947  1.2285  0.0354
   37MOL   C73241124   4.203   7.302   6.335  0.1679  0.1308  0.0470
   37MOL   C73341125   4.114   7.182   6.307  0.1432 -0.6074 -0.6660
   37MOL   C73441126   4.131   7.127   6.164 -0.3695  0.5858 -0.5747
   37MOL   C73541127   4.028   7.014   6.147 -0.5206 -0.5338  0.1339
   37MOL   C73641128   4.050   6.926   6.013 -0.4839 -0.0003  0.5216
   37MOL   C73741129   3.988   6.988   5.888  0.0290  0.0821 -0.0788
   37MOL   C73841130   4.006   6.908   5.756  0.4655  0.1821  0.4288
   37MOL   C73941131   3.947   6.958   5.627 -0.3471 -0.5601  0.1233
   37MOL   C74041132   3.793   6.979   5.628 -0.2205  0.2786 -0.2110
   37MOL   C74141133   3.730   7.055   5.519 -0.4618  0.2873 -0.1298
   37MOL   C74241134   3.764   7.207   5.513  1.4140  0.5563 -0.0838
   37MOL   O74341135   3.807   7.262   5.613  0.4492 -0.2113  0.1590
   37MOL   N74441136   3.733   7.276   5.401 -0.2790 -0.2430 -0.3975
   37MOL   C74541137   3.661   7.233   5.282  0.2519 -1.0905  0.3784
   37MOL   C74641138   3.750   7.203   5.160  0.2350 -0.0505  0.0532
   37MOL   C74741139   3.666   7.146   5.039  0.2485 -0.4056 -0.1867
   37MOL   C74841140   3.737   7.067   4.930 -0.6836  0.4655  0.3541
   37MOL   C74941141   3.839   6.960   4.991 -0.4557 -0.5055  0.1131
   37MOL   C75041142   3.912   6.881   4.880  0.1167 -0.5377 -0.6116
   37MOL   N75141143   4.012   6.794   4.936  0.6439  0.0677  0.2089
   37MOL   H75241144   4.305   7.265   6.328 -0.3400 -1.5326  1.0461
   37MOL   H75341145   4.184   7.386   6.269  0.8669  1.2920  1.2944
   37MOL   H75441146   4.007   7.204   6.309 -0.2647 -2.4344  3.1349
   37MOL   H75541147   4.126   7.101   6.380 -3.3918  0.5628  1.3586
   37MOL   H75641148   4.232   7.092   6.144 -0.2510 -0.4749  1.7718
   37MOL   H75741149   4.121   7.204   6.087  4.7673  1.0105 -0.9845
   37MOL   H75841150   3.927   7.054   6.147  0.0019  0.8050 -0.2247
   37MOL   H75941151   4.040   6.952   6.236  2.2654 -1.6049 -0.9266
   37MOL   H76041152   4.003   6.828   6.027 -1.8754  0.1882 -2.4263
   37MOL   H76141153   4.153   6.900   5.990 -0.0364 -0.4255  2.8199
   37MOL   H76241154   3.883   7.013   5.906  0.3314  1.1143  0.2860
   37MOL   H76341155   4.025   7.090   5.872 -0.3207 -0.1837 -2.9203
   37MOL   H76441156   4.114   6.906   5.742  0.2605  2.8731 -1.9469
   37MOL   H76541157   3.984   6.802   5.772  0.5099 -0.5125 -3.5249
   37MOL   H76641158   4.004   7.046   5.598 -3.1827  1.5538  0.7576
   37MOL   H76741159   3.975   6.874   5.562  1.9954  0.7697 -0.6617
   37MOL   H76841160   3.779   7.031   5.722  2.0112 -0.0146  0.2906
   37MOL   H76941161   3.754   6.878   5.621  1.9177 -0.5623 -0.2364
   37MOL   H77041162   3.764   7.016   5.423 -1.4982  0.3121 -0.5154
   37MOL   H77141163   3.625   7.037   5.542 -0.1241 -0.5890  0.7591
   37MOL   H77241164   3.761   7.373   5.397 -0.0435 -0.3387 -1.3023
   37MOL   H77341165   3.591   7.313   5.259  0.1723 -0.4056  2.8725
   37MOL   H77441166   3.595   7.150   5.306 -1.4394  0.6779  2.0251
   37MOL   H77541167   3.828   7.133   5.191  0.0226 -0.7457 -0.9609
   37MOL   H77641168   3.816   7.286   5.135  2.0082 -1.5309 -0.3363
   37MOL   H77741169   3.596   7.221   5.000 -2.0273 -1.2809  2.0226
   37MOL   H77841170   3.597   7.075   5.085 -1.2441  0.8420 -0.4222
   37MOL   H77941171   3.669   7.006   4.871 -0.5089  2.1987 -1.6911
   37MOL   H78041172   3.797   7.124   4.859  1.3814 -0.4148  1.3498
   37MOL   H78141173   3.792   6.885   5.055  0.8240 -0.7489  0.7831
   37MOL   H78241174   3.918   7.007   5.049 -1.3561 -0.1043  1.0220
   37MOL   H78341175   3.837   6.838   4.814 -1.1130  0.0143  0.3936
   37MOL   H78441176   3.971   6.951   4.822 -1.2544  0.8241 -0.4134
   37MOL   H78541177   4.103   6.832   4.953 -0.0900  1.1503  1.8785
   37MOL   C78641178   3.992   6.667   4.968  0.7146 -0.0468 -0.0135
   37MOL   O78741179   3.897   6.599   4.931  0.3422  0.1501 -0.5545
   37MOL   C78841180   4.097   6.596   5.049 -0.2693  0.5013 -0.9399
   37MOL   C78941181   4.109   6.448   5.021 -0.4521  0.0242 -0.0665
   37MOL   C79041182   4.194   6.432   4.894 -0.6506 -0.3210  1.0099
   37MOL   C79141183   4.219   6.289   4.851  0.6295  0.1913 -0.3177
   37MOL   C79241184   4.349   6.270   4.767  0.5055  0.0352 -0.6969
   37MOL   C79341185   4.329   6.324   4.629  0.3776  0.1321  0.2052
   37MOL   C79441186   4.443   6.293   4.531 -0.7207  0.9338  0.2061
   37MOL   C79541187   4.422   6.332   4.386  0.0261 -0.1351 -0.0319
   37MOL   C79641188   4.513   6.269   4.283  0.3193 -0.3547  0.2933
   37MOL   C79741189   4.488   6.315   4.138  0.3425 -0.1728 -0.6580
   37MOL   C79841190   4.594   6.283   4.034 -0.5624 -0.0132  0.0809
   37MOL   O79941191   4.662   6.380   3.989 -0.1194  0.4611 -1.0711
   37MOL   N80041192   4.599   6.157   3.982 -0.5974 -0.2504  0.6928
   37MOL   C80141193   4.708   6.110   3.898 -0.9028 -0.1399  0.8728
   37MOL   C80241194   4.678   5.980   3.830 -0.1895  0.6795  0.0131
   37MOL   C80341195   4.788   5.945   3.739 -0.4247 -0.0333 -0.1105
   37MOL   C80441196   4.758   5.822   3.655  0.3260  0.5259  0.0105
   37MOL   C80541197   4.871   5.787   3.548  0.2854  0.1806  0.1817
   37MOL   C80641198   4.846   5.841   3.401 -0.4798 -0.4516  0.0526
   37MOL   N80741199   4.958   5.801   3.314 -0.0963  0.1542  0.4066
   37MOL   H80841200   4.067   6.604   5.154 -0.7203  3.5570 -1.2519
   37MOL   H80941201   4.189   6.654   5.042 -0.7531  1.1231 -2.2599
   37MOL   H81041202   4.152   6.392   5.104  0.4530  2.0183  0.8429
   37MOL   H81141203   4.013   6.403   4.999 -0.7516  0.9952 -0.8057
   37MOL   H81241204   4.286   6.489   4.887 -1.0205  0.1373 -0.1741
   37MOL   H81341205   4.150   6.482   4.808 -0.1321 -1.2474  0.1960
   37MOL   H81441206   4.238   6.233   4.943  0.4949  2.2803  1.0052
   37MOL   H81541207   4.134   6.232   4.812 -0.7252  1.4620  0.7173
   37MOL   H81641208   4.436   6.318   4.813  0.2839 -1.6827  1.6197
   37MOL   H81741209   4.374   6.164   4.772 -0.9110 -0.2977 -0.2617
   37MOL   H81841210   4.233   6.287   4.592  0.6892  0.6683 -1.1718
   37MOL   H81941211   4.309   6.430   4.642 -0.9919 -0.0446 -0.2752
   37MOL   H82041212   4.533   6.333   4.576  0.5897 -2.1430  0.4685
   37MOL   H82141213   4.456   6.186   4.547 -2.3823  0.5490 -0.8556
   37MOL   H82241214   4.325   6.299   4.350  0.0085  0.1542 -0.2536
   37MOL   H82341215   4.440   6.439   4.374  2.6884 -0.7375 -1.8475
   37MOL   H82441216   4.502   6.161   4.296 -0.8281 -0.0950  1.5723
   37MOL   H82541217   4.621   6.280   4.297  0.0822  0.1215  1.8672
   37MOL   H82641218   4.384   6.290   4.117  0.3882  1.4900 -3.1619
   37MOL   H82741219   4.480   6.424   4.138  1.6084 -0.0583  0.4021
   37MOL   H82841220   4.532   6.085   4.007 -0.3067 -0.4789  0.8084
   37MOL   H82941221   4.805   6.120   3.947 -0.2567  0.4500 -0.5000
   37MOL   H83041222   4.707   6.186   3.820  1.7669  0.2626  1.1819
   37MOL   H83141223   4.581   5.983   3.780 -1.4047  1.7293  2.3556
   37MOL   H83241224   4.662   5.896   3.899  1.5079 -0.6913 -1.1988
   37MOL   H83341225   4.803   6.028   3.670  1.0856  0.0084  0.2379
   37MOL   H83441226   4.890   5.952   3.778  0.5083 -0.5139 -2.3557
   37MOL   H83541227   4.660   5.844   3.612  0.9226 -1.8292 -2.7000
   37MOL   H83641228   4.740   5.736   3.719  0.5023  0.6866  0.2761
   37MOL   H83741229   4.870   5.680   3.531 -0.4955  0.7464 -3.7568
   37MOL   H83841230   4.965   5.822   3.591 -0.0730  1.2641  0.1092
   37MOL   H83941231   4.847   5.950   3.398 -0.2521 -0.4829 -1.8246
   37MOL   H84041232   4.757   5.796   3.356  0.7197 -0.7223 -2.0939
   37MOL   H84141233   5.019   5.735   3.359  0.6750  2.6478  3.2132
   37MOL   C84241234   4.978   5.843   3.187 -0.1554 -0.1157 -0.8821
   37MOL   O84341235   4.901   5.911   3.122 -0.1059  0.2836  0.1662
   37MOL   C84441236   5.108   5.787   3.131 -0.0809  0.5313  0.0221
   37MOL   C84541237   5.084   5.735   2.990 -0.1844  0.3991 -0.1172
   37MOL   C84641238   5.198   5.649   2.939 -0.0579  0.1374 -0.0664
   37MOL   C84741239   5.320   5.738   2.909 -0.6876 -0.1446  0.5668
   37MOL   C84841240   5.427   5.751   3.016  0.1530  0.1974  0.4047
   37MOL   C84941241   5.556   5.665   2.991 -0.2777  0.0338 -0.0519
   37MOL   C85041242   5.672   5.721   3.069  1.3284  0.1413  0.7163
   37MOL   C85141243   5.742   5.837   2.992 -0.2542  0.2799 -0.0704
   37MOL   C85241244   5.852   5.892   3.070 -0.2436 -0.5157  0.0400
   37MOL   C85341245   5.909   6.029   3.019 -1.0643  0.5788  0.6289
   37MOL   C85441246   5.985   6.006   2.887  0.8913 -0.3082  0.4965
   37MOL   O85541247   6.046   5.903   2.869 -0.2237  0.5349  0.3488
   37MOL   N85641248   5.980   6.106   2.803 -0.0224  0.9212 -0.4547
   37MOL   C85741249   6.068   6.113   2.688  0.1471  0.6360  0.3202
   37MOL   C85841250   6.217   6.116   2.732 -0.4346 -0.0774  0.4403
   37MOL   C85941251   6.309   6.198   2.644  0.7819 -0.1111  0.4606
   37MOL   C86041252   6.461   6.172   2.660  0.8614 -0.0629  0.3540
   37MOL   C86141253   6.510   6.196   2.803  0.1098  0.2457 -0.5414
   37MOL   C86241254   6.648   6.126   2.827 -0.2588 -0.2955  0.7222
   37MOL   N86341255   6.755   6.216   2.773  0.1830  0.3579  0.3589
   37MOL   H86441256   5.161   5.728   3.206  0.7189  2.0865  0.7079
   37MOL   H86541257   5.177   5.870   3.112 -0.9831  1.0437 -1.0452
   37MOL   H86641258   5.051   5.821   2.933 -1.9762  0.7405  1.3619
   37MOL   H86741259   5.000   5.665   2.996  0.6996 -0.6290  0.2853
   37MOL   H86841260   5.230   5.576   3.013 -1.5591  0.9199  1.3778
   37MOL   H86941261   5.156   5.596   2.854  0.7753 -1.3912  0.4586
   37MOL   H87041262   5.291   5.837   2.877 -0.0692  0.3516  1.4992
   37MOL   H87141263   5.355   5.698   2.814  0.3556  3.1117 -0.4571
   37MOL   H87241264   5.452   5.856   3.030  0.6405  0.0218  0.8775
   37MOL   H87341265   5.372   5.727   3.108 -1.5923  1.7765 -0.1928
   37MOL   H87441266   5.538   5.567   3.034  1.8682 -0.9007 -1.2243
   37MOL   H87541267   5.586   5.648   2.888 -0.4047  1.2309 -0.2974
   37MOL   H87641268   5.637   5.764   3.163 -1.0306 -1.6807  0.7032
   37MOL   H87741269   5.745   5.643   3.090  3.3876  1.0699 -2.5277
   37MOL   H87841270   5.669   5.903   2.945 -3.4122 -2.7380  0.4032
   37MOL   H87941271   5.794   5.795   2.906 -2.5596  1.7950 -2.3084
   37MOL   H88041272   5.930   5.815   3.074  1.1625  0.8025 -1.3505
   37MOL   H88141273   5.817   5.916   3.170 -1.2189  0.0864 -0.4477
   37MOL   H88241274   5.826   6.099   3.007 -1.9393  0.4142  4.9016
   37MOL   H88341275   5.982   6.069   3.089  1.4804 -1.7686 -0.5732
   37MOL   H88441276   5.932   6.190   2.834 -0.9002 -0.0532  0.8854
   37MOL   H88541277   6.044   6.207   2.638  1.9449  1.7744  1.5123
   37MOL   H88641278   6.053   6.032   2.617 -0.1336  1.6527 -0.7942
   37MOL   H88741279   6.251   6.013   2.745  0.0305 -0.0969 -0.8395
   37MOL   H88841280   6.224   6.153   2.834  1.0964  0.1311  0.2812
   37MOL   H88941281   6.290   6.305   2.641 -2.1704 -0.6311 -0.9097
   37MOL   H89041282   6.285   6.161   2.544 -0.1809 -2.1369  1.4151
   37MOL   H89141283   6.511   6.231   2.584  0.5895  0.3523  0.4989
   37MOL   H89241284   6.483   6.067   2.639 -1.9173 -0.2965 -1.7522
   37MOL   H89341285   6.494   6.302   2.824  1.3391  0.2892  0.2057
   37MOL   H89441286   6.440   6.147   2.870 -0.1029 -0.4883 -1.2967
   37MOL   H89541287   6.663   6.109   2.933 -0.7166 -0.4376  0.7668
   37MOL   H89641288   6.656   6.023   2.792 -1.1527  0.3528 -1.4961
   37MOL   H89741289   6.776   6.301   2.823 -0.0294  0.9882 -0.6140
   37MOL   C89841290   6.815   6.194   2.659 -0.7720 -0.2644  0.3801
   37MOL   O89941291   6.790   6.098   2.591  0.5899 -0.0994  0.6496
   37MOL   C90041292   6.894   6.310   2.609 -0.5897 -0.5176 -0.1386
   37MOL   C90141293   7.032   6.289   2.557 -0.3751  0.0492 -0.5657
   37MOL   C90241294   7.107   6.416   2.523  0.7212 -0.7390 -0.5625
   37MOL   C90341295   7.251   6.400   2.479 -0.8713 -0.2875  0.4844
   37MOL   C90441296   7.320   6.524   2.424 -0.2028 -0.0463 -0.0624
   37MOL   C90541297   7.467   6.495   2.371 -0.8333  0.0713 -0.2064
   37MOL   C90641298   7.477   6.416   2.246  0.0136 -0.6279  0.0445
   37MOL   C90741299   7.429   6.484   2.118 -0.5375  0.4281 -0.0548
   37MOL   C90841300   7.502   6.436   1.990  0.5022 -0.0740 -0.4274
   37MOL   C90941301   7.458   6.512   1.856 -0.0267 -0.4791 -0.3775
   37MOL   C91041302   7.503   6.656   1.848 -0.0149 -0.1897 -1.1951
   37MOL   O91141303   7.622   6.683   1.856  0.6812 -0.0109 -0.3721
   37MOL   N91241304   7.405   6.750   1.844 -0.0294 -0.4179  0.1164
   37MOL   C91341305   7.442   6.888   1.861 -0.4797 -0.5309 -0.2669
   37MOL   C91441306   7.330   6.991   1.842 -0.0060 -0.6296  0.4693
   37MOL   C91541307   7.184   6.945   1.867  0.2861  0.0658  0.1418
   37MOL   C91641308   7.162   6.895   2.005  0.1615  0.3066 -0.3166
   37MOL   C91741309   7.021   6.842   2.008 -0.1372 -0.2135 -0.0788
   37MOL   C91841310   6.978   6.813   2.149  0.1309 -0.1520  0.1252
   37MOL   N91941311   6.838   6.761   2.149  0.0571  0.1255 -0.2932
   37MOL   H92041312   6.829   6.364   2.541 -1.5403  1.5394  2.3253
   37MOL   H92141313   6.913   6.375   2.695  0.8540 -1.7163  0.4749
   37MOL   H92241314   7.027   6.225   2.469  0.7304  2.1377 -2.2116
   37MOL   H92341315   7.099   6.243   2.629 -0.5119  2.2887  1.0472
   37MOL   H92441316   7.109   6.469   2.619  0.5435  0.9036 -1.4426
   37MOL   H92541317   7.059   6.491   2.459 -0.2061  0.1244  1.1092
   37MOL   H92641318   7.310   6.350   2.556  1.1402 -0.7238 -1.3106
   37MOL   H92741319   7.237   6.319   2.407 -2.2912 -0.8302  1.3322
   37MOL   H92841320   7.333   6.593   2.507  1.2081  0.4390 -0.6585
   37MOL   H92941321   7.255   6.576   2.354 -3.1298 -4.0441 -0.5364
   37MOL   H93041322   7.520   6.590   2.362  2.1260 -1.7083 -2.3287
   37MOL   H93141323   7.518   6.448   2.455  0.7800  0.7944 -0.7533
   37MOL   H93241324   7.442   6.314   2.258 -0.0649 -0.5755  0.2743
   37MOL   H93341325   7.583   6.403   2.227 -0.0426  0.2289 -0.9640
   37MOL   H93441326   7.441   6.591   2.131 -1.7977  0.2916  2.5907
   37MOL   H93541327   7.323   6.461   2.108 -0.2170 -0.5758 -1.2143
   37MOL   H93641328   7.610   6.446   1.999  0.7059 -1.0218 -1.6570
   37MOL   H93741329   7.487   6.329   1.974  1.9685 -0.5882  1.3900
   37MOL   H93841330   7.515   6.455   1.783  0.3034 -0.4532 -0.1392
   37MOL   H93941331   7.352   6.504   1.829 -0.2173  0.8269 -0.0399
   37MOL   H94041332   7.311   6.719   1.825  0.3625 -1.3774 -0.3450
   37MOL   H94141333   7.535   6.917   1.812 -1.8527  0.1756 -2.5101
   37MOL   H94241334   7.475   6.903   1.964 -0.5173  0.1410 -0.3563
   37MOL   H94341335   7.340   7.080   1.903 -1.0162 -0.5237  0.4903
   37MOL   H94441336   7.339   7.045   1.748 -0.2762 -0.0310  0.7863
   37MOL   H94541337   7.119   7.031   1.851  2.5264  1.8716  0.4848
   37MOL   H94641338   7.162   6.875   1.787  0.7688 -1.8395  1.6648
   37MOL   H94741339   7.177   6.968   2.084  0.0229 -0.2978  0.2775
   37MOL   H94841340   7.225   6.809   2.029  0.5212  0.9305  0.9960
   37MOL   H94941341   6.953   6.907   1.954  2.4555  4.3222  1.8298
   37MOL   H95041342   7.018   6.749   1.952 -0.3116 -1.7354  2.3668
   37MOL   H95141343   6.971   6.899   2.216 -2.5463 -0.1126 -0.1279
   37MOL   H95241344   7.052   6.752   2.200  2.5126  1.8539 -0.8461
   37MOL   H95341345   6.778   6.778   2.070 -0.0046  1.1181 -0.0311
   37MOL   C95441346   6.792   6.698   2.263 -0.6534  0.5148  0.8114
   37MOL   O95541347   6.861   6.686   2.366  0.1161 -0.4205 -0.4557
   37MOL   C95641348   6.649   6.635   2.261  0.5271  0.1366 -0.0986
   37MOL   C95741349   6.607   6.561   2.380  0.3974  0.3117  0.6754
   37MOL   C95841350   6.547   6.644   2.503 -0.1054  0.7098  0.9448
   37MOL   C95941351   6.532   6.561   2.630 -0.4313  0.5365  0.1904
   37MOL   C96041352   6.483   6.622   2.764 -0.3257 -0.5395 -0.6290
   37MOL   C96141353   6.327   6.632   2.762  0.3917 -0.0182 -0.4012
   37MOL   C96241354   6.248   6.655   2.889 -0.3684 -0.8751  0.5809
   37MOL   C96341355   6.252   6.526   2.974 -0.0745 -0.5084  0.0847
   37MOL   C96441356   6.143   6.532   3.090 -0.2515 -0.0500  0.3294
   37MOL   C96541357   6.194   6.583   3.226  0.1615 -0.4183  0.1509
   37MOL   C96641358   6.102   6.581   3.348  0.3813 -0.2780  0.0315
   37MOL   O96741359   6.011   6.507   3.361  0.6560  0.6814  0.1837
   37MOL   N96841360   6.141   6.657   3.452 -0.2012 -0.4848 -0.1843
   37MOL   C96941361   6.107   6.644   3.590  0.3367  0.9248  0.2986
   37MOL   C97041362   6.126   6.503   3.654  0.4555  0.4350 -0.1356
   37MOL   C97141363   6.082   6.505   3.801 -0.1643 -0.1662  0.0859
   37MOL   C97241364   6.087   6.371   3.867 -0.1524  0.1804 -0.3555
   37MOL   C97341365   6.007   6.268   3.789 -0.5623 -0.3697 -0.3924
   37MOL   C97441366   5.955   6.164   3.893  1.1252  0.0333  0.2394
   37MOL   N97541367   6.062   6.087   3.941  0.3918 -0.6135 -0.5803
   37MOL   H97641368   6.581   6.717   2.240 -0.8049 -1.1631 -0.9431
   37MOL   H97741369   6.634   6.570   2.174  0.8131 -0.4427  0.2799
   37MOL   H97841370   6.690   6.500   2.418 -1.2818 -1.5118  1.5221
   37MOL   H97941371   6.524   6.497   2.352 -0.4514  2.3084 -1.5781
   37MOL   H98041372   6.629   6.711   2.529 -0.0030  0.3279  1.6101
   37MOL   H98141373   6.464   6.714   2.492  0.4291  1.1517 -0.3915
   37MOL   H98241374   6.457   6.484   2.608 -0.5763  1.0251 -1.0260
   37MOL   H98341375   6.620   6.501   2.654 -0.7851  0.3861  1.1144
   37MOL   H98441376   6.511   6.561   2.849  0.2783  0.5456 -0.0333
   37MOL   H98541377   6.541   6.713   2.782 -2.5478  0.4017  2.2532
   37MOL   H98641378   6.295   6.714   2.697  0.8525 -0.2082 -0.8637
   37MOL   H98741379   6.284   6.545   2.712  0.0680 -1.5444  2.4455
   37MOL   H98841380   6.293   6.738   2.944 -0.1476 -0.1065 -0.7507
   37MOL   H98941381   6.146   6.682   2.862 -0.0644  0.0615  0.3534
   37MOL   H99041382   6.250   6.438   2.910  0.7829 -1.2537  1.0717
   37MOL   H99141383   6.352   6.520   3.015  0.5462  0.4714 -1.2564
   37MOL   H99241384   6.111   6.428   3.096 -0.1406 -0.0524  0.9951
   37MOL   H99341385   6.061   6.596   3.058  0.6180  0.7573 -0.2908
   37MOL   H99441386   6.284   6.526   3.251  0.4277  0.7728  2.0411
   37MOL   H99541387   6.224   6.687   3.210 -0.7072 -0.0481  0.8721
   37MOL   H99641388   6.223   6.714   3.438  1.0841 -1.9018  1.2727
   37MOL   H99741389   6.003   6.674   3.602 -0.0791  0.2978 -1.4994
   37MOL   H99841390   6.155   6.723   3.648 -0.4082  0.5294  1.4664
   37MOL   H99941391   6.229   6.470   3.641  1.3822  3.4210 -0.8516
   37MOL     H141392   6.054   6.440   3.602  1.4881 -1.1211  0.2935
   37MOL     H241393   5.988   6.561   3.807  0.4271  0.7135  1.3430
   37MOL     H341394   6.150   6.559   3.867 -2.2547  1.9748  0.5525
   37MOL     H441395   6.189   6.333   3.875  0.5210  1.8604 -0.8469
   37MOL     H541396   6.042   6.390   3.964 -1.3819  0.5192 -0.9842
   37MOL     H641397   6.064   6.228   3.705  1.3800  0.5352  0.4440
   37MOL     H741398   5.919   6.307   3.738  0.1927  0.7679 -0.8528
   37MOL     H841399   5.891   6.206   3.970  1.4208  0.6572  0.1444
   37MOL     H941400   5.888   6.095   3.842  2.9272 -1.2112 -0.4933
   37MOL    H1041401   6.128   6.047   3.876 -0.0826 -0.6780 -1.0254
   37MOL    C1141402   6.083   6.081   4.074  0.0680 -0.6386  0.2275
   37MOL    O1241403   6.024   6.141   4.162 -0.3741 -0.2509  0.0472
   37MOL    C1341404   6.196   5.987   4.106  0.5534 -0.8430  1.3550
   37MOL    C1441405   6.171   5.884   4.213 -0.0115  0.3455 -0.3116
   37MOL    C1541406   6.189   5.951   4.348  0.0237 -0.1287  0.4460
   37MOL    C1641407   6.167   5.856   4.471  0.3888  0.5792  0.1567
   37MOL    C1741408   6.160   5.933   4.597 -0.2531  0.1573 -0.2643
   37MOL    C1841409   6.129   5.839   4.715 -0.7570 -0.7797  0.4239
   37MOL    C1941410   6.102   5.907   4.849  0.1773  0.2345 -0.3332
   37MOL    C2041411   6.091   5.804   4.956  1.0959 -0.3892 -0.1638
   37MOL    C2141412   6.073   5.889   5.096  0.5541  0.2779  0.0885
   37MOL    C2241413   6.013   5.802   5.210 -0.0029  0.2842  0.9729
   37MOL    C2341414   5.864   5.767   5.187 -0.0560  0.1870 -0.4118
   37MOL    O2441415   5.792   5.827   5.109 -0.0113 -0.0228 -0.1293
   37MOL    N2541416   5.820   5.661   5.263 -0.2551  0.1378 -0.1303
   37MOL    C2641417   5.703   5.579   5.238  0.3554 -0.4375 -0.8121
   37MOL    C2741418   5.743   5.431   5.216 -0.1956  0.0861  0.1696
   37MOL    C2841419   5.630   5.334   5.185 -0.7704 -0.2259 -0.2761
   37MOL    C2941420   5.685   5.196   5.192  0.2234  0.4436  0.5238
   37MOL    C3041421   5.570   5.102   5.178 -0.6708  0.1504  0.9429
   37MOL    C3141422   5.617   4.961   5.164 -0.5283 -1.0078  0.0252
   37MOL    N3241423   5.674   4.943   5.034 -0.1247 -0.7688  0.4096
   37MOL    H3341424   6.283   6.053   4.115  0.1782 -0.1204 -0.1534
   37MOL    H3441425   6.226   5.932   4.017 -1.6910 -1.6619  1.0887
   37MOL    H3541426   6.251   5.811   4.201 -1.3196 -1.3990  1.1306
   37MOL    H3641427   6.076   5.832   4.205  0.2207 -0.7669  3.2978
   37MOL    H3741428   6.101   6.015   4.357  0.0723  0.0886 -0.6292
   37MOL    H3841429   6.278   6.014   4.349  1.5927 -2.2456 -1.4723
   37MOL    H3941430   6.074   5.801   4.457  0.8374 -0.3208  0.6720
   37MOL    H4041431   6.247   5.782   4.477  0.3929  0.7278  2.4753
   37MOL    H4141432   6.242   6.003   4.616  0.2675 -0.2039 -1.1389
   37MOL    H4241433   6.074   5.998   4.584  0.1430  0.8765  0.6569
   37MOL    H4341434   6.049   5.769   4.687 -1.7114  1.1004 -1.7018
   37MOL    H4441435   6.215   5.773   4.706  1.3554  2.1737 -1.7829
   37MOL    H4541436   6.181   5.979   4.866  0.6886 -0.5595  0.7270
   37MOL    H4641437   6.006   5.960   4.850  0.8924  1.5338  0.0830
   37MOL    H4741438   6.003   5.744   4.932  0.2925  1.4373 -2.0098
   37MOL    H4841439   6.172   5.732   4.964 -0.2629 -2.1121 -1.5232
   37MOL    H4941440   6.021   5.984   5.082 -2.3132 -1.3077 -0.2518
   37MOL    H5041441   6.174   5.924   5.119  1.0009 -1.0533  0.1524
   37MOL    H5141442   6.051   5.700   5.214 -1.8324 -0.4298  0.4981
   37MOL    H5241443   6.034   5.856   5.302  0.9940  2.2737 -0.3902
   37MOL    H5341444   5.882   5.647   5.341  2.2172 -1.7982 -2.3139
   37MOL    H5441445   5.661   5.610   5.142  0.7922 -2.6816 -1.7533
   37MOL    H5541446   5.630   5.591   5.317  2.1596 -0.6718  0.9105
   37MOL    H5641447   5.800   5.390   5.300 -0.4162 -1.0713 -0.2409
   37MOL    H5741448   5.803   5.432   5.125  2.2417  1.4231  1.7231
   37MOL    H5841449   5.592   5.363   5.087 -0.7096 -0.1744 -0.2831
   37MOL    H5941450   5.544   5.350   5.250 -1.5268 -0.6840 -1.1588
   37MOL    H6041451   5.738   5.177   5.285 -2.9526 -1.2024  2.0831
   37MOL    H6141452   5.756   5.171   5.113 -0.6297  0.4991 -0.2656
   37MOL    H6241453   5.516   5.131   5.088  2.2137 -0.6182 -1.1022
   37MOL    H6341454   5.502   5.102   5.263 -1.4505 -1.0486  0.3329
   37MOL    H6441455   5.541   4.886   5.185 -0.9620 -1.4999 -3.1111
   37MOL    H6541456   5.687   4.942   5.246 -0.8829  0.4623  0.6785
   37MOL    H6641457   5.636   5.005   4.964 -2.3064 -1.2926  1.0731
   37MOL    C6741458   5.784   4.882   5.000  0.5773 -0.6134 -0.0521
   37MOL    O6841459   5.846   4.813   5.079 -0.6384 -0.0424 -0.1639
   37MOL    C6941460   5.837   4.898   4.864  0.3589  0.2356  0.2707
   37MOL    C7041461   5.990   4.903   4.861 -0.2382  0.5631  0.0964
   37MOL    C7141462   6.054   4.766   4.842  0.2810 -0.4570 -0.3395
   37MOL    C7241463   6.213   4.763   4.844 -0.1799 -0.2712 -0.9133
   37MOL    C7341464   6.279   4.823   4.968  0.3311  0.1735 -0.1008
   37MOL    C7441465   6.216   4.776   5.102 -0.1497 -0.2620 -0.0826
   37MOL    C7541466   6.299   4.800   5.227  0.6756  0.4128  0.3436
   37MOL    C7641467   6.211   4.780   5.350 -0.6344 -0.1884  0.3292
   37MOL    C7741468   6.294   4.808   5.474  0.5707 -0.1340 -0.0164
   37MOL    C7841469   6.231   4.802   5.611 -0.2224 -0.1421  0.4937
   37MOL    C7941470   6.328   4.763   5.722  0.0729 -0.2212 -0.9491
   37MOL    O8041471   6.446   4.797   5.718 -0.6343  0.7812  0.5175
   37MOL    N8141472   6.286   4.681   5.826  0.0520  0.1816 -0.5267
   37MOL    C8241473   6.369   4.612   5.921 -0.5118 -0.4132 -0.7957
   37MOL    C8341474   6.409   4.708   6.037  0.0236  0.0432 -0.5864
   37MOL    C8441475   6.517   4.663   6.133  0.2151  0.0820 -0.2878
   37MOL    C8541476   6.464   4.558   6.230 -0.5999  0.8042 -0.0705
   37MOL    C8641477   6.586   4.486   6.291 -0.2874  0.5044 -0.6907
   37MOL    C8741478   6.561   4.346   6.359  0.6354 -0.5786 -0.1191
   37MOL    N8841479   6.470   4.366   6.477  0.0821 -0.5305 -0.2592
   37MOL    H8941480   5.796   4.991   4.825  0.7933  1.1957  2.0263
   37MOL    H9041481   5.788   4.826   4.799  2.4947  0.1481 -1.2896
   37MOL    H9141482   6.021   4.973   4.783 -0.7511  1.2459  0.4955
   37MOL    H9241483   6.030   4.945   4.953 -1.5243 -0.8598  1.3248
   37MOL    H9341484   6.019   4.699   4.921 -0.5819 -1.0905 -1.2562
   37MOL    H9441485   6.005   4.728   4.753 -0.4300 -0.7867  0.1839
   37MOL    H9541486   6.250   4.660   4.846 -0.4889 -0.3602  1.8861
   37MOL    H9641487   6.257   4.803   4.752 -2.0456 -0.0946 -1.7367
   37MOL    H9741488   6.384   4.794   4.964 -0.3327 -2.4881  0.3309
   37MOL    H9841489   6.275   4.931   4.961  2.9263  0.3251  0.4438
   37MOL    H9941490   6.118   4.824   5.103 -0.4243 -0.8054 -0.4658
   37MOL   H10041491   6.188   4.672   5.087 -2.5443  0.4154 -0.4438
   37MOL   H10141492   6.351   4.895   5.226 -1.4197  1.5887  1.0984
   37MOL   H10241493   6.384   4.732   5.232  1.5799  1.4485 -0.7610
   37MOL   H10341494   6.128   4.850   5.345 -1.1125 -0.8174 -1.0528
   37MOL   H10441495   6.161   4.683   5.343 -1.0340 -0.1793  2.7107
   37MOL   H10541496   6.340   4.906   5.468  0.6982 -0.1610  0.5114
   37MOL   H10641497   6.374   4.736   5.458  1.0086  0.1477  0.8954
   37MOL   H10741498   6.204   4.902   5.646 -2.6167 -1.6222  3.1042
   37MOL   H10841499   6.135   4.752   5.620 -0.7615  0.9004  0.6505
   37MOL   H10941500   6.187   4.667   5.843  0.1687 -0.6530 -0.5221
   37MOL   H11041501   6.456   4.566   5.876 -0.9281 -2.4174  0.4003
   37MOL   H11141502   6.307   4.531   5.959  0.9269  0.1523  2.9426
   37MOL   H11241503   6.318   4.743   6.085 -0.1018  0.9036 -1.4449
   37MOL   H11341504   6.443   4.802   5.995  1.6055  0.1794  0.9276
   37MOL   H11441505   6.562   4.742   6.193 -1.1385  0.8051 -0.1957
   37MOL   H11541506   6.599   4.622   6.074 -0.5494 -0.8149 -0.7354
   37MOL   H11641507   6.406   4.597   6.314  0.6115  0.0500  1.1480
   37MOL   H11741508   6.403   4.488   6.174  1.2377  0.1497 -1.3024
   37MOL   H11841509   6.664   4.472   6.217  0.1625  0.0696 -0.1448
   37MOL   H11941510   6.632   4.555   6.362 -0.1242 -0.2105 -0.0931
   37MOL   H12041511   6.508   4.275   6.294 -1.0231  0.2209  0.3259
   37MOL   H12141512   6.660   4.302   6.371  0.1938 -2.2375 -2.1837
   37MOL   H12241513   6.387   4.416   6.448 -0.4465 -0.4477  1.3405
   37MOL   H12341514   6.521   4.432   6.534  2.4803 -1.2823 -1.4861
   38MOL     C141515   5.238   1.693   2.559 -0.9083 -0.5112 -0.0855
   38MOL     O241516   5.341   1.651   2.616 -0.6326 -0.0308  0.7032
   38MOL     C341517   5.096   1.645   2.611  0.1411 -0.1784  0.4595
   38MOL     C441518   5.107   1.613   2.760  0.6352 -0.1187 -0.9697
   38MOL     C541519   5.018   1.494   2.811 -0.5037  1.1064  0.0763
   38MOL     C641520   5.022   1.472   2.967 -0.2815  0.5973  0.1200
   38MOL     C741521   4.930   1.356   3.014 -0.5648 -0.2267  0.6508
   38MOL     C841522   4.935   1.324   3.156  0.4515  0.1316  0.0941
   38MOL     C941523   4.810   1.261   3.211  0.0822  0.3594 -0.1447
   38MOL    C1041524   4.797   1.112   3.175  0.7059 -0.0591  0.3842
   38MOL    C1141525   4.677   1.048   3.231 -0.3396 -0.2398 -0.7226
   38MOL    C1241526   4.655   0.897   3.195  0.4723  0.6109 -0.0291
   38MOL    C1341527   4.527   0.832   3.234 -0.0564  0.2001 -0.1772
   38MOL    O1441528   4.427   0.895   3.279  0.6213  0.2245  0.3150
   38MOL    N1541529   4.528   0.700   3.213 -0.1379  0.9341  1.3912
   38MOL    C1641530   4.419   0.613   3.271 -0.4467  0.0989 -0.0952
   38MOL    C1741531   4.461   0.472   3.291  0.6708 -0.3258  0.1718
   38MOL    C1841532   4.349   0.394   3.362 -0.3669  0.1660 -0.1358
   38MOL    C1941533   4.387   0.251   3.397  1.1637  0.1138  0.0050
   38MOL    C2041534   4.465   0.240   3.520 -0.1340  0.3352 -0.4020
   38MOL    C2141535   4.509   0.095   3.565 -0.6843 -0.3810 -0.6554
   38MOL    N2241536   4.399   0.004   3.574 -0.2823  0.6023  0.5966
   38MOL    H2341537   5.059   1.564   2.548  0.4495 -0.7994  1.0737
   38MOL    H2441538   5.022   1.724   2.598  0.5264 -0.1555 -1.8718
   38MOL    H2541539   5.052   1.695   2.806  1.3465 -0.9618  1.4792
   38MOL    H2641540   5.202   1.613   2.814 -0.0565  1.0880  0.2781
   38MOL    H2741541   5.053   1.397   2.775 -2.8411  0.6788 -1.1293
   38MOL    H2841542   4.915   1.495   2.774  0.3758  2.9066 -2.4575
   38MOL    H2941543   5.123   1.450   3.000 -0.9473 -0.6822  1.3493
   38MOL    H3041544   4.981   1.566   3.004 -0.8796 -0.3643  1.9726
   38MOL    H3141545   4.951   1.265   2.957  0.2924 -0.0323  0.6431
   38MOL    H3241546   4.832   1.383   2.976 -1.4172 -2.1171  1.4401
   38MOL    H3341547   5.028   1.269   3.174  0.2784  0.4873  2.1822
   38MOL    H3441548   4.954   1.415   3.213 -0.2150 -0.0860  0.6817
   38MOL    H3541549   4.826   1.266   3.319 -0.2343 -1.6087  0.0077
   38MOL    H3641550   4.725   1.322   3.181  0.7743  0.8082 -1.2595
   38MOL    H3741551   4.805   1.099   3.068  1.2953  2.1724  0.1333
   38MOL    H3841552   4.891   1.067   3.207 -0.3869 -1.1467  2.1731
   38MOL    H3941553   4.588   1.102   3.196 -2.2350 -1.7471  1.6068
   38MOL    H4041554   4.671   1.062   3.339  0.1768 -0.7838 -0.6268
   38MOL    H4141555   4.669   0.883   3.088 -0.6966  0.5066 -0.1831
   38MOL    H4241556   4.735   0.842   3.244  0.2616 -0.6285 -1.0544
   38MOL    H4341557   4.610   0.657   3.172 -0.8393 -0.8969  1.8367
   38MOL    H4441558   4.336   0.615   3.200 -1.6820 -2.1710  1.2193
   38MOL    H4541559   4.387   0.647   3.369  1.2775 -0.4804  0.6975
   38MOL    H4641560   4.550   0.459   3.352  0.3682 -1.4553  0.3908
   38MOL    H4741561   4.469   0.418   3.197 -0.9961  1.1769 -0.8749
   38MOL    H4841562   4.318   0.453   3.449 -1.0413  0.9642 -0.8997
   38MOL    H4941563   4.264   0.385   3.295 -0.2098  1.2565 -0.4949
   38MOL    H5041564   4.448   0.207   3.318  0.3112 -0.1239 -0.5305
   38MOL    H5141565   4.298   0.199   3.431  1.0362  1.4626  1.7744
   38MOL    H5241566   4.559   0.291   3.496  1.0176  0.1901  3.4139
   38MOL    H5341567   4.414   0.295   3.599 -0.7950 -0.0348 -0.5786
   38MOL    H5441568   4.588   0.055   3.501  0.6506 -0.2531  0.8823
   38MOL    H5541569   4.568   0.095   3.657  0.1623 -1.5982 -1.1808
   38MOL    H5641570   4.348   7.656   3.496  0.1431  1.5135 -0.1524
   38MOL    H5741571   5.242   1.730   2.456  2.1506 -1.6874 -0.4397
   38MOL    C5841572   4.331   7.670   3.686 -0.0567 -0.6045  0.7996
   38MOL    O5941573   4.370   0.009   3.796 -0.1056  0.0559  0.4212
   38MOL    C6041574   4.191   7.606   3.664 -0.2378 -0.9224 -0.1600
   38MOL    C6141575   4.068   7.674   3.728  0.3581 -0.0299  0.8666
   38MOL    C6241576   4.044   0.123   3.678 -0.4849  0.1186 -0.2340
   38MOL    C6341577   4.014   0.126   3.527 -0.3600  0.3556 -0.1005
   38MOL    C6441578   3.993   0.275   3.474  0.1891 -0.2451 -0.0829
   38MOL    C6541579   3.948   0.303   3.331 -0.5883 -0.2844  0.0059
   38MOL    C6641580   3.905   0.453   3.319  0.0326  0.5265  0.2583
   38MOL    C6741581   4.007   0.569   3.349 -0.4079 -0.1471 -0.4238
   38MOL    C6841582   3.941   0.708   3.345  0.4129  0.3021 -0.5278
   38MOL    C6941583   4.034   0.829   3.361  0.4345  0.2028  0.1063
   38MOL    C7041584   4.043   0.911   3.237  0.3429  0.1358 -0.2547
   38MOL    O7141585   3.939   0.954   3.184 -0.2015 -0.4822  0.2590
   38MOL    N7241586   4.164   0.949   3.198  0.3762 -0.0023  0.0067
   38MOL    C7341587   4.190   1.043   3.090 -0.1484 -0.0136  0.1057
   38MOL    C7441588   4.238   0.970   2.963 -0.2213 -0.3876 -0.7000
   38MOL    C7541589   4.302   1.052   2.856 -0.1168 -0.4657 -0.5149
   38MOL    C7641590   4.450   1.095   2.893  0.2808 -0.0168  0.8768
   38MOL    C7741591   4.519   1.160   2.770  0.0008 -0.0207 -0.2767
   38MOL    C7841592   4.660   1.200   2.800 -0.6214  0.5984  0.3035
   38MOL    N7941593   4.729   1.231   2.675 -0.1189  0.1165 -0.3385
   38MOL    H8041594   4.194   7.503   3.701 -1.1562 -0.8106  0.2382
   38MOL    H8141595   4.174   7.587   3.558  0.0565  2.5012 -0.8635
   38MOL    H8241596   3.976   7.620   3.703  0.8617  0.2301 -1.7552
   38MOL    H8341597   4.075   7.681   3.836  0.4375  2.1290  0.7443
   38MOL    H8441598   4.131   0.180   3.713 -1.5137  0.4289  1.8641
   38MOL    H8541599   3.969   0.176   3.737 -0.8274  1.2722 -1.6831
   38MOL    H8641600   3.930   0.056   3.515  0.9052 -1.4139  1.0592
   38MOL    H8741601   4.103   0.085   3.480 -1.6534 -0.0985 -2.2491
   38MOL    H8841602   3.911   0.310   3.537  0.9916 -0.3342  1.0133
   38MOL    H8941603   4.084   0.332   3.494 -0.2821 -0.0173  1.4859
   38MOL    H9041604   3.871   0.231   3.305  0.3975 -1.5594  0.5463
   38MOL    H9141605   4.037   0.284   3.270  0.8987 -1.3876  2.4341
   38MOL    H9241606   3.827   0.470   3.393  0.1658  1.4687  0.1759
   38MOL    H9341607   3.853   0.463   3.224 -1.7561  0.2940  1.1732
   38MOL    H9441608   4.070   0.558   3.438 -2.0576 -0.5813  0.7315
   38MOL    H9541609   4.089   0.582   3.279 -0.3483  1.2362 -0.1120
   38MOL    H9641610   3.881   0.713   3.436  0.4644  0.8077 -0.5191
   38MOL    H9741611   3.877   0.711   3.256 -0.5692  1.4123  0.2064
   38MOL    H9841612   3.992   0.893   3.438 -0.7846  0.3377 -0.6621
   38MOL    H9941613   4.131   0.811   3.406  0.6143  1.4535  0.2196
   38MOL   H10041614   4.242   0.907   3.246  0.4975  1.1599  0.8572
   38MOL   H10141615   4.267   1.113   3.124 -0.0689 -0.1037  0.1114
   38MOL   H10241616   4.106   1.108   3.067 -0.0915 -0.2491 -0.7902
   38MOL   H10341617   4.292   0.881   2.997  0.4684  1.1357  2.3423
   38MOL   H10441618   4.153   0.924   2.913 -0.6507 -0.1482 -0.1807
   38MOL   H10541619   4.237   1.135   2.827  0.1579 -0.5417 -1.3602
   38MOL   H10641620   4.312   0.993   2.765 -0.5845 -2.4951  0.7150
   38MOL   H10741621   4.442   1.160   2.980  2.7012  0.7856  0.5243
   38MOL   H10841622   4.499   1.009   2.937 -0.8799 -0.9453  0.3932
   38MOL   H10941623   4.458   1.242   2.734  0.3548  0.5104  0.3342
   38MOL   H11041624   4.508   1.084   2.693 -2.8396 -0.0780  0.1142
   38MOL   H11141625   4.704   1.116   2.855  2.0021  1.9738  0.3641
   38MOL   H11241626   4.668   1.285   2.866 -2.3871  0.7331  0.3607
   38MOL   H11341627   4.785   1.165   2.621  0.8646  1.3658 -0.8671
   38MOL   C11441628   4.718   1.352   2.618  0.2098  0.2921 -0.6707
   38MOL   O11541629   4.659   1.450   2.673  0.0408 -0.1213  0.5971
   38MOL   C11641630   4.777   1.368   2.480 -0.0659  0.4361  0.0800
   38MOL   C11741631   4.664   1.369   2.372 -0.2862 -0.4244 -0.4502
   38MOL   C11841632   4.605   1.231   2.336  0.6293  0.1939 -0.3312
   38MOL   C11941633   4.502   1.234   2.223 -0.3149 -0.2380 -0.1334
   38MOL   C12041634   4.358   1.302   2.255 -0.1568 -0.5697  0.0849
   38MOL   C12141635   4.275   1.309   2.130  0.9178  0.1846  0.2024
   38MOL   C12241636   4.136   1.372   2.129  0.0520 -0.4246  0.6121
   38MOL   C12341637   4.074   1.382   1.989 -0.6807 -0.1948  0.0007
   38MOL   C12441638   3.930   1.444   1.986  0.6856  0.5630  0.4334
   38MOL   C12541639   3.919   1.583   2.057  0.0506  0.3502  0.6690
   38MOL   C12641640   4.017   1.687   2.010  0.3138 -0.6049  0.0073
   38MOL   O12741641   4.032   1.702   1.889  0.5076 -0.1328  0.8296
   38MOL   N12841642   4.095   1.743   2.103  0.3002  0.4223  0.3999
   38MOL   C12941643   4.197   1.844   2.077  0.2399 -0.0591 -0.3466
   38MOL   C13041644   4.262   1.897   2.208  0.3357  0.4683 -0.6220
   38MOL   C13141645   4.326   1.785   2.294 -0.2634 -0.5054  0.0952
   38MOL   C13241646   4.371   1.840   2.433 -0.2786 -0.3993  0.2645
   38MOL   C13341647   4.405   1.723   2.531  0.1411  0.0645 -0.0232
   38MOL   C13441648   4.412   1.772   2.671  0.8534 -0.2585  0.2043
   38MOL   N13541649   4.465   1.674   2.763  0.0379  0.6313  0.2510
   38MOL   H13641650   4.826   1.466   2.482  1.9998 -0.5207 -1.9458
   38MOL   H13741651   4.859   1.302   2.454 -1.1493 -0.2309 -1.7347
   38MOL   H13841652   4.711   1.409   2.282  3.3029  0.7054  1.7995
   38MOL   H13941653   4.587   1.438   2.406  1.2455  0.8932  0.3927
   38MOL   H14041654   4.688   1.163   2.314 -0.0499 -0.8300  0.2608
   38MOL   H14141655   4.555   1.196   2.426  0.2048  1.1228 -0.1993
   38MOL   H14241656   4.562   1.288   2.149  0.5962 -1.4253 -0.2771
   38MOL   H14341657   4.481   1.130   2.196 -0.4172 -0.4716  0.8391
   38MOL   H14441658   4.300   1.242   2.325  0.7025 -2.0975 -0.5023
   38MOL   H14541659   4.353   1.400   2.303  1.4617 -0.0950 -0.6976
   38MOL   H14641660   4.262   1.210   2.086  0.0925  0.6888 -0.6993
   38MOL   H14741661   4.333   1.362   2.054 -1.5584 -0.0314 -1.9011
   38MOL   H14841662   4.075   1.321   2.204 -0.1938 -0.3807  0.4424
   38MOL   H14941663   4.155   1.469   2.174 -1.7614  1.2021 -2.0139
   38MOL   H15041664   4.073   1.280   1.950 -1.2096 -0.6460  1.1775
   38MOL   H15141665   4.148   1.430   1.925 -0.9482 -1.4051 -1.2525
   38MOL   H15241666   3.867   1.368   2.033  0.2998  2.2603  2.7293
   38MOL   H15341667   3.906   1.461   1.881  1.7706  0.5004  0.1705
   38MOL   H15441668   3.919   1.581   2.166 -0.3423 -2.7340  0.6537
   38MOL   H15541669   3.815   1.610   2.040 -0.7130 -1.4604  2.3379
   38MOL   H15641670   4.054   1.731   2.195 -2.9258  1.5255 -0.8065
   38MOL   H15741671   4.155   1.931   2.027 -1.1318 -1.4018 -1.5885
   38MOL   H15841672   4.267   1.792   2.013  1.6380  1.7991 -0.3608
   38MOL   H15941673   4.180   1.957   2.246 -0.7163 -0.4867 -1.3691
   38MOL   H16041674   4.342   1.964   2.176 -1.1978  2.4585 -0.3744
   38MOL   H16141675   4.262   1.701   2.323  1.2909 -0.9058  2.4847
   38MOL   H16241676   4.411   1.739   2.245  0.1949 -1.4311  1.7569
   38MOL   H16341677   4.458   1.905   2.428 -0.8000  0.3134  0.3852
   38MOL   H16441678   4.288   1.902   2.467  0.6708  2.2078 -1.9755
   38MOL   H16541679   4.495   1.674   2.494  0.9987  1.5006  0.1287
   38MOL   H16641680   4.326   1.648   2.530 -0.6474  0.8502 -4.0644
   38MOL   H16741681   4.482   1.855   2.682  2.6044 -1.7530  0.5547
   38MOL   H16841682   4.314   1.799   2.711  0.6123  0.0127 -0.5547
   38MOL   H16941683   4.538   1.609   2.734 -1.4804 -0.0935 -2.0201
   38MOL   C17041684   4.424   1.658   2.890 -0.3950 -0.6739  0.3892
   38MOL   O17141685   4.343   1.724   2.943 -0.4813  0.3421 -0.4417
   38MOL   C17241686   4.485   1.536   2.960  0.5199  0.1757  0.1971
   38MOL   C17341687   4.426   1.503   3.102  0.0570 -0.1029 -0.2571
   38MOL   C17441688   4.460   1.611   3.207  0.5454  0.2527  0.3138
   38MOL   C17541689   4.603   1.638   3.229 -0.3794  0.2514  0.7336
   38MOL   C17641690   4.638   1.715   3.358  0.0764  0.3412  0.5735
   38MOL   C17741691   4.559   1.849   3.375 -0.2134 -0.1261 -0.1460
   38MOL   C17841692   4.570   1.911   3.521 -0.1279  0.4555  0.7574
   38MOL   C17941693   4.481   1.836   3.636 -0.2724 -0.4224  0.8293
   38MOL   C18041694   4.478   1.891   3.780  0.4892 -0.2566 -0.1219
   38MOL   C18141695   4.377   1.820   3.878 -0.1705  0.0566  0.7731
   38MOL   C18241696   4.241   1.840   3.821 -0.1487  0.3313 -0.1218
   38MOL   O18341697   4.177   1.939   3.849  0.2760  0.0329 -0.7191
   38MOL   N18441698   4.197   1.748   3.739 -0.3539  0.5231 -0.1142
   38MOL   C18541699   4.075   1.750   3.657 -0.0301 -0.5215 -0.4515
   38MOL   C18641700   4.117   1.753   3.513 -0.1933 -0.4127  0.7270
   38MOL   C18741701   3.993   1.725   3.430  0.0320 -0.7684 -0.0260
   38MOL   C18841702   4.021   1.743   3.277 -0.0217  0.0947 -0.5278
   38MOL   C18941703   3.970   1.875   3.213  0.3631 -0.4676  0.6664
   38MOL   C19041704   4.012   1.893   3.068 -0.1896 -0.1633  0.2152
   38MOL   N19141705   4.158   1.901   3.052  0.3163 -0.1528  0.2936
   38MOL   H19241706   4.461   1.448   2.900 -0.6415  1.2756 -0.9775
   38MOL   H19341707   4.593   1.545   2.972  0.7187 -1.6848  0.0026
   38MOL   H19441708   4.465   1.410   3.142  1.0789  0.7637  0.8199
   38MOL   H19541709   4.320   1.486   3.087 -0.2543  1.0899  0.4876
   38MOL   H19641710   4.409   1.581   3.299 -0.6481  0.2561 -0.3408
   38MOL   H19741711   4.406   1.701   3.177  0.3358 -0.2175 -0.7361
   38MOL   H19841712   4.659   1.544   3.230  2.1789  1.7082  1.7156
   38MOL   H19941713   4.645   1.692   3.144  0.4188 -2.8232 -0.9195
   38MOL   H20041714   4.616   1.655   3.446 -0.0908  0.6329  0.7292
   38MOL   H20141715   4.742   1.738   3.378 -0.6691  2.4509  2.1616
   38MOL   H20241716   4.454   1.844   3.348  0.3979 -2.5382 -2.2463
   38MOL   H20341717   4.583   1.920   3.296  2.5891 -1.0801 -0.2180
   38MOL   H20441718   4.675   1.928   3.545 -0.1816  0.4914  0.9655
   38MOL   H20541719   4.534   2.013   3.507  0.5919  0.2802 -3.1110
   38MOL   H20641720   4.382   1.828   3.590 -0.4981  3.5863  0.4350
   38MOL   H20741721   4.515   1.734   3.649 -0.6801 -0.6495  0.1451
   38MOL   H20841722   4.463   1.999   3.774 -3.7000 -0.6418  1.5879
   38MOL   H20941723   4.580   1.875   3.815 -0.3819 -0.6440  2.2912
   38MOL   H21041724   4.407   1.717   3.897 -0.2097  0.2270  1.7589
   38MOL   H21141725   4.390   1.877   3.970  1.0183  0.2010  0.5231
   38MOL   H21241726   4.265   1.675   3.722 -0.0680  0.7460  0.0802
   38MOL   H21341727   4.013   1.835   3.687  0.4647 -1.0966  2.3422
   38MOL   H21441728   4.020   1.658   3.676 -0.0252 -0.5935 -0.7983
   38MOL   H21541729   4.168   1.847   3.494  0.5618 -1.1753 -1.0358
   38MOL   H21641730   4.190   1.678   3.482 -0.8921 -0.2719 -1.2907
   38MOL   H21741731   3.954   1.626   3.452 -1.0906  0.0095  1.5271
   38MOL   H21841732   3.910   1.788   3.460  0.0842 -0.7269  0.0336
   38MOL   H21941733   3.958   1.665   3.234  1.1975 -2.8421  2.7222
   38MOL   H22041734   4.119   1.700   3.258 -0.6250 -0.2154 -3.0633
   38MOL   H22141735   3.993   1.966   3.270 -1.2981  0.6400 -0.3793
   38MOL   H22241736   3.862   1.876   3.207  0.4244 -0.5295 -0.6904
   38MOL   H22341737   3.969   1.986   3.030 -3.3609 -2.0856 -1.1082
   38MOL   H22441738   3.976   1.815   3.001  1.0248  0.2272 -0.9226
   38MOL   H22541739   4.209   1.827   3.006  0.5443  0.8120 -1.0442
   38MOL   C22641740   4.225   2.016   3.072 -0.6012 -0.4788  0.0022
   38MOL   O22741741   4.163   2.116   3.112  0.4846 -0.7104 -0.3787
   38MOL   C22841742   4.375   2.018   3.064 -0.7207 -0.1198  0.0647
   38MOL   C22941743   4.437   2.154   3.083  0.2282  0.5150  0.2842
   38MOL   C23041744   4.417   2.253   2.971 -0.0520  0.0204 -0.1302
   38MOL   C23141745   4.483   2.386   2.992 -0.0108  0.5568  0.4717
   38MOL   C23241746   4.461   2.470   2.870  0.1423 -0.1285  0.4705
   38MOL   C23341747   4.526   2.611   2.882  0.0639 -0.0459  0.4279
   38MOL   C23441748   4.668   2.616   2.838 -0.8766  0.1943  0.2806
   38MOL   C23541749   4.733   2.747   2.848  0.2986 -0.0801  0.1738
   38MOL   C23641750   4.879   2.760   2.790  0.1910 -0.9126  0.1154
   38MOL   C23741751   4.936   2.905   2.784  0.8226  0.0749 -0.0960
   38MOL   C23841752   5.011   2.950   2.911  1.1113 -0.3524 -0.4558
   38MOL   O23941753   5.120   2.906   2.937  0.4824 -0.2987  0.1258
   38MOL   N24041754   4.955   3.048   2.984 -0.4071 -0.4270 -0.2692
   38MOL   C24141755   5.001   3.106   3.110  0.3156  0.0971  0.2173
   38MOL   C24241756   5.004   3.258   3.104 -0.6783 -0.5377 -0.0524
   38MOL   C24341757   5.122   3.312   3.008 -0.3239  0.6706 -0.4902
   38MOL   C24441758   5.257   3.316   3.076  0.1687  0.0461  0.3112
   38MOL   C24541759   5.376   3.357   2.991  0.3558  0.3627 -0.0672
   38MOL   C24641760   5.505   3.353   3.065  0.4878 -0.8742  0.2233
   38MOL   N24741761   5.621   3.406   2.993 -0.3473  0.2249 -1.1652
   38MOL   H24841762   4.408   1.979   2.968 -0.8283  0.9582 -0.4072
   38MOL   H24941763   4.409   1.947   3.140 -0.9784  0.9462  1.1902
   38MOL   H25041764   4.402   2.192   3.179  0.3464  0.2405  0.4374
   38MOL   H25141765   4.543   2.139   3.106  0.2636  1.7322  0.9453
   38MOL   H25241766   4.459   2.211   2.880 -1.2381 -1.0214 -0.2134
   38MOL   H25341767   4.311   2.268   2.953 -0.3759 -0.1418  1.5068
   38MOL   H25441768   4.591   2.374   2.986 -0.1840  0.4212 -2.9497
   38MOL   H25541769   4.452   2.423   3.090  3.4532 -0.6071  2.0893
   38MOL   H25641770   4.354   2.490   2.866  0.2931  0.5216 -0.6254
   38MOL   H25741771   4.491   2.410   2.783 -0.6472 -0.1242  0.1904
   38MOL   H25841772   4.471   2.688   2.829 -0.0293 -0.3079  0.1420
   38MOL   H25941773   4.521   2.649   2.984 -0.6539 -0.4234  0.5377
   38MOL   H26041774   4.670   2.586   2.733  0.4130  1.2674 -0.0051
   38MOL   H26141775   4.734   2.557   2.901 -0.4115  0.7518  0.3175
   38MOL   H26241776   4.664   2.819   2.803 -0.0053 -0.9836 -0.8279
   38MOL   H26341777   4.738   2.778   2.953 -4.1547 -0.8978  0.7623
   38MOL   H26441778   4.951   2.705   2.850 -0.5096 -0.2230  1.6197
   38MOL   H26541779   4.874   2.715   2.691 -1.3805 -2.4459  0.8616
   38MOL   H26641780   5.006   2.908   2.700 -0.3693 -1.0116 -1.1649
   38MOL   H26741781   4.859   2.977   2.759 -0.1455 -0.9496 -0.1370
   38MOL   H26841782   4.865   3.072   2.945 -0.0921  1.8858  0.3689
   38MOL   H26941783   5.098   3.066   3.138 -0.2530 -2.0756 -0.8473
   38MOL   H27041784   4.937   3.071   3.191 -1.2431 -0.0518 -1.0524
   38MOL   H27141785   5.022   3.313   3.196  0.3665 -0.9221 -0.0225
   38MOL   H27241786   4.910   3.301   3.070 -0.4013  0.1094 -0.0075
   38MOL   H27341787   5.124   3.251   2.918  0.6351 -0.4815  0.3123
   38MOL   H27441788   5.096   3.413   2.976  0.6479  1.3805  0.8948
   38MOL   H27541789   5.281   3.223   3.127 -0.1424 -1.2357 -1.8055
   38MOL   H27641790   5.261   3.391   3.155  2.2702  0.1640  0.1114
   38MOL   H27741791   5.346   3.453   2.949  0.5574  1.2412  1.7807
   38MOL   H27841792   5.388   3.293   2.903 -0.3314  1.3955 -0.9283
   38MOL   H27941793   5.518   3.251   3.101 -1.4752 -0.4639  2.1687
   38MOL   H28041794   5.495   3.407   3.159  1.9170  1.1950 -0.7794
   38MOL   H28141795   5.597   3.455   2.909 -0.4730 -0.0503 -1.2902
   38MOL   C28241796   5.744   3.396   3.039 -0.5954  0.4082 -0.2085
   38MOL   O28341797   5.772   3.326   3.135 -0.4473 -0.2130  0.0512
   38MOL   C28441798   5.844   3.488   2.973 -0.0347 -0.0475 -0.3309
   38MOL   C28541799   5.983   3.416   2.973 -0.2243  0.0448  0.6596
   38MOL   C28641800   6.090   3.496   2.897 -0.1795  0.7122  0.5697
   38MOL   C28741801   6.235   3.440   2.899 -0.2373 -0.4813  0.6054
   38MOL   C28841802   6.345   3.530   2.842  0.0081 -0.1178 -0.1443
   38MOL   C28941803   6.483   3.506   2.899  0.1022 -0.5441 -0.8945
   38MOL   C29041804   6.597   3.584   2.825 -0.5754 -0.3947  0.0001
   38MOL   C29141805   6.671   3.507   2.710  0.0568 -0.0191  1.3176
   38MOL   C29241806   6.593   3.459   2.591  0.4227 -0.3280 -0.0734
   38MOL   C29341807   6.682   3.374   2.493  0.4093 -0.0501  0.5203
   38MOL   C29441808   6.799   3.450   2.424 -0.1336  0.1002 -0.3555
   38MOL   O29541809   6.778   3.547   2.354  0.2460  0.0857  0.4496
   38MOL   N29641810   6.922   3.396   2.440 -0.4968 -0.5404  0.1069
   38MOL   C29741811   7.049   3.456   2.386 -0.3781  0.1225 -0.2543
   38MOL   C29841812   7.160   3.350   2.350 -1.1467  0.6224  0.1228
   38MOL   C29941813   7.116   3.239   2.264  0.3930  0.3499 -0.4258
   38MOL   C30041814   7.203   3.112   2.251 -0.0793  0.6086 -0.6155
   38MOL   C30141815   7.120   2.979   2.242  0.3431  0.2863 -0.3690
   38MOL   C30241816   7.203   2.844   2.228 -0.1340  0.2612 -0.5953
   38MOL   N30341817   7.102   2.734   2.223  0.3555 -0.2126 -0.3113
   38MOL   H30441818   5.822   3.503   2.867  0.2231 -1.2298 -0.5673
   38MOL   H30541819   5.847   3.586   3.020  1.7280 -0.4991  0.5661
   38MOL   H30641820   5.963   3.318   2.929 -1.3257 -0.4812  2.2848
   38MOL   H30741821   6.023   3.399   3.073  0.7839  0.5358  0.3403
   38MOL   H30841822   6.065   3.504   2.791  0.7041  2.3367  0.4626
   38MOL   H30941823   6.090   3.597   2.937  1.3408  1.2680 -0.7783
   38MOL   H31041824   6.237   3.338   2.862  3.0494 -0.6529  1.1204
   38MOL   H31141825   6.262   3.445   3.004  1.0501  0.8717  0.2268
   38MOL   H31241826   6.340   3.518   2.734 -0.3577 -1.5280  0.0248
   38MOL   H31341827   6.325   3.635   2.866 -0.0274 -0.3957  1.0970
   38MOL   H31441828   6.475   3.555   2.996  1.0436  0.0934 -1.1222
   38MOL   H31541829   6.510   3.401   2.903  0.7770 -0.4709 -2.6339
   38MOL   H31641830   6.677   3.603   2.897  0.3308  0.3253 -1.1783
   38MOL   H31741831   6.572   3.683   2.787 -2.6509 -1.8443 -2.5305
   38MOL   H31841832   6.714   3.419   2.759  0.2777 -0.9118 -0.4410
   38MOL   H31941833   6.757   3.570   2.685  0.5822 -1.0407  0.4963
   38MOL   H32041834   6.507   3.399   2.622 -0.2755 -0.1498 -1.6246
   38MOL   H32141835   6.546   3.536   2.530 -1.7567 -0.5891  1.1834
   38MOL   H32241836   6.720   3.281   2.535  1.1072 -2.2058 -4.4801
   38MOL   H32341837   6.609   3.351   2.416  0.0976  1.1672  0.4400
   38MOL   H32441838   6.932   3.310   2.492  2.4221 -0.4860 -0.2454
   38MOL   H32541839   7.093   3.518   2.464  0.6769  1.0575 -1.5697
   38MOL   H32641840   7.031   3.522   2.302  0.6290  1.6679  0.7139
   38MOL   H32741841   7.196   3.309   2.445  0.7167  2.6447  0.3326
   38MOL   H32841842   7.253   3.395   2.316 -0.8650 -1.2357 -1.6737
   38MOL   H32941843   7.107   3.273   2.160 -1.1097 -0.7959 -0.6910
   38MOL   H33041844   7.013   3.209   2.284 -0.5811  2.1773 -2.3650
   38MOL   H33141845   7.257   3.119   2.156  1.8476  1.3657  0.5125
   38MOL   H33241846   7.280   3.099   2.327  0.0523 -1.0735 -1.0181
   38MOL   H33341847   7.045   2.984   2.163 -1.2425  0.6744  1.1337
   38MOL   H33441848   7.063   2.978   2.335 -1.8534  1.0335 -1.6774
   38MOL   H33541849   7.278   2.840   2.150  0.2492  2.8438 -0.4018
   38MOL   H33641850   7.262   2.828   2.318 -0.2570  0.4702 -0.4785
   38MOL   H33741851   7.054   2.701   2.306  2.1491  1.6546  1.5234
   38MOL   C33841852   7.085   2.666   2.116  0.6829  0.3331  0.4766
   38MOL   O33941853   7.115   2.711   2.007 -0.1915 -0.4740 -0.4048
   38MOL   C34041854   7.028   2.527   2.125  0.2529 -0.0172 -0.0763
   38MOL   C34141855   6.903   2.494   2.038 -0.6265  0.1758 -0.0266
   38MOL   C34241856   6.864   2.346   2.041  0.0303  0.3761  0.6400
   38MOL   C34341857   6.764   2.322   1.921  0.5246  0.3172  0.2500
   38MOL   C34441858   6.628   2.397   1.925 -0.2202  0.3769  0.8045
   38MOL   C34541859   6.535   2.349   1.810 -0.1822  0.1450 -0.5020
   38MOL   C34641860   6.398   2.428   1.812  0.2220  0.1717  0.2298
   38MOL   C34741861   6.295   2.357   1.715  0.0319  0.6192  0.4017
   38MOL   C34841862   6.164   2.436   1.723  0.3197  0.3981 -0.7930
   38MOL   C34941863   6.067   2.383   1.626  0.0569  0.0270 -0.1503
   38MOL   C35041864   5.936   2.460   1.634 -0.1323 -0.0126 -0.4318
   38MOL   O35141865   5.869   2.443   1.734  0.0142  0.3315 -0.2283
   38MOL   N35241866   5.905   2.540   1.529  0.2460  0.4895  0.5871
   38MOL   C35341867   5.784   2.617   1.519  0.8814 -0.1567  0.2738
   38MOL   C35441868   5.811   2.771   1.522 -0.5443 -0.1746 -0.2185
   38MOL   C35541869   5.862   2.816   1.659  0.1915  0.4950 -0.0072
   38MOL   C35641870   6.014   2.825   1.673 -0.0665 -0.4799 -0.3395
   38MOL   C35741871   6.055   2.876   1.811  0.1521  0.1672  0.2954
   38MOL   C35841872   6.203   2.919   1.821 -0.5948  0.3403  0.3050
   38MOL   N35941873   6.251   2.974   1.951  0.3578 -0.0953  0.4747
   38MOL   H36041874   7.012   2.491   2.226  0.4719 -0.5577 -0.2294
   38MOL   H36141875   7.118   2.477   2.088 -0.1102  0.1038 -1.1453
   38MOL   H36241876   6.814   2.546   2.074 -0.9642 -0.1694 -0.3666
   38MOL   H36341877   6.924   2.535   1.939 -0.6272 -1.2959 -0.6463
   38MOL   H36441878   6.825   2.326   2.141  1.4139  1.6426  1.4596
   38MOL   H36541879   6.956   2.289   2.031 -0.0730  0.4091 -0.6549
   38MOL   H36641880   6.813   2.341   1.825 -1.0087  1.8067 -0.2595
   38MOL   H36741881   6.738   2.216   1.921 -0.1944  0.4930  1.1769
   38MOL   H36841882   6.582   2.370   2.020 -1.2632  2.0347  0.7794
   38MOL   H36941883   6.638   2.505   1.935  1.0574  0.3846 -0.3593
   38MOL   H37041884   6.579   2.369   1.712  1.2526  2.1271  0.5065
   38MOL   H37141885   6.516   2.242   1.817  0.3276  0.0649 -0.2624
   38MOL   H37241886   6.370   2.396   1.913  0.2608 -2.7027 -0.6160
   38MOL   H37341887   6.415   2.534   1.796 -1.1627  0.2363 -0.8615
   38MOL   H37441888   6.335   2.362   1.614  0.5479 -0.4040  0.5531
   38MOL   H37541889   6.283   2.253   1.744 -0.5903  0.3444 -0.8224
   38MOL   H37641890   6.184   2.543   1.716  1.1034  0.4500  1.5187
   38MOL   H37741891   6.128   2.427   1.826 -2.9045 -1.1225 -1.9762
   38MOL   H37841892   6.103   2.378   1.523 -0.1416 -0.6455 -0.1884
   38MOL   H37941893   6.046   2.277   1.643  0.4481 -0.0339 -0.0585
   38MOL   H38041894   5.966   2.535   1.449 -3.0037 -0.0806 -1.9637
   38MOL   H38141895   5.717   2.586   1.599  1.9765  0.9727  1.6395
   38MOL   H38241896   5.735   2.593   1.424  2.9623 -4.4905  0.1469
   38MOL   H38341897   5.709   2.809   1.516 -1.0966 -1.6355 -0.2440
   38MOL   H38441898   5.880   2.808   1.446 -0.5241 -0.1547 -0.1902
   38MOL   H38541899   5.825   2.917   1.674  0.8546  1.2994 -3.2923
   38MOL   H38641900   5.815   2.754   1.735 -0.6794  2.0925  0.7705
   38MOL   H38741901   6.065   2.730   1.658  1.6698  0.2876  0.4441
   38MOL   H38841902   6.050   2.901   1.603 -1.0846  0.7190  0.4142
   38MOL   H38941903   6.035   2.799   1.886  0.7399  0.3419  0.6410
   38MOL   H39041904   6.001   2.965   1.843 -1.5323 -1.0804  0.9671
   38MOL   H39141905   6.257   2.830   1.791  1.1394  1.1397  0.9746
   38MOL   H39241906   6.225   2.994   1.745 -3.1572  1.3450  0.4925
   38MOL   H39341907   6.349   2.958   1.971  0.8387  1.0417 -0.8535
   38MOL   C39441908   6.198   3.080   2.017  1.0091 -0.0103  0.7176
   38MOL   O39541909   6.083   3.117   1.988 -0.2346 -0.0083 -0.9470
   38MOL   C39641910   6.264   3.138   2.136  0.1172 -0.1923 -0.4101
   38MOL   C39741911   6.312   3.289   2.113  1.1105  0.5354 -0.1036
   38MOL   C39841912   6.366   3.365   2.244 -0.8413 -0.6685  0.3633
   38MOL   C39941913   6.255   3.359   2.354 -0.1212 -0.5082 -0.2693
   38MOL   C40041914   6.117   3.422   2.329 -0.4380  0.9737  0.1889
   38MOL   C40141915   6.032   3.443   2.451  0.6007 -0.2198 -0.1821
   38MOL   C40241916   5.921   3.538   2.419 -0.2298  0.0517  0.8718
   38MOL   C40341917   5.808   3.536   2.531 -0.5429  0.1624 -0.5381
   38MOL   C40441918   5.692   3.641   2.515  0.0842 -0.0220 -1.2152
   38MOL   C40541919   5.602   3.658   2.639 -0.1888 -0.7665  0.0902
   38MOL   C40641920   5.493   3.552   2.663 -0.1562  0.0533 -0.0652
   38MOL   O40741921   5.523   3.451   2.726  0.3786 -0.5213  1.0132
   38MOL   N40841922   5.376   3.571   2.605  0.9261  0.7118  0.3983
   38MOL   C40941923   5.263   3.474   2.617 -0.3660  0.1262 -0.4560
   38MOL   C41041924   5.135   3.551   2.640 -0.1507  0.1116 -0.4805
   38MOL   C41141925   5.016   3.459   2.648  0.3616 -0.0038 -0.0454
   38MOL   C41241926   4.897   3.516   2.732 -0.4607 -0.5985  0.2045
   38MOL   C41341927   4.789   3.411   2.763 -0.5317 -0.1970  0.4828
   38MOL   C41441928   4.720   3.445   2.896  0.4415  0.2513  0.0910
   38MOL   N41541929   4.605   3.359   2.926  0.2016 -0.7823  0.5257
   38MOL   H41641930   6.351   3.074   2.152 -0.4505 -0.4513  1.9284
   38MOL   H41741931   6.196   3.130   2.221 -1.5088  1.6506 -1.4913
   38MOL   H41841932   6.229   3.336   2.061 -0.0321 -2.2051 -0.8525
   38MOL   H41941933   6.389   3.280   2.037  0.2721  2.4355 -1.2155
   38MOL   H42041934   6.396   3.466   2.217  0.5064 -1.1913 -0.1363
   38MOL   H42141935   6.451   3.314   2.288 -0.0724  0.1286 -0.1693
   38MOL   H42241936   6.303   3.412   2.437 -1.3497  0.3980 -0.1158
   38MOL   H42341937   6.250   3.256   2.390 -0.5769 -0.8027 -1.1565
   38MOL   H42441938   6.141   3.519   2.283 -0.9083  1.3473  0.7272
   38MOL   H42541939   6.067   3.365   2.250  0.8008  0.0968  0.0341
   38MOL   H42641940   5.984   3.346   2.469  0.5674 -0.0135  0.8738
   38MOL   H42741941   6.098   3.473   2.532  2.5186  0.0821 -1.8331
   38MOL   H42841942   5.962   3.637   2.402  1.6406 -0.8302  0.2342
   38MOL   H42941943   5.866   3.506   2.331 -1.5981  0.5615  1.5090
   38MOL   H43041944   5.763   3.437   2.539  0.7181 -0.3382  0.6463
   38MOL   H43141945   5.853   3.542   2.630  1.8316 -1.7621 -1.4539
   38MOL   H43241946   5.639   3.614   2.424 -0.1557  0.0807 -1.1055
   38MOL   H43341947   5.742   3.737   2.503  0.5885  0.0279  0.9624
   38MOL   H43441948   5.662   3.671   2.729  1.2213  2.5611 -1.2311
   38MOL   H43541949   5.558   3.758   2.641  1.1301 -0.1355 -1.7687
   38MOL   H43641950   5.366   3.660   2.559 -0.9213  0.9734  1.2778
   38MOL   H43741951   5.285   3.404   2.698 -2.2976 -0.5869 -0.5213
   38MOL   H43841952   5.273   3.421   2.522 -0.1889 -0.5766 -0.0470
   38MOL   H43941953   5.127   3.620   2.555  0.0261 -0.0272 -0.6116
   38MOL   H44041954   5.139   3.606   2.734 -0.0499  2.1747 -1.6499
   38MOL   H44141955   4.986   3.440   2.545 -2.9466  1.3719  0.5839
   38MOL   H44241956   5.042   3.361   2.687  0.6359  0.1327  0.1158
   38MOL   H44341957   4.945   3.551   2.823 -0.2515  0.5441 -0.3294
   38MOL   H44441958   4.846   3.603   2.691 -0.5089 -0.5841  0.2940
   38MOL   H44541959   4.720   3.399   2.680  1.1288 -0.0890 -0.9374
   38MOL   H44641960   4.836   3.313   2.775  1.8785  0.8107 -0.4285
   38MOL   H44741961   4.791   3.437   2.978  2.4494 -2.2812 -1.8042
   38MOL   H44841962   4.683   3.548   2.891  0.4287  0.1936 -1.2290
   38MOL   H44941963   4.517   3.407   2.941  0.3783  0.6674 -2.6530
   38MOL   C45041964   4.599   3.225   2.939  0.3461  0.0489 -0.2694
   38MOL   O45141965   4.692   3.147   2.919  0.1530 -0.2532 -0.4099
   38MOL   C45241966   4.470   3.162   2.987 -0.7915 -0.1260  0.6009
   38MOL   C45341967   4.467   3.013   3.040  0.1133  0.8310  0.5430
   38MOL   C45441968   4.520   3.006   3.181 -0.3874  0.0649 -0.2871
   38MOL   C45541969   4.537   2.859   3.228 -0.1231 -0.4010  0.5970
   38MOL   C45641970   4.603   2.855   3.360  0.1262 -0.0806 -0.0137
   38MOL   C45741971   4.685   2.722   3.392  0.1991  0.4949 -0.2116
   38MOL   C45841972   4.780   2.674   3.283 -0.2000 -0.1978 -0.0860
   38MOL   C45941973   4.898   2.762   3.257 -0.1265  0.4328  0.3285
   38MOL   C46041974   5.029   2.687   3.224  0.1199 -0.2439  0.5297
   38MOL   C46141975   5.163   2.763   3.231  0.2639  0.6070 -0.5769
   38MOL   C46241976   5.187   2.851   3.356 -0.5140  0.0136 -0.5431
   38MOL   O46341977   5.155   2.968   3.351  0.5042  0.2698  0.0588
   38MOL   N46441978   5.244   2.801   3.462 -0.6541  0.1799 -0.1835
   38MOL   C46541979   5.295   2.876   3.575 -0.4994 -0.6973 -0.2348
   38MOL   C46641980   5.376   2.784   3.667 -0.8506  1.0862  0.0774
   38MOL   C46741981   5.411   2.841   3.804  0.6325  0.3104 -0.3156
   38MOL   C46841982   5.523   2.762   3.874 -0.0251 -0.2293 -0.6459
   38MOL   C46941983   5.501   2.622   3.934  0.2369 -0.1594  0.3298
   38MOL   C47041984   5.633   2.575   4.001 -0.1986  0.2280  0.3810
   38MOL   N47141985   5.632   2.435   4.043  0.1229  0.5409  0.1822
   38MOL   H47241986   4.431   3.231   3.062 -0.2789 -0.7525  1.4364
   38MOL   H47341987   4.407   3.161   2.897 -1.0529  0.6567  0.7723
   38MOL   H47441988   4.507   2.946   2.964  3.2837 -0.2160  3.0470
   38MOL   H47541989   4.369   2.967   3.042  0.6894 -0.3665  1.6019
   38MOL   H47641990   4.464   3.070   3.249 -0.7519 -1.3033  0.7099
   38MOL   H47741991   4.622   3.042   3.188 -0.2162 -0.4989  0.1563
   38MOL   H47841992   4.587   2.804   3.148 -1.5448  1.8898 -1.9828
   38MOL   H47941993   4.438   2.815   3.233 -0.1099 -0.3629  1.2009
   38MOL   H48041994   4.536   2.874   3.443 -0.0153  0.3394 -0.2241
   38MOL   H48141995   4.673   2.938   3.356  0.9069 -0.7787 -1.7298
   38MOL   H48241996   4.621   2.635   3.406 -0.7965  1.2955  0.2062
   38MOL   H48341997   4.734   2.737   3.489 -0.0520 -0.8292  0.1335
   38MOL   H48441998   4.817   2.578   3.320  0.4377  0.0274 -0.1311
   38MOL   H48541999   4.729   2.636   3.195 -0.9307  1.3686 -0.3596
   38MOL   H48642000   4.867   2.842   3.190 -0.1471  0.3744  0.2685
   38MOL   H48742001   4.924   2.817   3.347  3.1727 -0.1092 -0.2053
   38MOL   H48842002   5.022   2.637   3.127 -2.9882 -1.5726  1.3506
   38MOL   H48942003   5.033   2.605   3.295  1.6307 -1.4938 -0.9607
   38MOL   H49042004   5.243   2.689   3.228 -1.5855 -1.5339  1.4815
   38MOL   H49142005   5.172   2.825   3.142 -1.4042  1.2356 -0.3280
   38MOL   H49242006   5.249   2.701   3.467 -2.2430  0.0830 -0.1592
   38MOL   H49342007   5.211   2.907   3.637 -2.0785 -2.1560 -1.5901
   38MOL   H49442008   5.355   2.959   3.538  1.5190 -1.6707  0.7686
   38MOL   H49542009   5.324   2.689   3.684  0.2674  0.5109  0.3431
   38MOL   H49642010   5.471   2.757   3.620 -0.6265 -0.8244  1.5810
   38MOL   H49742011   5.319   2.847   3.863  0.9166 -0.1539  0.1756
   38MOL   H49842012   5.451   2.942   3.794 -0.7276  0.8026 -0.9961
   38MOL   H49942013   5.580   2.824   3.944  0.2376  0.8648 -1.8017
   38MOL   H50042014   5.600   2.753   3.798  0.9345  0.0974  0.2746
   38MOL   H50142015   5.418   2.624   4.005  0.1326  0.0350  0.2022
   38MOL   H50242016   5.465   2.556   3.854 -3.1849  1.9827 -0.0076
   38MOL   H50342017   5.705   2.575   3.919  0.2696 -0.6380  0.7722
   38MOL   H50442018   5.662   2.648   4.077 -1.1827  0.4545  0.5436
   38MOL   H50542019   5.607   2.370   3.970 -1.1337  0.4588  0.6803
   38MOL   C50642020   5.686   2.388   4.155 -0.3176  0.2454 -0.5204
   38MOL   O50742021   5.737   2.462   4.240  0.0389  0.1530  0.2825
   38MOL   C50842022   5.689   2.237   4.175 -0.8584 -0.0690 -0.0928
   38MOL   C50942023   5.714   2.190   4.320 -0.1476  0.3723 -1.1761
   38MOL   C51042024   5.764   2.046   4.336 -0.4712  0.2728 -0.3433
   38MOL   C51142025   5.665   1.941   4.291  0.2132 -0.4358  0.1356
   38MOL   C51242026   5.710   1.802   4.326  0.5976  0.4859 -0.6057
   38MOL   C51342027   5.633   1.695   4.262 -0.2359  0.2073  0.2787
   38MOL   C51442028   5.682   1.565   4.318  0.7920 -0.0977 -0.4506
   38MOL   C51542029   5.634   1.440   4.241  0.2826 -0.1725  0.9237
   38MOL   C51642030   5.685   1.309   4.294 -0.2099 -0.6020 -0.6141
   38MOL   C51742031   5.817   1.268   4.225 -0.3124  0.2760 -0.4261
   38MOL   C51842032   5.861   1.127   4.255 -0.1891 -0.0565  0.5455
   38MOL   O51942033   5.793   1.051   4.323  0.2125 -0.1122 -0.2169
   38MOL   N52042034   5.980   1.094   4.208 -0.3850  0.0513  0.2286
   38MOL   C52142035   6.050   0.964   4.203 -0.0973 -0.7354 -0.5327
   38MOL   C52242036   6.077   0.910   4.061 -0.7749 -0.4894 -0.0321
   38MOL   C52342037   5.965   0.829   3.990 -0.3587  0.0090 -0.0839
   38MOL   C52442038   5.969   0.852   3.845  0.0198  0.4882 -0.0822
   38MOL   C52542039   6.093   0.810   3.769  0.2495 -0.0113  0.4532
   38MOL   C52642040   6.123   0.890   3.636  0.1330  0.2089 -0.4117
   38MOL   N52742041   5.997   0.911   3.557 -0.3186  0.4356 -0.7529
   38MOL   H52842042   5.776   2.198   4.123 -0.5171 -1.7518  1.6743
   38MOL   H52942043   5.597   2.202   4.129 -0.0849  2.5441 -3.8087
   38MOL   H53042044   5.624   2.205   4.380  1.4098  0.1182  1.3189
   38MOL   H53142045   5.784   2.250   4.378 -0.3856  2.1851 -2.7170
   38MOL   H53242046   5.786   2.035   4.443 -2.0419  3.4648  0.3587
   38MOL   H53342047   5.859   2.042   4.282 -1.9397 -1.6922 -2.8460
   38MOL   H53442048   5.575   1.953   4.351  0.6478  2.2092  0.3304
   38MOL   H53542049   5.628   1.957   4.189  2.2867  0.8458 -0.4288
   38MOL   H53642050   5.812   1.788   4.291  0.5171 -0.1487 -0.5912
   38MOL   H53742051   5.719   1.797   4.435 -2.1014  0.2571 -0.3733
   38MOL   H53842052   5.525   1.709   4.269 -0.1961 -0.2404  2.1348
   38MOL   H53942053   5.662   1.695   4.157 -1.2918  0.4056 -0.0261
   38MOL   H54042054   5.790   1.559   4.329  0.4763 -0.8019  2.8950
   38MOL   H54142055   5.651   1.554   4.422  1.5260 -0.1515 -0.2386
   38MOL   H54242056   5.525   1.437   4.246  0.3101 -1.4698  0.8223
   38MOL   H54342057   5.667   1.449   4.138 -1.2497  0.8999  0.5023
   38MOL   H54442058   5.617   1.227   4.270 -0.2464 -0.7157 -0.1239
   38MOL   H54542059   5.698   1.314   4.402  0.9643 -0.3396 -0.7686
   38MOL   H54642060   5.810   1.279   4.117  1.1948 -0.5250 -0.6142
   38MOL   H54742061   5.902   1.330   4.255 -0.4570  1.8677 -3.1666
   38MOL   H54842062   6.023   1.170   4.158  0.0641  1.2345  2.3786
   38MOL   H54942063   5.988   0.893   4.258  2.0365  0.1490  3.1462
   38MOL   H55042064   6.148   0.971   4.250 -1.3721 -0.0363  2.1734
   38MOL   H55142065   6.164   0.845   4.064  0.0294  0.4841 -1.3538
   38MOL   H55242066   6.110   0.998   4.004  2.1939 -2.5619 -1.6515
   38MOL   H55342067   5.873   0.865   4.035 -0.1399 -0.2145  0.5565
   38MOL   H55442068   5.973   0.721   4.004  1.1981  0.1336  0.1062
   38MOL   H55542069   5.957   0.959   3.828 -0.4360  0.5027  0.3044
   38MOL   H55642070   5.880   0.814   3.796 -0.0543 -2.3940  2.1711
   38MOL   H55742071   6.183   0.792   3.827 -0.9345 -2.3895  1.6184
   38MOL   H55842072   6.075   0.707   3.741  0.9901  0.4370 -1.7834
   38MOL   H55942073   6.180   0.982   3.651 -1.7411  1.8689 -3.1356
   38MOL   H56042074   6.195   0.839   3.572  0.3253  0.1886 -0.1792
   38MOL   H56142075   5.966   0.836   3.496 -1.4234  0.1925  0.0854
   38MOL   C56242076   5.936   1.030   3.540 -0.7303 -0.4496 -0.3210
   38MOL   O56342077   5.980   1.135   3.584 -0.2880 -0.2597 -0.0247
   38MOL   C56442078   5.833   1.035   3.428  0.4351  0.3784 -0.2380
   38MOL   C56542079   5.796   1.180   3.378  0.2190 -0.2011  0.1260
   38MOL   C56642080   5.668   1.164   3.291  0.1667  0.4398  0.1185
   38MOL   C56742081   5.615   1.300   3.244 -0.0277  0.2108 -0.3208
   38MOL   C56842082   5.516   1.283   3.123 -0.2226 -0.3929 -0.4946
   38MOL   C56942083   5.484   1.420   3.063 -0.6336 -0.6466  0.3462
   38MOL   C57042084   5.387   1.510   3.147  0.3685  0.0070 -0.3501
   38MOL   C57142085   5.391   1.656   3.096 -0.2413 -0.0690 -0.7776
   38MOL   C57242086   5.325   1.765   3.191  0.0878 -0.3167  0.5547
   38MOL   C57342087   5.350   1.907   3.130  0.0447 -0.5085 -0.0564
   38MOL   C57442088   5.316   2.019   3.228  0.0021  0.1595 -0.4912
   38MOL   O57542089   5.282   1.996   3.344  0.1728 -0.4103  0.4821
   38MOL   N57642090   5.327   2.143   3.180 -0.9747  0.0464  0.2687
   38MOL   C57742091   5.304   2.269   3.255 -0.3708 -0.2221  0.0096
   38MOL   C57842092   5.255   2.387   3.175  0.3339  0.4499 -0.0689
   38MOL   C57942093   5.347   2.407   3.057  0.4609 -0.9144 -0.1430
   38MOL   C58042094   5.312   2.528   2.964  0.8778  0.1202  0.2494
   38MOL   C58142095   5.424   2.546   2.856  0.1439 -0.0799 -0.4432
   38MOL   C58242096   5.395   2.658   2.754 -0.0110  0.1089 -0.2819
   38MOL   N58342097   5.389   2.792   2.818 -0.2790  0.8104  0.6350
   38MOL   H58442098   5.872   0.977   3.345  1.8230 -0.5477  1.0264
   38MOL   H58542099   5.753   0.980   3.478  2.8065 -2.6610  0.3557
   38MOL   H58642100   5.778   1.228   3.475  0.8643 -1.8957  1.1190
   38MOL   H58742101   5.881   1.228   3.329  1.9058 -1.9348  1.2734
   38MOL   H58842102   5.597   1.109   3.353  1.7902 -1.3799  0.4199
   38MOL   H58942103   5.691   1.093   3.211  1.1661  1.8119 -0.8268
   38MOL   H59042104   5.568   1.358   3.323 -0.6623  1.1697 -1.3805
   38MOL   H59142105   5.702   1.357   3.210  1.6579 -1.8348  0.4608
   38MOL   H59242106   5.554   1.209   3.051  2.8821 -0.1194  0.7885
   38MOL   H59342107   5.419   1.243   3.154 -2.0138  2.5848 -2.0792
   38MOL   H59442108   5.585   1.458   3.047 -0.5231 -0.2557  1.8618
   38MOL   H59542109   5.436   1.413   2.965 -0.4861 -0.2923  0.2501
   38MOL   H59642110   5.289   1.463   3.145  1.2013 -1.7184 -1.8202
   38MOL   H59742111   5.412   1.512   3.253  1.9717 -1.5590 -0.6695
   38MOL   H59842112   5.340   1.657   3.000 -0.6659 -1.3663 -0.5774
   38MOL   H59942113   5.495   1.674   3.068  0.7154 -2.1385  1.2761
   38MOL   H60042114   5.354   1.767   3.296  0.4601 -2.2436  0.5106
   38MOL   H60142115   5.221   1.736   3.200 -0.6586  1.5815 -1.5308
   38MOL   H60242116   5.455   1.925   3.107 -0.5442  0.6774 -1.8524
   38MOL   H60342117   5.294   1.915   3.037  0.5973  2.9945 -0.1381
   38MOL   H60442118   5.376   2.146   3.092 -2.7188  2.3370 -0.6707
   38MOL   H60542119   5.397   2.291   3.308 -0.1109  2.6898 -1.5576
   38MOL   H60642120   5.240   2.251   3.342  0.6530 -1.8175  0.4581
   38MOL   H60742121   5.238   2.476   3.236  0.6789 -0.3783  1.2719
   38MOL   H60842122   5.156   2.363   3.137  0.3553 -1.2596  0.9086
   38MOL   H60942123   5.368   2.316   3.000 -0.5676 -1.0967 -0.2385
   38MOL   H61042124   5.439   2.443   3.102 -0.1730  0.5325  0.0337
   38MOL   H61142125   5.227   2.505   2.900  0.2583  2.8183  0.0796
   38MOL   H61242126   5.292   2.623   3.013 -1.3774 -0.3627  0.3232
   38MOL   H61342127   5.437   2.449   2.808  4.9251  0.9763 -1.6042
   38MOL   H61442128   5.516   2.585   2.900  0.8716 -0.2332 -1.8056
   38MOL   H61542129   5.471   2.663   2.676 -0.9243  2.2352 -1.0860
   38MOL   H61642130   5.299   2.638   2.707 -0.5981  2.1493  0.0106
   38MOL   H61742131   5.298   2.820   2.851  0.3496  1.5075  1.8371
   38MOL   C61842132   5.485   2.880   2.847 -0.0853 -0.0413 -0.0692
   38MOL   O61942133   5.599   2.856   2.823  0.4600 -0.3358 -0.0240
   38MOL   C62042134   5.446   3.003   2.926 -0.1979  0.5361 -0.0072
   38MOL   C62142135   5.475   2.982   3.088  0.0503 -0.7010  0.7332
   38MOL   C62242136   5.519   2.846   3.133  0.2950 -0.4704  0.1233
   38MOL   C62342137   5.571   2.854   3.275  0.4014  0.3200 -0.2188
   38MOL   C62442138   5.581   2.713   3.329  0.4288  0.1884 -0.0260
   38MOL   C62542139   5.714   2.651   3.301  0.3796 -0.5530  0.0091
   38MOL   C62642140   5.740   2.523   3.381  0.1989  1.1402  0.0429
   38MOL   C62742141   5.657   2.400   3.330  0.0883 -0.6294  0.1274
   38MOL   C62842142   5.730   2.264   3.356 -0.1382 -0.2162  0.2385
   38MOL   C62942143   5.635   2.147   3.342 -0.1419 -0.9056 -0.2411
   38MOL   C63042144   5.698   2.011   3.357 -0.4309 -0.3695 -0.1046
   38MOL   O63142145   5.822   2.003   3.351  1.0080  0.2285  0.2285
   38MOL   N63242146   5.613   1.904   3.362 -0.1834 -0.1952  0.2131
   38MOL   C63342147   5.651   1.759   3.361  0.1142 -0.2550  0.1119
   38MOL   C63442148   5.694   1.730   3.506 -0.2040  0.3143  0.6886
   38MOL   C63542149   5.754   1.590   3.532  0.6409 -0.6608  0.5980
   38MOL   C63642150   5.806   1.572   3.678  0.4708 -0.5960 -0.4635
   38MOL   C63742151   5.890   1.451   3.687  0.8021  0.0615 -0.1900
   38MOL   C63842152   5.914   1.391   3.830 -0.4045 -0.0677  0.1423
   38MOL   N63942153   6.014   1.285   3.825 -0.8727  0.1132  0.2754
   38MOL   H64042154   5.339   3.022   2.922  0.1498  2.1196 -3.1115
   38MOL   H64142155   5.495   3.079   2.866  0.2203  0.6805  0.5061
   38MOL   H64242156   5.391   3.011   3.151  0.3299  1.6493  0.0834
   38MOL   H64342157   5.553   3.055   3.109  1.3963 -1.8373 -0.2027
   38MOL   H64442158   5.596   2.803   3.069  1.9198  0.4064  1.4737
   38MOL   H64542159   5.431   2.784   3.115  0.8945 -1.7137  1.4334
   38MOL   H64642160   5.669   2.900   3.289  0.8932 -0.1895 -1.8771
   38MOL   H64742161   5.496   2.897   3.341  1.1176  1.5525 -0.1967
   38MOL   H64842162   5.567   2.702   3.436 -0.5707  1.5877 -0.0015
   38MOL   H64942163   5.495   2.655   3.296  0.7625 -1.0007  1.1640
   38MOL   H65042164   5.795   2.722   3.317 -1.1451  0.9804  1.2140
   38MOL   H65142165   5.718   2.639   3.192 -0.0477  1.5361 -0.2691
   38MOL   H65242166   5.843   2.490   3.372 -0.2820  0.5478 -3.9150
   38MOL   H65342167   5.716   2.543   3.486  2.4831  1.3371  0.5640
   38MOL   H65442168   5.576   2.407   3.402 -0.3708  1.9767 -0.6044
   38MOL   H65542169   5.623   2.407   3.227  0.6502  2.5321  0.1039
   38MOL   H65642170   5.782   2.250   3.450 -0.2153 -0.4517  0.2460
   38MOL   H65742171   5.806   2.260   3.278 -2.4364  0.1095 -2.1001
   38MOL   H65842172   5.562   2.160   3.422  1.8291  2.4743  1.0835
   38MOL   H65942173   5.596   2.146   3.240  0.6779 -0.6419 -0.5625
   38MOL   H66042174   5.512   1.908   3.363 -0.2168 -0.5953 -1.0408
   38MOL   H66142175   5.572   1.701   3.315  0.6963 -0.7758 -0.2441
   38MOL   H66242176   5.737   1.741   3.297  0.1424 -0.0891  0.1028
   38MOL   H66342177   5.618   1.735   3.584 -1.7090  0.3929 -0.7467
   38MOL   H66442178   5.765   1.807   3.535  0.4767 -0.7735  1.9681
   38MOL   H66542179   5.682   1.513   3.506  1.8319 -2.0323  1.2899
   38MOL   H66642180   5.829   1.587   3.452  0.2656  2.3994  0.0388
   38MOL   H66742181   5.724   1.566   3.750 -0.3544 -3.1449 -1.5811
   38MOL   H66842182   5.861   1.660   3.713  0.3225 -0.0102 -1.6879
   38MOL   H66942183   5.851   1.376   3.618  0.1647  0.9816 -0.8489
   38MOL   H67042184   5.993   1.465   3.654  1.1978 -0.5513  0.7534
   38MOL   H67142185   5.939   1.469   3.903  0.3283 -1.5503  1.5004
   38MOL   H67242186   5.822   1.361   3.879 -0.6023 -0.1575 -0.2872
   38MOL   H67342187   6.024   1.237   3.737 -2.0891 -0.9045  0.6883
   38MOL   C67442188   6.122   1.280   3.903  0.2015 -0.2070 -0.6047
   38MOL   O67542189   6.126   1.335   4.012 -0.2033  0.6980 -0.3441
   38MOL   C67642190   6.241   1.202   3.852 -0.0191 -0.2950 -0.7290
   38MOL   C67742191   6.368   1.279   3.823  0.6426 -1.1687  0.3940
   38MOL   C67842192   6.365   1.369   3.695  0.7415  0.1510  0.5766
   38MOL   C67942193   6.347   1.522   3.714 -0.8628  0.4086  0.2587
   38MOL   C68042194   6.330   1.595   3.579 -0.2193  0.1915 -0.8268
   38MOL   C68142195   6.197   1.568   3.504  0.4049  0.2589 -0.5588
   38MOL   C68242196   6.196   1.658   3.380 -0.3766 -0.1763  0.0889
   38MOL   C68342197   6.069   1.661   3.300 -0.0211  0.1129  0.0032
   38MOL   C68442198   6.084   1.728   3.164  0.0324 -0.5568  0.1545
   38MOL   C68542199   5.978   1.678   3.061  0.2778  0.9093  0.4137
   38MOL   C68642200   6.002   1.727   2.915 -0.0731 -0.9504  0.1319
   38MOL   O68742201   6.074   1.828   2.892  0.1185  0.6273 -0.4821
   38MOL   N68842202   5.933   1.663   2.823 -0.2490  0.4190  0.1597
   38MOL   C68942203   5.946   1.682   2.677 -0.1216  0.6113  0.1295
   38MOL   C69042204   5.812   1.751   2.624 -0.1381  0.5260 -0.5969
   38MOL   C69142205   5.802   1.767   2.478 -0.0989  0.0333 -0.0032
   38MOL   C69242206   5.671   1.849   2.437 -0.4273  0.9109 -0.7143
   38MOL   C69342207   5.631   1.846   2.294 -0.4532 -0.3813  0.0959
   38MOL   C69442208   5.492   1.902   2.267 -0.8144 -0.1084  0.1342
   38MOL   N69542209   5.462   1.921   2.129 -0.2284  0.0523 -0.3870
   38MOL   H69642210   6.204   1.149   3.764 -0.0405 -0.3131 -0.7090
   38MOL   H69742211   6.261   1.126   3.927 -2.2124 -0.4420 -0.2378
   38MOL   H69842212   6.446   1.204   3.813  1.4903 -0.2559  0.0405
   38MOL   H69942213   6.410   1.340   3.903 -1.4567  1.2126 -0.2482
   38MOL   H70042214   6.452   1.341   3.636 -1.7531  0.7363 -3.5659
   38MOL   H70142215   6.297   1.331   3.618 -1.3922  1.9179  1.5135
   38MOL   H70242216   6.433   1.564   3.766 -0.2519 -0.3059 -0.1590
   38MOL   H70342217   6.259   1.543   3.775 -2.1924 -0.9052 -1.1566
   38MOL   H70442218   6.412   1.565   3.513  1.9445  0.1769  1.7706
   38MOL   H70542219   6.343   1.701   3.601 -2.0618  0.8527 -2.8207
   38MOL   H70642220   6.184   1.461   3.487  1.6049 -0.4597  2.6914
   38MOL   H70742221   6.121   1.610   3.570  0.5570  1.1920 -0.9720
   38MOL   H70842222   6.215   1.759   3.416 -3.5808  1.0541 -1.4333
   38MOL   H70942223   6.280   1.633   3.315  1.4095  2.8371  1.1345
   38MOL   H71042224   6.033   1.558   3.290  1.0224 -0.4288  1.7099
   38MOL   H71142225   5.989   1.707   3.357 -0.0874  2.0278 -1.5948
   38MOL   H71242226   6.181   1.701   3.123  1.5066  0.3928  2.8932
   38MOL   H71342227   6.082   1.837   3.170  1.7552 -0.5814  1.5055
   38MOL   H71442228   5.976   1.569   3.062  2.8980  0.8065  0.2038
   38MOL   H71542229   5.881   1.709   3.097  0.5692  3.7863 -1.1628
   38MOL   H71642230   5.890   1.573   2.838  0.4553  0.1577  0.6302
   38MOL   H71742231   6.029   1.748   2.653  1.4498 -1.2991  0.2067
   38MOL   H71842232   5.978   1.586   2.636 -2.6629 -0.2150 -0.0066
   38MOL   H71942233   5.813   1.850   2.669 -0.8253  0.8414 -1.2553
   38MOL   H72042234   5.720   1.702   2.655  1.1058 -1.0566  0.6613
   38MOL   H72142235   5.887   1.820   2.435 -0.5897 -0.6477 -1.8623
   38MOL   H72242236   5.806   1.675   2.420  1.4520  0.5935 -0.8175
   38MOL   H72342237   5.686   1.953   2.465 -0.9838  0.4309  1.4445
   38MOL   H72442238   5.594   1.795   2.493 -0.6109  2.5800  0.6879
   38MOL   H72542239   5.631   1.742   2.262 -0.3557 -0.3418 -0.0306
   38MOL   H72642240   5.713   1.890   2.238  0.7209  0.2215  2.2375
   38MOL   H72742241   5.412   1.850   2.320 -0.9623  0.1836  0.2051
   38MOL   H72842242   5.488   2.004   2.306  1.2270 -0.8412  2.3439
   38MOL   H72942243   5.509   1.994   2.078 -1.2888  0.3033 -1.0332
   38MOL   C73042244   5.367   1.855   2.061  0.2679 -0.1139  0.1526
   38MOL   O73142245   5.284   1.780   2.116 -0.2852  0.3413  0.1071
   38MOL   C73242246   5.365   1.866   1.904 -0.5355  0.7714 -0.0443
   38MOL   C73342247   5.242   1.800   1.836 -0.4593  0.0079  0.3762
   38MOL   C73442248   5.106   1.870   1.858  0.2545  0.1244  0.2889
   38MOL   C73542249   4.983   1.805   1.788 -0.2431 -0.0295  0.2893
   38MOL   C73642250   4.953   1.853   1.653  0.5416 -0.1518  0.5581
   38MOL   C73742251   4.807   1.809   1.604  0.1481 -0.8821 -0.0932
   38MOL   C73842252   4.777   1.836   1.453  0.2156  0.0757 -0.2899
   38MOL   C73942253   4.641   1.792   1.397 -0.3510 -0.0383 -0.2779
   38MOL   C74042254   4.646   1.777   1.247 -0.6923  0.2597 -0.8775
   38MOL   C74142255   4.694   1.894   1.158 -0.0306  0.3727 -0.6226
   38MOL   C74242256   4.598   2.006   1.165  0.1712 -0.4594 -0.7866
   38MOL   O74342257   4.483   1.986   1.134 -0.4888 -0.5909 -0.0439
   38MOL   N74442258   4.650   2.121   1.218  0.1610 -0.1582  0.7643
   38MOL   C74542259   4.579   2.248   1.238  0.0207  0.2389 -0.3269
   38MOL   C74642260   4.546   2.254   1.390  0.7250 -0.3625 -0.0335
   38MOL   C74742261   4.432   2.164   1.429  0.4447 -0.6717 -0.4330
   38MOL   C74842262   4.416   2.152   1.584  0.3302 -0.5159 -0.1267
   38MOL   C74942263   4.285   2.080   1.619  0.3643 -0.1896 -0.5333
   38MOL   C75042264   4.253   2.075   1.768  0.0040  0.3218  0.0586
   38MOL   N75142265   4.124   2.004   1.784 -0.1560 -0.4396  0.7809
   38MOL   H75242266   5.449   1.804   1.875 -1.4031 -0.3597 -0.1975
   38MOL   H75342267   5.397   1.968   1.884  1.1515  0.9825  3.4992
   38MOL   H75442268   5.240   1.692   1.852  1.2059  0.0402  0.8800
   38MOL   H75542269   5.255   1.813   1.728 -0.0975 -2.4486  0.0763
   38MOL   H75642270   5.108   1.974   1.826 -0.4354  0.2284  0.5681
   38MOL   H75742271   5.085   1.880   1.965 -0.8272  2.0305 -0.0718
   38MOL   H75842272   4.896   1.821   1.852 -0.1844 -0.2959  0.4360
   38MOL   H75942273   4.985   1.697   1.797 -2.4004  0.0257  1.7785
   38MOL   H76042274   5.040   1.819   1.598 -1.1275 -0.6463 -1.8646
   38MOL   H76142275   4.958   1.962   1.652 -2.8015  0.0532  0.0920
   38MOL   H76242276   4.811   1.700   1.608 -0.5788 -0.8808  1.0027
   38MOL   H76342277   4.736   1.841   1.680 -1.0571 -0.7865 -1.2531
   38MOL   H76442278   4.787   1.939   1.420  0.9911 -0.1071 -0.6276
   38MOL   H76542279   4.858   1.791   1.396  1.2400  1.0729  0.3785
   38MOL   H76642280   4.610   1.695   1.438 -2.6115  1.1341  0.8996
   38MOL   H76742281   4.562   1.860   1.431  0.1849 -0.0787  1.0705
   38MOL   H76842282   4.540   1.758   1.228 -0.8030  0.4713 -0.4808
   38MOL   H76942283   4.697   1.685   1.221  1.3603  1.0617  0.1668
   38MOL   H77042284   4.797   1.916   1.187 -0.2335 -0.4954  0.7977
   38MOL   H77142285   4.689   1.860   1.055  2.4412  0.7465 -0.9105
   38MOL   H77242286   4.748   2.115   1.244  0.0402 -0.1377  1.2390
   38MOL   H77342287   4.484   2.264   1.187  0.5513  0.6943 -1.1675
   38MOL   H77442288   4.640   2.335   1.213 -0.4655 -0.0601 -2.6452
   38MOL   H77542289   4.528   2.357   1.420 -2.2429 -0.0038 -2.7365
   38MOL   H77642290   4.631   2.226   1.452 -1.7568 -1.9922  2.7716
   38MOL   H77742291   4.434   2.069   1.376  0.1862  0.1762 -2.0037
   38MOL   H77842292   4.346   2.216   1.387  1.6458  0.1197 -1.9878
   38MOL   H77942293   4.489   2.074   1.601 -1.6678 -2.2710  0.6933
   38MOL   H78042294   4.425   2.242   1.645  2.7713 -2.0420  1.8547
   38MOL   H78142295   4.294   1.982   1.571 -1.0810 -1.0538  0.9238
   38MOL   H78242296   4.206   2.128   1.561  0.8352  2.0815  0.6371
   38MOL   H78342297   4.326   2.025   1.832  2.2920  1.9304 -1.2020
   38MOL   H78442298   4.241   2.177   1.803  1.9427  0.8056 -0.6031
   38MOL   H78542299   4.120   1.904   1.775 -0.9983 -0.2154 -1.8464
   38MOL   C78642300   4.003   2.059   1.812  0.2185  0.1077  0.2335
   38MOL   O78742301   3.985   2.175   1.839  0.4995  0.0967  0.4440
   38MOL   C78842302   3.880   1.973   1.807 -0.5752 -0.0874  0.6976
   38MOL   C78942303   3.798   1.982   1.935 -0.1706  0.3019  0.2123
   38MOL   C79042304   3.671   1.900   1.926  0.1131  0.1719 -0.3001
   38MOL   C79142305   3.555   1.983   1.869  0.0769  0.5422  0.5634
   38MOL   C79242306   3.422   1.919   1.858 -0.1345 -0.3096 -0.7443
   38MOL   C79342307   3.327   2.006   1.781 -0.1672 -0.3212 -0.0441
   38MOL   C79442308   3.194   1.920   1.746 -0.9357 -0.0384  0.4008
   38MOL   C79542309   3.094   1.923   1.858  0.3686 -0.4981  0.3690
   38MOL   C79642310   3.080   1.791   1.937 -0.2080  0.0643 -0.3952
   38MOL   C79742311   2.974   1.797   2.045  0.0697 -0.1073 -0.5587
   38MOL   C79842312   2.979   1.674   2.127 -0.0973  0.0143 -0.4707
   38MOL   O79942313   3.059   1.666   2.218  0.6300 -0.2311  0.0077
   38MOL   N80042314   2.891   1.582   2.099  0.6280  0.6406  0.2489
   38MOL   C80142315   2.878   1.448   2.157 -0.2550 -0.3056 -0.0944
   38MOL   C80242316   2.775   1.367   2.073  0.4555 -0.5780 -0.2019
   38MOL   C80342317   2.758   1.226   2.127  1.2398 -0.2798  0.1214
   38MOL   C80442318   2.689   1.133   2.028  0.0132 -0.1776 -0.9348
   38MOL   C80542319   2.705   0.984   2.081 -0.0358 -0.6245 -0.7467
   38MOL   C80642320   2.677   0.879   1.981 -0.3452  0.2495 -0.8382
   38MOL   N80742321   2.690   0.744   2.042  0.4776 -0.0047  1.1391
   38MOL   H80842322   3.905   1.868   1.788 -0.1778 -0.3443  2.5418
   38MOL   H80942323   3.824   2.004   1.718  1.3495  1.5520  0.0197
   38MOL   H81042324   3.858   1.931   2.010  0.0308 -2.3037 -1.6745
   38MOL   H81142325   3.782   2.081   1.978 -0.2131  0.2813  0.2437
   38MOL   H81242326   3.658   1.877   2.032  0.8457  0.7173 -0.0888
   38MOL   H81342327   3.691   1.808   1.871 -0.3391 -0.6140  0.8325
   38MOL   H81442328   3.553   2.076   1.925  1.2170  0.2552  1.0965
   38MOL   H81542329   3.573   2.006   1.764 -0.9939 -1.0294  0.0195
   38MOL   H81642330   3.422   1.833   1.792  0.0181 -1.1581  0.3483
   38MOL   H81742331   3.370   1.882   1.946  2.5111  0.7221  1.3343
   38MOL   H81842332   3.305   2.097   1.837  3.2636  0.5881 -0.0591
   38MOL   H81942333   3.367   2.033   1.683 -0.6373 -1.7606 -0.6497
   38MOL   H82042334   3.154   1.962   1.653 -0.7357 -1.5184 -0.3629
   38MOL   H82142335   3.218   1.817   1.719 -1.8001 -0.3304  0.7488
   38MOL   H82242336   3.103   2.016   1.914 -2.3064 -1.0589  1.8444
   38MOL   H82342337   2.994   1.939   1.817  0.1320  0.3699  1.2626
   38MOL   H82442338   3.177   1.769   1.983  0.0350  0.6198 -0.6275
   38MOL   H82542339   3.067   1.709   1.867  1.9549 -2.6343  2.2196
   38MOL   H82642340   2.991   1.883   2.109 -0.7961  1.1435 -1.9676
   38MOL   H82742341   2.876   1.813   1.999  0.6579 -0.4520 -1.9469
   38MOL   H82842342   2.818   1.614   2.037 -0.0436  0.6940  1.0576
   38MOL   H82942343   2.849   1.457   2.262  0.9528 -1.3679  0.3505
   38MOL   H83042344   2.967   1.386   2.165  1.9065  2.4319 -1.9178
   38MOL   H83142345   2.816   1.357   1.973 -0.7538 -0.2268 -0.7337
   38MOL   H83242346   2.674   1.406   2.068  0.6286 -0.2739 -1.4178
   38MOL   H83342347   2.861   1.196   2.144  1.0918 -1.3752 -0.8650
   38MOL   H83442348   2.699   1.229   2.218 -0.8034  2.2022 -1.2097
   38MOL   H83542349   2.747   1.152   1.937  1.8853 -1.3842 -0.0092
   38MOL   H83642350   2.586   1.170   2.021 -0.0122  0.0788  0.7857
   38MOL   H83742351   2.640   0.985   2.168 -1.0770  1.5037 -1.4993
   38MOL   H83842352   2.805   0.969   2.121 -0.8285 -1.0411  1.1322
   38MOL   H83942353   2.748   0.883   1.898  1.0673 -1.2464  0.2642
   38MOL   H84042354   2.580   0.893   1.933 -1.2892  1.1930  1.3145
   38MOL   H84142355   2.688   0.740   2.143 -2.3330 -0.2585  1.1039
   38MOL   C84242356   2.685   0.636   1.963  0.0602  0.2821 -0.7433
   38MOL   O84342357   2.651   0.644   1.846 -0.5531  0.2292 -0.2791
   38MOL   C84442358   2.719   0.499   2.020  0.4663  0.3255  0.4457
   38MOL   C84542359   2.601   0.399   1.989  0.1615 -0.8580 -0.1309
   38MOL   C84642360   2.610   0.318   1.862 -0.3295 -0.1293 -0.3057
   38MOL   C84742361   2.480   0.249   1.839 -0.3191  0.1884 -0.1370
   38MOL   C84842362   2.447   0.133   1.928 -0.1440  0.1187 -0.6381
   38MOL   C84942363   2.516   0.005   1.908 -0.5177  0.6997 -0.6502
   38MOL   C85042364   2.467   7.585   2.003 -0.6045  1.0869  0.1692
   38MOL   C85142365   2.562   7.462   1.999 -0.3648 -0.1157  0.0616
   38MOL   C85242366   2.542   7.373   2.122  0.1605 -0.5549 -0.4856
   38MOL   C85342367   2.617   7.240   2.134  0.2180  0.0157  0.5017
   38MOL   C85442368   2.771   7.249   2.131 -0.0270  0.4828 -0.8275
   38MOL   O85542369   2.826   7.244   2.239  0.2423 -0.2553 -0.5439
   38MOL   N85642370   2.836   7.260   2.017  0.8984  0.4587  0.2860
   38MOL   C85742371   2.982   7.269   1.996 -0.4879  0.1052  0.7039
   38MOL   C85842372   3.016   7.390   1.906  0.1245 -0.9947 -0.1123
   38MOL   C85942373   2.990   7.524   1.969 -0.0188 -0.0323  0.3045
   38MOL   C86042374   3.028   7.618   1.860 -0.1403  0.4631 -0.0865
   38MOL   C86142375   3.010   0.071   1.900 -0.1953 -0.1763  0.4220
   38MOL   C86242376   3.017   0.163   1.778 -1.3656 -0.0648 -0.1865
   38MOL   N86342377   3.014   0.303   1.816  0.4113  0.0926 -0.5635
   38MOL   H86442378   2.726   0.507   2.128 -0.5922  0.8637  0.4792
   38MOL   H86542379   2.812   0.460   1.979 -0.7074 -0.2246 -1.7810
   38MOL   H86642380   2.513   0.463   1.982  0.9210  0.2335  0.2170
   38MOL   H86742381   2.595   0.338   2.079  1.6983  0.3785  0.8203
   38MOL   H86842382   2.637   0.376   1.774 -1.1820 -0.0715 -0.5319
   38MOL   H86942383   2.689   0.244   1.875  1.0439  1.5486  1.0773
   38MOL   H87042384   2.491   0.212   1.737 -0.8920 -1.3382  0.3480
   38MOL   H87142385   2.394   0.316   1.830  0.5751  1.3830  0.1002
   38MOL   H87242386   2.452   0.155   2.035 -0.7170 -2.0428 -0.1552
   38MOL   H87342387   2.342   0.106   1.917  0.4780 -1.8347 -1.9836
   38MOL   H87442388   2.489   7.659   1.809  0.8487 -1.1508 -0.3380
   38MOL   H87542389   2.624   0.017   1.920 -0.2833 -1.1347 -0.7767
   38MOL   H87642390   2.455   7.620   2.105  0.8922 -0.7830  0.9989
   38MOL   H87742391   2.366   7.545   1.992 -0.9013  1.4023  1.6913
   38MOL   H87842392   2.666   7.492   1.983 -1.1536  2.3249 -0.7042
   38MOL   H87942393   2.544   7.406   1.908  1.2420 -2.3019  1.0301
   38MOL   H88042394   2.436   7.351   2.136  0.5422 -1.2376  1.6082
   38MOL   H88142395   2.567   7.433   2.209  1.5052 -1.8674  0.0595
   38MOL   H88242396   2.593   7.185   2.225 -0.6692 -0.3379  0.0637
   38MOL   H88342397   2.573   7.167   2.066 -0.3012  1.0642 -0.3027
   38MOL   H88442398   2.778   7.249   1.935 -0.5725 -0.0427  1.3711
   38MOL   H88542399   3.022   7.178   1.950  1.0479  1.3608 -0.5214
   38MOL   H88642400   3.040   7.287   2.086  0.2062 -0.1877  0.3282
   38MOL   H88742401   2.968   7.365   1.812  0.5746 -0.3768 -0.5161
   38MOL   H88842402   3.121   7.375   1.878  0.4169  0.2411  0.2969
   38MOL   H88942403   3.052   7.527   2.059 -2.3387  1.1014  1.9139
   38MOL   H89042404   2.885   7.533   1.994  0.3952  1.7814  1.4584
   38MOL   H89142405   2.960   7.593   1.778  0.5249  0.5098 -0.6659
   38MOL   H89242406   3.124   7.610   1.809 -0.1864 -2.0226  0.1597
   38MOL   H89342407   2.909   0.090   1.936  0.0529  2.5400 -0.2130
   38MOL   H89442408   3.071   0.094   1.987 -1.0585  2.0165  0.4762
   38MOL   H89542409   3.115   0.138   1.737 -0.4256  2.6548  0.3488
   38MOL   H89642410   2.939   0.129   1.710 -1.2316 -0.8377  0.0399
   38MOL   H89742411   2.996   0.328   1.912 -2.8351  0.8275 -1.2986
   38MOL   C89842412   3.049   0.404   1.737 -0.2278 -0.2570  0.1812
   38MOL   O89942413   3.082   0.392   1.621  0.0321 -0.2845 -0.3203
   38MOL   C90042414   3.051   0.540   1.805 -0.2405 -0.1286  0.1746
   38MOL   C90142415   3.166   0.637   1.765 -0.3296 -0.1767  0.0022
   38MOL   C90242416   3.302   0.612   1.842  0.1115 -0.3254  0.0456
   38MOL   C90342417   3.425   0.693   1.792 -0.1465  0.2594  0.0872
   38MOL   C90442418   3.472   0.666   1.646  0.2902  0.4102 -0.0200
   38MOL   C90542419   3.599   0.752   1.624  0.1960  0.3580 -0.5540
   38MOL   C90642420   3.663   0.742   1.496  0.0814 -0.6236  0.0569
   38MOL   C90742421   3.751   0.618   1.483 -0.1202  0.9146 -0.1209
   38MOL   C90842422   3.880   0.642   1.395 -0.0834 -0.9152 -0.3538
   38MOL   C90942423   3.949   0.523   1.329  0.4204  0.3601  0.4375
   38MOL   C91042424   4.023   0.417   1.419  0.1870 -0.0325  0.7185
   38MOL   O91142425   4.080   0.457   1.516  0.2749  0.0830 -0.1397
   38MOL   N91242426   4.004   0.290   1.382  0.3362  0.1434 -0.4371
   38MOL   C91342427   4.066   0.182   1.458  1.1212  0.0683 -0.2873
   38MOL   C91442428   3.989   0.048   1.442  0.2109  0.1234 -0.2703
   38MOL   C91542429   3.990   7.657   1.567 -0.1458 -0.0459  0.2157
   38MOL   C91642430   3.924   7.523   1.551  0.1721 -0.0064  0.0421
   38MOL   C91742431   3.918   7.458   1.682  0.2888 -0.3303 -0.2515
   38MOL   C91842432   3.887   7.307   1.680  0.1201 -0.3279 -0.0241
   38MOL   N91942433   3.876   7.251   1.813 -0.2295  0.2612 -0.4375
   38MOL   H92042434   2.957   0.596   1.801 -0.4407 -0.5175 -0.5999
   38MOL   H92142435   3.064   0.532   1.912 -0.1303 -1.5914  0.0591
   38MOL   H92242436   3.133   0.737   1.792 -1.4557 -0.3836 -0.5922
   38MOL   H92342437   3.182   0.641   1.657  1.7555 -0.7573  0.2581
   38MOL   H92442438   3.318   0.505   1.835 -0.9393 -0.5234  0.5090
   38MOL   H92542439   3.287   0.631   1.949  1.6260 -0.2545  0.2603
   38MOL   H92642440   3.415   0.801   1.802 -1.4449  0.2927 -1.4381
   38MOL   H92742441   3.510   0.681   1.860 -0.2699 -1.2949 -0.0080
   38MOL   H92842442   3.398   0.693   1.570 -0.3041 -0.5148  0.2211
   38MOL   H92942443   3.480   0.559   1.630 -1.7723 -0.0081  1.5559
   38MOL   H93042444   3.569   0.854   1.651 -1.3310 -0.0595 -0.6463
   38MOL   H93142445   3.676   0.731   1.699  0.6150 -0.4778 -1.2086
   38MOL   H93242446   3.726   0.828   1.472  0.0655 -0.4081  0.7717
   38MOL   H93342447   3.594   0.738   1.412  0.4367  3.2870 -0.5038
   38MOL   H93442448   3.693   0.536   1.441  0.0902  0.3488  0.6797
   38MOL   H93542449   3.775   0.575   1.580 -0.5683 -0.0484 -0.4265
   38MOL   H93642450   3.833   0.690   1.309 -0.9924 -1.6542 -0.2829
   38MOL   H93742451   3.945   0.716   1.442  0.1015 -2.9074  2.6541
   38MOL   H93842452   3.875   0.473   1.266  0.7027  3.6484 -2.6306
   38MOL   H93942453   4.026   0.558   1.259 -0.1343 -0.7598 -0.7699
   38MOL   H94042454   3.939   0.268   1.308 -2.3856  2.1159  1.2817
   38MOL   H94142455   4.060   0.198   1.565 -3.2625  0.0374 -0.4377
   38MOL   H94242456   4.173   0.177   1.442  1.1200 -0.1721 -0.2174
   38MOL   H94342457   3.885   0.071   1.420 -0.9180 -0.1369  4.1960
   38MOL   H94442458   4.039   7.683   1.364 -0.7443 -0.0046 -0.7913
   38MOL   H94542459   4.097   7.641   1.582 -0.2337 -0.2146  0.6634
   38MOL   H94642460   3.953   0.012   1.658 -0.0770 -1.4113  0.9539
   38MOL   H94742461   3.985   7.468   1.479 -1.1509 -0.7911 -0.4885
   38MOL   H94842462   3.819   7.522   1.523 -0.0100 -0.0587  0.7156
   38MOL   H94942463   4.007   7.479   1.741 -1.8968  2.1515  2.3793
   38MOL   H95042464   3.835   7.498   1.740  0.0163 -0.5506 -0.4910
   38MOL   H95142465   3.972   7.256   1.636 -0.0381  0.7060 -1.5679
   38MOL   H95242466   3.795   7.285   1.626 -0.7367  0.8469  0.9207
   38MOL   H95342467   3.928   7.297   1.886  0.6972  1.0968 -1.5975
   38MOL   C95442468   3.826   7.129   1.836 -0.4261  0.0046  0.0836
   38MOL   O95542469   3.787   7.055   1.744 -0.4512 -0.3498 -0.2555
   38MOL   C95642470   3.815   7.091   1.984  0.1278  0.7605 -0.1945
   38MOL   C95742471   3.746   6.959   2.016 -0.5482 -0.5703  0.1660
   38MOL   C95842472   3.757   6.930   2.168  0.3007 -0.3682 -0.1227
   38MOL   C95942473   3.727   6.782   2.194 -0.2055  0.5644 -0.3401
   38MOL   C96042474   3.570   6.765   2.218  0.1606  0.1616  0.0653
   38MOL   C96142475   3.538   6.632   2.284 -0.2649 -0.7352  0.1765
   38MOL   C96242476   3.567   6.516   2.188  0.1361  0.3094 -0.4913
   38MOL   C96342477   3.518   6.375   2.215 -0.4893  0.2095 -0.1219
   38MOL   C96442478   3.570   6.272   2.114 -0.1725 -0.2795  0.2830
   38MOL   C96542479   3.490   6.148   2.092 -0.5514 -0.4144 -0.2067
   38MOL   C96642480   3.379   6.170   1.989 -0.0194  0.0911  0.0333
   38MOL   O96742481   3.395   6.223   1.880  0.6000 -0.7412  0.2674
   38MOL   N96842482   3.260   6.109   2.020  0.3448 -0.7165 -0.7016
   38MOL   C96942483   3.136   6.128   1.950 -0.4755  0.2477 -0.1441
   38MOL   C97042484   3.094   6.273   1.959 -0.6321  0.7051 -0.3011
   38MOL   C97142485   2.948   6.305   1.928  0.3616 -0.3872 -0.5109
   38MOL   C97242486   2.919   6.452   1.941  0.1448  0.3569  0.1692
   38MOL   C97342487   2.770   6.471   1.938 -0.1595 -0.5632  0.0146
   38MOL   C97442488   2.725   6.621   1.961  0.1420 -0.6507  0.6541
   38MOL   N97542489   2.756   6.703   1.850  0.4520 -0.1739 -0.1617
   38MOL   H97642490   3.913   7.102   2.029  0.2474  1.7162 -0.6866
   38MOL   H97742491   3.754   7.168   2.031 -1.6047 -1.5837  1.5272
   38MOL   H97842492   3.795   6.876   1.966  0.3575  0.2308 -0.2901
   38MOL   H97942493   3.644   6.958   1.976  0.3477  2.3230 -2.3929
   38MOL   H98042494   3.861   6.951   2.193 -0.3013  1.0218  1.2535
   38MOL   H98142495   3.697   6.997   2.230 -0.6340  0.4769 -1.8964
   38MOL   H98242496   3.764   6.721   2.112 -1.5687  1.6722 -1.8225
   38MOL   H98342497   3.782   6.745   2.280 -0.6185  0.7289 -0.0006
   38MOL   H98442498   3.527   6.829   2.295  0.6536  2.7226 -1.7204
   38MOL   H98542499   3.504   6.784   2.133 -0.0373 -1.8763 -0.2616
   38MOL   H98642500   3.592   6.625   2.379 -1.0013  1.2031  0.7656
   38MOL   H98742501   3.436   6.620   2.319 -1.0589 -0.7143 -2.0493
   38MOL   H98842502   3.537   6.543   2.087 -0.2012  1.6182 -0.0390
   38MOL   H98942503   3.675   6.499   2.192  0.3504  1.4817 -1.2212
   38MOL   H99042504   3.559   6.347   2.311  1.3296  1.7212 -0.4156
   38MOL   H99142505   3.410   6.374   2.226 -0.4285 -0.4166  0.3929
   38MOL   H99242506   3.665   6.237   2.154 -0.4127 -2.1090 -0.6882
   38MOL   H99342507   3.600   6.325   2.024 -0.5717  0.0312  0.3322
   38MOL   H99442508   3.555   6.069   2.054  1.3167  0.6564  0.6732
   38MOL   H99542509   3.452   6.114   2.188  0.7213 -0.5404  0.2637
   38MOL   H99642510   3.254   6.056   2.106 -0.8467 -0.9910 -0.9483
   38MOL   H99742511   3.074   6.061   2.009 -3.6685  1.9353 -1.4691
   38MOL   H99842512   3.135   6.088   1.849  1.0123 -0.3007  0.0385
   38MOL   H99942513   3.167   6.335   1.906 -1.1302  2.2105  0.7192
   38MOL     H142514   3.108   6.307   2.062  1.2969  0.8240 -0.5733
   38MOL     H242515   2.876   6.251   1.990 -1.1494  0.1096 -1.8020
   38MOL     H342516   2.917   6.283   1.825 -0.2623  0.2122 -0.4543
   38MOL     H442517   2.956   6.494   2.035 -0.9665 -0.0629  0.8133
   38MOL     H542518   2.969   6.513   1.866 -1.3358 -0.4241 -1.5051
   38MOL     H642519   2.729   6.420   2.026  2.0366  1.3948  2.2798
   38MOL     H742520   2.725   6.435   1.846  1.1246 -0.6190 -0.5995
   38MOL     H842521   2.616   6.623   1.972  0.0841  2.5831 -0.1100
   38MOL     H942522   2.766   6.656   2.056 -0.2564 -2.0944  1.3769
   38MOL    H1042523   2.830   6.670   1.790  0.3970 -0.7473  0.0728
   38MOL    C1142524   2.727   6.838   1.853 -0.3516  0.3594  0.2159
   38MOL    O1242525   2.644   6.876   1.936  0.4604 -0.3837 -0.1225
   38MOL    C1342526   2.792   6.928   1.756  0.2211  0.1083  0.8779
   38MOL    C1442527   2.696   7.023   1.676  0.0521  0.1840 -0.0806
   38MOL    C1542528   2.773   7.084   1.556  0.6056  0.2505  0.4989
   38MOL    C1642529   2.894   7.174   1.585  0.2424 -0.0482  0.2003
   38MOL    C1742530   2.925   7.270   1.468 -0.2671  0.8106  0.1425
   38MOL    C1842531   3.041   7.365   1.501 -0.1648 -0.4416 -0.4144
   38MOL    C1942532   3.053   7.488   1.409  0.3152 -0.8505  0.4223
   38MOL    C2042533   3.149   7.588   1.461 -0.2561 -0.3843 -0.0060
   38MOL    C2142534   3.131   0.024   1.374  0.0194  0.1705  0.0845
   38MOL    C2242535   3.208   0.143   1.424  0.1944  0.1903 -0.1796
   38MOL    C2342536   3.221   0.254   1.318 -0.8224 -0.1303  0.2838
   38MOL    O2442537   3.294   0.240   1.220 -0.0652  0.2262  0.2855
   38MOL    N2542538   3.149   0.361   1.344  0.6275  0.7909  0.4994
   38MOL    C2642539   3.124   0.476   1.259 -0.3542 -0.2319  0.6541
   38MOL    C2742540   3.167   0.603   1.335  0.0705 -0.0959  0.1467
   38MOL    C2842541   3.181   0.724   1.240 -0.0866 -0.5385  1.0976
   38MOL    C2942542   3.069   0.738   1.134  0.2599 -0.8540  0.3409
   38MOL    C3042543   2.935   0.782   1.199 -0.5483 -0.1845 -0.1818
   38MOL    C3142544   2.838   0.825   1.085 -0.2269  0.2192 -0.2669
   38MOL    N3242545   2.701   0.841   1.137  0.1027 -0.0059  0.0972
   38MOL    H3342546   2.854   6.867   1.691 -2.0614 -0.5386 -0.7579
   38MOL    H3442547   2.853   7.002   1.808  2.2441 -1.5190  0.8712
   38MOL    H3542548   2.670   7.100   1.748 -1.8843 -0.2358 -0.3181
   38MOL    H3642549   2.610   6.970   1.636 -0.2815 -0.1022  1.0254
   38MOL    H3742550   2.700   7.131   1.491 -0.0113  0.1614  1.1299
   38MOL    H3842551   2.806   6.997   1.498  0.6884 -0.0976  1.0720
   38MOL    H3942552   2.865   7.231   1.673 -0.5723 -0.8754  0.4777
   38MOL    H4042553   2.979   7.119   1.626  0.2816 -1.2538 -1.4620
   38MOL    H4142554   2.946   7.208   1.381 -0.2443 -0.8548  1.3096
   38MOL    H4242555   2.836   7.330   1.454  0.7908  2.2206 -0.7115
   38MOL    H4342556   3.026   7.407   1.601 -0.1191  2.2708 -1.4993
   38MOL    H4442557   3.137   7.314   1.510  0.4930  0.8954  0.4334
   38MOL    H4542558   3.079   7.455   1.308  1.7922  0.6796  0.2780
   38MOL    H4642559   2.947   7.517   1.412  0.5885  0.4043 -1.3084
   38MOL    H4742560   3.127   7.613   1.565  1.8329 -5.1106  1.6926
   38MOL    H4842561   3.251   7.550   1.458  1.3899  3.5619  1.7441
   38MOL    H4942562   3.026   0.050   1.360  0.2820  0.5631 -1.2219
   38MOL    H5042563   3.177   0.013   1.276 -1.9802  0.3551 -0.8855
   38MOL    H5142564   3.164   0.180   1.517 -4.0190 -1.2343 -1.4792
   38MOL    H5242565   3.307   0.109   1.453 -0.1616 -1.0407 -0.3980
   38MOL    H5342566   3.122   0.363   1.442  1.1066 -0.3037  0.6603
   38MOL    H5442567   3.019   0.483   1.229 -0.0733  1.1808 -0.0659
   38MOL    H5542568   3.176   0.458   1.164 -2.2201 -0.5373 -0.3405
   38MOL    H5642569   3.264   0.592   1.384  0.5920 -0.5462 -0.9674
   38MOL    H5742570   3.090   0.628   1.408 -1.0875  0.9321 -1.4049
   38MOL    H5842571   3.274   0.723   1.184 -1.0229 -0.5693 -0.4827
   38MOL    H5942572   3.183   0.818   1.294 -0.4320  1.1037 -1.6517
   38MOL    H6042573   3.066   0.644   1.078  0.9605 -1.0917  0.6936
   38MOL    H6142574   3.089   0.824   1.069 -0.4946 -1.5850 -0.8717
   38MOL    H6242575   2.958   0.858   1.274  2.1940 -0.2347 -0.9065
   38MOL    H6342576   2.882   0.700   1.248  0.4512  0.1425  1.4768
   38MOL    H6442577   2.836   0.761   0.996 -0.9958  1.2647 -1.0108
   38MOL    H6542578   2.873   0.921   1.048 -2.7298  1.8040  1.3107
   38MOL    H6642579   2.679   0.788   1.220  0.4545 -0.3268 -0.0116
   38MOL    C6742580   2.592   0.878   1.063  0.1895  0.0871  0.5224
   38MOL    O6842581   2.602   0.916   0.943 -0.3337 -0.0627 -0.1383
   38MOL    C6942582   2.455   0.878   1.125  0.0162  0.4167  0.0821
   38MOL    C7042583   2.399   1.020   1.116 -0.4317 -0.5315  0.5346
   38MOL    C7142584   2.271   1.038   1.210  0.2046  0.2407 -0.0484
   38MOL    C7242585   2.201   1.169   1.188 -0.5183 -0.2903  0.3756
   38MOL    C7342586   2.087   1.185   1.286  0.2987  0.4416 -0.9788
   38MOL    C7442587   2.005   1.315   1.258  0.7212 -0.0871 -0.0366
   38MOL    C7542588   1.885   1.339   1.345  1.0395  0.0761 -0.0212
   38MOL    C7642589   1.788   1.442   1.275  0.5561  0.1090 -1.2315
   38MOL    C7742590   1.667   1.483   1.358 -0.0915 -0.7998  0.3163
   38MOL    C7842591   1.557   1.371   1.387 -0.3804  0.8722 -0.3820
   38MOL    C7942592   1.455   1.407   1.493  0.5606 -0.0504 -0.4163
   38MOL    O8042593   1.437   1.521   1.509  0.2831  0.0013  0.8655
   38MOL    N8142594   1.398   1.309   1.566 -0.2064  0.2844  0.2470
   38MOL    C8242595   1.301   1.339   1.670 -0.3144  0.3072 -0.5175
   38MOL    C8342596   1.291   1.223   1.774 -0.2150 -0.3490  0.4800
   38MOL    C8442597   1.169   1.234   1.854 -0.0710  0.4045 -0.1832
   38MOL    C8542598   1.172   1.147   1.976 -0.4323 -0.0895 -0.7057
   38MOL    C8642599   1.038   1.122   2.051 -0.0271  0.3259 -0.3241
   38MOL    C8742600   0.977   1.250   2.103  0.3559  0.1324  0.0467
   38MOL    N8842601   0.831   1.256   2.089 -0.2142 -0.6909 -0.0419
   38MOL    H8942602   2.464   0.851   1.230 -0.2338  0.0401  0.0052
   38MOL    H9042603   2.391   0.808   1.072 -0.2781  0.8769 -0.1786
   38MOL    H9142604   2.466   1.101   1.142 -1.7541  0.4041  1.0447
   38MOL    H9242605   2.358   1.044   1.018 -0.7378  1.4218  1.1168
   38MOL    H9342606   2.200   0.957   1.197  1.6330 -1.3511  1.7823
   38MOL    H9442607   2.309   1.024   1.311  0.5533 -0.2110 -0.2403
   38MOL    H9542608   2.266   1.256   1.188 -0.3382 -0.4231 -0.0358
   38MOL    H9642609   2.179   1.179   1.081  2.9452  1.3326 -0.2563
   38MOL    H9742610   2.021   1.098   1.280  0.5969  0.2864 -2.1148
   38MOL    H9842611   2.141   1.187   1.381 -0.6564  1.5531 -0.4432
   38MOL    H9942612   2.077   1.395   1.272  1.3925 -0.4347 -1.3967
   38MOL   H10042613   1.968   1.299   1.157 -1.1536 -1.9699  0.9154
   38MOL   H10142614   1.906   1.378   1.444 -0.4129  1.2802 -0.1640
   38MOL   H10242615   1.842   1.240   1.358 -0.2137  0.2792 -2.2002
   38MOL   H10342616   1.841   1.538   1.267 -0.5967  0.8532 -0.1119
   38MOL   H10442617   1.754   1.401   1.179  1.2306 -1.9912 -0.5894
   38MOL   H10542618   1.616   1.570   1.317 -0.6350 -0.8690  0.8450
   38MOL   H10642619   1.697   1.524   1.454 -2.5951  0.1189  0.7416
   38MOL   H10742620   1.510   1.334   1.296 -0.5691 -2.6340  1.0499
   38MOL   H10842621   1.611   1.283   1.422 -1.4285  0.1694 -0.5036
   38MOL   H10942622   1.427   1.216   1.541  1.1872  0.9138 -0.4827
   38MOL   H11042623   1.205   1.365   1.626  0.3810  2.9167 -0.5679
   38MOL   H11142624   1.326   1.432   1.722 -0.3951 -0.4060  0.8315
   38MOL   H11242625   1.381   1.233   1.834 -0.1936  1.5059  0.1505
   38MOL   H11342626   1.283   1.125   1.726  1.8248  1.1840 -3.1931
   38MOL   H11442627   1.084   1.205   1.791 -0.2378  0.6705 -0.0829
   38MOL   H11542628   1.157   1.336   1.891  2.0973  1.6331 -2.7978
   38MOL   H11642629   1.209   1.047   1.954 -0.1803 -0.1618  0.0205
   38MOL   H11742630   1.246   1.178   2.050  0.0233  0.3209 -1.3229
   38MOL   H11842631   0.967   1.074   1.983  0.2765 -1.1636  0.4018
   38MOL   H11942632   1.040   1.062   2.142  0.4835 -0.0513 -0.5827
   38MOL   H12042633   0.994   1.257   2.211  0.7589 -2.0293  0.1468
   38MOL   H12142634   1.023   1.333   2.050  1.9307  0.1371  1.3784
   38MOL   H12242635   0.800   1.350   2.103  0.8598 -0.2237 -0.7122
   38MOL   H12342636   0.794   1.203   2.167 -2.1211 -0.0217 -0.4889
   39MOL     C142637   5.263   3.120   0.411  0.0968 -0.0122 -0.1439
   39MOL     O242638   5.350   3.045   0.363  0.0737 -0.3884 -0.7340
   39MOL     C342639   5.302   3.262   0.455  0.5549  0.2271  0.0976
   39MOL     C442640   5.459   3.276   0.448  0.7484 -0.4214  0.4888
   39MOL     C542641   5.538   3.206   0.560 -0.3330  0.0123 -0.7651
   39MOL     C642642   5.681   3.258   0.563  0.6513 -0.2396 -0.0604
   39MOL     C742643   5.765   3.208   0.442 -0.0081 -0.3164 -0.0064
   39MOL     C842644   5.799   3.059   0.451  0.6032 -0.7075  0.2158
   39MOL     C942645   5.758   2.975   0.331  0.0059  0.3313 -0.1259
   39MOL    C1042646   5.817   2.832   0.331  0.5418  0.1085  0.4496
   39MOL    C1142647   5.783   2.753   0.206  0.9562 -0.1283 -0.0980
   39MOL    C1242648   5.641   2.769   0.145  0.4300  0.0602 -0.2402
   39MOL    C1342649   5.539   2.697   0.240  0.1296  0.0760 -0.2916
   39MOL    O1442650   5.542   2.576   0.256  0.4158 -0.4088 -0.2277
   39MOL    N1542651   5.449   2.776   0.294  0.9800 -0.4474 -0.1210
   39MOL    C1642652   5.344   2.730   0.389 -0.7348 -0.8820 -0.3234
   39MOL    C1742653   5.398   2.671   0.522  0.4186 -0.3047  0.5557
   39MOL    C1842654   5.478   2.762   0.608  0.0210 -0.4724  0.0374
   39MOL    C1942655   5.537   2.687   0.731  0.3438 -0.4858  0.7290
   39MOL    C2042656   5.678   2.729   0.768 -0.2782 -0.6145  0.9190
   39MOL    C2142657   5.688   2.876   0.813 -0.5226  0.7234  0.4902
   39MOL    N2242658   5.622   2.880   0.939  0.0738  0.1054 -0.1625
   39MOL    H2342659   5.271   3.276   0.559  0.7969  1.5107  0.0021
   39MOL    H2442660   5.243   3.330   0.393 -0.6052 -0.1097  0.8155
   39MOL    H2542661   5.484   3.382   0.453  0.9043 -0.5056  1.7596
   39MOL    H2642662   5.494   3.254   0.347 -1.1116  0.9493 -0.4686
   39MOL    H2742663   5.532   3.097   0.553 -0.5918 -0.1519  1.7332
   39MOL    H2842664   5.493   3.229   0.656  0.2449 -0.7266 -0.3081
   39MOL    H2942665   5.676   3.366   0.575 -0.4292 -0.3816  0.8380
   39MOL    H3042666   5.726   3.229   0.658 -0.3780  1.2567  0.9108
   39MOL    H3142667   5.860   3.261   0.454  0.5230 -1.8335  3.2547
   39MOL    H3242668   5.722   3.227   0.344 -0.9493 -2.5337 -0.0675
   39MOL    H3342669   5.906   3.052   0.466  0.8285 -1.0160 -1.4517
   39MOL    H3442670   5.752   3.008   0.536 -0.1349 -0.2775  0.0676
   39MOL    H3542671   5.649   2.980   0.333 -0.0540 -1.1928  2.5389
   39MOL    H3642672   5.794   3.029   0.243 -1.5225 -0.1901 -1.1039
   39MOL    H3742673   5.925   2.837   0.346  0.3622 -2.6373  2.9126
   39MOL    H3842674   5.783   2.770   0.414  0.2580  0.2218  0.4196
   39MOL    H3942675   5.794   2.647   0.229 -2.7619 -0.1963  1.8897
   39MOL    H4042676   5.862   2.780   0.137  1.7360 -1.1233  0.3957
   39MOL    H4142677   5.616   2.874   0.130  0.2744 -0.2608 -2.4952
   39MOL    H4242678   5.629   2.732   0.043  1.2774 -0.0804 -0.2925
   39MOL    H4342679   5.439   2.874   0.271  2.3996 -0.3064 -0.1825
   39MOL    H4442680   5.294   2.649   0.336  0.3215 -1.7717  0.0321
   39MOL    H4542681   5.281   2.818   0.401 -0.7546 -0.8013 -1.0061
   39MOL    H4642682   5.442   2.572   0.508 -1.1792 -1.1792  1.5253
   39MOL    H4742683   5.316   2.621   0.573  1.6905 -2.8229  0.2414
   39MOL    H4842684   5.549   2.803   0.536 -1.2450 -0.0901 -1.0144
   39MOL    H4942685   5.413   2.846   0.631 -1.0638 -0.9120 -1.3293
   39MOL    H5042686   5.534   2.579   0.716 -0.7327 -0.2473 -0.8831
   39MOL    H5142687   5.470   2.697   0.816  1.7304  0.5897  1.7126
   39MOL    H5242688   5.738   2.667   0.834  3.9270 -1.0116 -3.0094
   39MOL    H5342689   5.735   2.709   0.677 -0.4627 -0.0722  0.6862
   39MOL    H5442690   5.794   2.900   0.821 -0.8527  2.0434  1.1199
   39MOL    H5542691   5.642   2.951   0.748 -0.6153  0.9318  0.7986
   39MOL    H5642692   5.528   2.841   0.946 -0.6909  2.0387  0.7138
   39MOL    H5742693   5.158   3.092   0.403 -0.0213 -0.0694  1.3979
   39MOL    C5842694   5.675   2.943   1.052 -0.2111 -0.2024  0.2540
   39MOL    O5942695   5.780   3.009   1.037  0.2561 -0.3285  0.0865
   39MOL    C6042696   5.603   2.944   1.187  0.8843  0.5077  0.1682
   39MOL    C6142697   5.599   3.080   1.264 -0.2671  0.1341 -0.1737
   39MOL    C6242698   5.605   3.065   1.422  0.1308 -0.0753  0.5367
   39MOL    C6342699   5.548   3.184   1.489  0.2717 -0.1703 -0.2677
   39MOL    C6442700   5.538   3.166   1.644 -0.8189 -0.0169 -0.4490
   39MOL    C6542701   5.455   3.278   1.718 -0.0113  0.0997 -0.0179
   39MOL    C6642702   5.314   3.283   1.666  0.0048 -0.7070 -0.4000
   39MOL    C6742703   5.217   3.378   1.741  0.5794  0.0567 -0.3247
   39MOL    C6842704   5.088   3.397   1.667  0.1422  0.1421 -1.0653
   39MOL    C6942705   4.990   3.495   1.739 -0.2378  0.1431 -0.2522
   39MOL    C7042706   4.848   3.506   1.673 -0.3252 -0.0547  0.5099
   39MOL    O7142707   4.801   3.416   1.601  0.5190 -0.3592 -0.0774
   39MOL    N7242708   4.777   3.610   1.704 -0.2615  0.4557 -0.2846
   39MOL    C7342709   4.646   3.646   1.652  0.1383  0.6091 -0.7119
   39MOL    C7442710   4.531   3.571   1.713  0.1366 -0.3557  0.5800
   39MOL    C7542711   4.510   3.604   1.861  0.3211 -0.4399  1.1974
   39MOL    C7642712   4.400   3.512   1.933 -0.5502 -0.4997 -0.0697
   39MOL    C7742713   4.447   3.374   1.975  0.6751 -0.3393 -0.0799
   39MOL    C7842714   4.329   3.298   2.028 -0.0241  0.4275 -0.3975
   39MOL    N7942715   4.255   3.359   2.141  0.2678  0.8046  0.3531
   39MOL    H8042716   5.650   2.865   1.245 -1.5622 -0.2670  1.1674
   39MOL    H8142717   5.503   2.908   1.164  0.8585 -0.8443  2.2384
   39MOL    H8242718   5.673   3.148   1.221  0.1045 -0.9665 -1.3023
   39MOL    H8342719   5.507   3.126   1.229 -0.3200  0.9074  0.9583
   39MOL    H8442720   5.706   3.050   1.461  0.0134 -1.3549  0.3747
   39MOL    H8542721   5.544   2.980   1.451  0.5595 -0.3858  0.5354
   39MOL    H8642722   5.447   3.196   1.449 -0.1382  1.6442  1.2140
   39MOL    H8742723   5.587   3.283   1.463 -0.8742  0.9593  2.1245
   39MOL    H8842724   5.486   3.071   1.661  0.1522 -0.5360 -0.3141
   39MOL    H8942725   5.637   3.155   1.689 -1.7765 -0.3461  1.6445
   39MOL    H9042726   5.497   3.377   1.698 -0.9348  0.5233  0.1375
   39MOL    H9142727   5.453   3.262   1.826 -0.9231 -0.1175 -0.0672
   39MOL    H9242728   5.267   3.185   1.652  0.6768 -0.7508 -2.4395
   39MOL    H9342729   5.325   3.328   1.568 -1.4574 -0.3713 -0.4115
   39MOL    H9442730   5.203   3.349   1.845  1.9585 -1.5639 -0.5647
   39MOL    H9542731   5.264   3.477   1.746  0.7957  0.1539 -3.3310
   39MOL    H9642732   5.045   3.297   1.663  0.3281  0.0650 -1.1795
   39MOL    H9742733   5.110   3.441   1.569 -1.6341 -0.2575 -1.6615
   39MOL    H9842734   4.975   3.462   1.842  0.9706 -0.2181 -0.1821
   39MOL    H9942735   5.037   3.593   1.748 -1.9253  1.1019 -1.4616
   39MOL   H10042736   4.822   3.681   1.761 -2.0902  0.6963  0.8954
   39MOL   H10142737   4.649   3.634   1.543  3.0719  1.2925 -0.7392
   39MOL   H10242738   4.621   3.750   1.675 -1.6658  0.0393 -0.0357
   39MOL   H10342739   4.444   3.602   1.656  0.7884 -0.1657 -0.3285
   39MOL   H10442740   4.547   3.464   1.697  0.2768 -0.4902  1.5938
   39MOL   H10542741   4.477   3.708   1.863  2.2308  0.1665  2.2694
   39MOL   H10642742   4.607   3.597   1.911  1.4261  0.0792 -0.8017
   39MOL   H10742743   4.358   3.555   2.025  1.8139  0.6141  0.5139
   39MOL   H10842744   4.318   3.496   1.863 -1.7518  0.8538  0.9853
   39MOL   H10942745   4.524   3.380   2.053  2.2804 -0.8139 -1.6013
   39MOL   H11042746   4.496   3.315   1.898  0.8248  1.1806 -1.1806
   39MOL   H11142747   4.366   3.199   2.056  0.2147  0.5956 -0.1228
   39MOL   H11242748   4.260   3.289   1.944 -1.0774  1.1114  0.3810
   39MOL   H11342749   4.176   3.420   2.124 -1.0880 -1.0873 -0.2611
   39MOL   C11442750   4.272   3.348   2.274  0.1826  0.5570 -0.4639
   39MOL   O11542751   4.364   3.286   2.322 -0.0172  0.0297  0.6724
   39MOL   C11642752   4.154   3.401   2.358  0.1751  0.1623  0.0325
   39MOL   C11742753   4.102   3.296   2.453 -0.1060  0.2142  0.3679
   39MOL   C11842754   3.966   3.321   2.523  0.1493  0.3033  0.1427
   39MOL   C11942755   3.975   3.441   2.615  0.3395 -0.4364  0.1128
   39MOL   C12042756   3.853   3.479   2.701  0.0332 -0.5307  0.2899
   39MOL   C12142757   3.870   3.618   2.768 -0.2226  0.0206  0.1250
   39MOL   C12242758   3.772   3.659   2.880 -0.7265  0.1017 -0.1859
   39MOL   C12342759   3.778   3.815   2.888 -0.1949  0.7360 -0.0475
   39MOL   C12442760   3.693   3.868   2.998 -0.7355 -0.0319 -0.8443
   39MOL   C12542761   3.702   4.019   3.016  0.0274 -0.5994  0.1061
   39MOL   C12642762   3.624   4.103   2.912 -0.2093  0.3110 -0.3943
   39MOL   O12742763   3.678   4.130   2.803 -0.5908 -0.3369 -0.1524
   39MOL   N12842764   3.502   4.162   2.950 -0.0326  0.4634  0.9261
   39MOL   C12942765   3.428   4.237   2.848 -0.2689  0.2196 -0.0265
   39MOL   C13042766   3.280   4.233   2.876 -0.3943  0.2482 -0.7699
   39MOL   C13142767   3.198   4.268   2.757  0.1732 -0.2249  0.1644
   39MOL   C13242768   3.048   4.235   2.773 -0.2675 -0.3864 -0.2291
   39MOL   C13342769   2.960   4.206   2.652 -0.3467 -0.1138  0.2872
   39MOL   C13442770   2.990   4.296   2.531 -0.2180 -0.0815  0.6020
   39MOL   N13542771   2.904   4.278   2.412  0.4078  0.0010  0.4007
   39MOL   H13642772   4.178   3.499   2.401 -1.8624  0.9056 -0.4883
   39MOL   H13742773   4.078   3.432   2.287 -0.7361 -3.4619 -0.6676
   39MOL   H13842774   4.178   3.268   2.526  0.5260 -0.4113 -0.5191
   39MOL   H13942775   4.086   3.204   2.398 -2.7630  0.1325  1.2025
   39MOL   H14042776   3.897   3.348   2.444 -0.5306  1.0016  0.9690
   39MOL   H14142777   3.933   3.231   2.575  0.8961 -1.5681 -2.4650
   39MOL   H14242778   4.051   3.412   2.687  0.1083 -0.3391  0.3956
   39MOL   H14342779   4.013   3.530   2.565 -1.1912  1.2117  1.8277
   39MOL   H14442780   3.764   3.480   2.637  0.4479 -0.0779 -0.2813
   39MOL   H14542781   3.833   3.413   2.786 -1.7067  0.3989  0.6351
   39MOL   H14642782   3.863   3.687   2.685  0.1640 -0.8958 -0.6797
   39MOL   H14742783   3.969   3.627   2.814 -0.4740  0.4334  0.5966
   39MOL   H14842784   3.675   3.626   2.844  0.2976 -2.2948 -0.8052
   39MOL   H14942785   3.789   3.604   2.972 -0.8493 -0.1958 -0.3410
   39MOL   H15042786   3.746   3.872   2.801  1.9613  0.8987 -0.7592
   39MOL   H15142787   3.880   3.847   2.912 -0.9195  0.5729  3.6074
   39MOL   H15242788   3.714   3.825   3.096  0.4636  2.0648 -0.1605
   39MOL   H15342789   3.592   3.837   2.972  0.6534 -2.0884 -4.0463
   39MOL   H15442790   3.805   4.048   2.998 -0.9599  2.6542 -0.8277
   39MOL   H15542791   3.688   4.052   3.119  1.7033 -0.4382  0.2966
   39MOL   H15642792   3.451   4.138   3.033  1.3654  0.2134  1.7221
   39MOL   H15742793   3.439   4.200   2.746 -2.1914 -0.2092 -0.1082
   39MOL   H15842794   3.481   4.330   2.827  1.7937 -1.0247 -0.4794
   39MOL   H15942795   3.243   4.303   2.951 -1.0044 -2.5422  1.6260
   39MOL   H16042796   3.254   4.129   2.896  0.7341  0.1251  0.0865
   39MOL   H16142797   3.205   4.368   2.715  0.5798 -0.6099 -0.7134
   39MOL   H16242798   3.229   4.206   2.673 -1.4936  0.3359 -0.8857
   39MOL   H16342799   3.033   4.143   2.829  0.4129 -0.1093  0.4147
   39MOL   H16442800   3.003   4.309   2.839  2.6867  2.0045 -0.7545
   39MOL   H16542801   2.856   4.214   2.684 -0.3402  3.2139 -0.3233
   39MOL   H16642802   2.979   4.102   2.626  1.5790  0.6947 -1.6809
   39MOL   H16742803   2.977   4.401   2.558  2.0305  0.8340 -1.6665
   39MOL   H16842804   3.095   4.280   2.506 -0.6232  0.8708 -1.8371
   39MOL   H16942805   2.852   4.191   2.413  0.9620 -0.3403  2.4752
   39MOL   C17042806   2.915   4.351   2.299 -0.2028 -0.4527 -0.1262
   39MOL   O17142807   2.964   4.464   2.291 -0.1485 -0.6073 -0.5359
   39MOL   C17242808   2.849   4.285   2.172 -1.1228 -0.2209  0.5944
   39MOL   C17342809   2.749   4.376   2.096  1.1725 -0.0796  0.0153
   39MOL   C17442810   2.618   4.395   2.175  0.3013 -0.1322 -0.0885
   39MOL   C17542811   2.538   4.498   2.098  0.4370 -0.2073 -0.6683
   39MOL   C17642812   2.413   4.544   2.171  1.1224 -0.1307  0.2468
   39MOL   C17742813   2.434   4.618   2.301  0.9616 -0.1268  0.1589
   39MOL   C17842814   2.306   4.684   2.343  1.0071  0.0266  0.3447
   39MOL   C17942815   2.310   4.746   2.484  0.6425  0.4039  0.1047
   39MOL   C18042816   2.167   4.793   2.535 -0.3647  0.6510  0.8364
   39MOL   C18142817   2.175   4.862   2.672 -0.2056 -0.0058  0.1345
   39MOL   C18242818   2.271   4.980   2.673  0.3820  0.0866  0.1127
   39MOL   O18342819   2.232   5.080   2.615  0.5296 -0.1682  0.2327
   39MOL   N18442820   2.379   4.979   2.756  0.4364 -0.0602 -0.1004
   39MOL   C18542821   2.479   5.084   2.782 -0.1528  0.5645 -0.0073
   39MOL   C18642822   2.575   5.101   2.671  0.1708  0.2886  0.8279
   39MOL   C18742823   2.659   5.229   2.692  0.3657  0.1156 -0.0155
   39MOL   C18842824   2.752   5.245   2.576  0.2679  0.4931  0.2566
   39MOL   C18942825   2.836   5.375   2.577  0.2454 -0.7250 -0.0779
   39MOL   C19042826   2.984   5.356   2.629 -0.4441  0.4309  0.0132
   39MOL   N19142827   3.072   5.456   2.570 -0.7145  0.3589  0.2978
   39MOL   H19242828   2.925   4.240   2.108 -1.3723  0.4831 -0.1987
   39MOL   H19342829   2.794   4.196   2.202  0.4833 -1.5847 -0.4473
   39MOL   H19442830   2.715   4.330   2.004 -0.0645 -0.0016  0.4258
   39MOL   H19542831   2.786   4.474   2.066  2.3199 -0.2468  0.8192
   39MOL   H19642832   2.635   4.434   2.275  0.9167 -0.0687 -0.2151
   39MOL   H19742833   2.560   4.303   2.173  0.8800 -0.4893 -0.5235
   39MOL   H19842834   2.609   4.578   2.076  0.4840 -0.2189 -0.5541
   39MOL   H19942835   2.513   4.452   2.002  0.8683 -0.1591 -0.8033
   39MOL   H20042836   2.342   4.595   2.106  0.6617  0.4496  1.1879
   39MOL   H20142837   2.363   4.449   2.187 -0.1299  0.5514  0.3956
   39MOL   H20242838   2.515   4.691   2.291  0.3946  0.6104  0.8478
   39MOL   H20342839   2.468   4.552   2.381  0.1284  3.0348  3.2525
   39MOL   H20442840   2.284   4.762   2.270 -1.1550 -1.5856 -0.8099
   39MOL   H20542841   2.224   4.612   2.338  0.8933  0.2398 -0.8910
   39MOL   H20642842   2.349   4.671   2.553 -0.0418  0.9819  1.1211
   39MOL   H20742843   2.377   4.832   2.476  0.2678  0.7978  1.2334
   39MOL   H20842844   2.102   4.706   2.539  0.6795 -0.1549  0.3843
   39MOL   H20942845   2.121   4.861   2.463  1.8567  0.4982 -0.7863
   39MOL   H21042846   2.073   4.873   2.708  0.2391  0.7253  1.1962
   39MOL   H21142847   2.213   4.786   2.741 -2.9970  0.8864  2.7733
   39MOL   H21242848   2.386   4.900   2.818 -0.1520 -0.6772 -0.8151
   39MOL   H21342849   2.541   5.066   2.870  0.0315  1.5390  0.0766
   39MOL   H21442850   2.419   5.174   2.798  0.0822  0.5845  0.7930
   39MOL   H21542851   2.646   5.019   2.669 -1.1125 -0.8407  0.5723
   39MOL   H21642852   2.542   5.093   2.567  0.8940 -2.4085  0.7872
   39MOL   H21742853   2.589   5.311   2.708  1.1163  0.2457  2.7611
   39MOL   H21842854   2.723   5.224   2.780  0.8173 -1.2639 -0.4136
   39MOL   H21942855   2.691   5.253   2.486 -1.0458  0.6495  1.1489
   39MOL   H22042856   2.809   5.157   2.548 -1.1760  0.7323 -3.7510
   39MOL   H22142857   2.792   5.439   2.653 -1.5218  0.7491 -2.2619
   39MOL   H22242858   2.834   5.419   2.477  0.6689 -1.7442 -0.5409
   39MOL   H22342859   3.022   5.264   2.586  1.4668  1.1344  0.1807
   39MOL   H22442860   2.999   5.335   2.735 -0.1208 -0.7367 -0.2652
   39MOL   H22542861   3.103   5.445   2.474  0.5958  0.3536  0.7129
   39MOL   C22642862   3.085   5.578   2.622 -0.8128  0.1597 -0.1270
   39MOL   O22742863   3.064   5.596   2.741 -0.1717 -0.0006 -0.5459
   39MOL   C22842864   3.144   5.692   2.542  0.1026  0.0379 -0.6987
   39MOL   C22942865   3.064   5.820   2.571  0.2446 -0.2777  1.1111
   39MOL   C23042866   2.911   5.816   2.533 -0.2583 -0.2664 -0.3067
   39MOL   C23142867   2.878   5.750   2.405  0.0267 -0.1526  0.1318
   39MOL   C23242868   2.732   5.761   2.355 -0.7599 -0.2692 -0.1444
   39MOL   C23342869   2.632   5.696   2.452  0.0438 -0.4118 -0.1668
   39MOL   C23442870   2.501   5.671   2.388 -0.1988  0.5918  0.2915
   39MOL   C23542871   2.424   5.557   2.465 -0.3156 -0.5711  0.5442
   39MOL   C23642872   2.287   5.524   2.410  0.0251 -0.6411  0.2789
   39MOL   C23742873   2.202   5.433   2.499  0.2630 -0.2361 -0.4124
   39MOL   C23842874   2.103   5.357   2.414  0.0772 -0.0008 -0.4589
   39MOL   O23942875   2.040   5.420   2.326  0.4783  0.2639 -0.5440
   39MOL   N24042876   2.096   5.225   2.440 -0.6377  0.2491  0.2194
   39MOL   C24142877   2.003   5.134   2.374 -0.1720  0.1072 -0.5750
   39MOL   C24242878   1.897   5.089   2.479  0.7366 -0.2489 -0.0473
   39MOL   C24342879   1.808   5.205   2.534 -0.5559 -0.7630  0.3194
   39MOL   C24442880   1.724   5.268   2.424  0.3306  0.3029  0.4555
   39MOL   C24542881   1.596   5.330   2.467 -0.0259  0.5199 -0.3502
   39MOL   C24642882   1.514   5.380   2.350 -0.0638 -0.5175  0.7899
   39MOL   N24742883   1.383   5.436   2.396 -0.0316  0.3176  0.1981
   39MOL   H24842884   3.136   5.655   2.440  2.8548 -0.2537 -0.8425
   39MOL   H24942885   3.250   5.703   2.564  0.2621 -1.4735 -0.6621
   39MOL   H25042886   3.071   5.850   2.675 -1.2992  1.2668  0.7955
   39MOL   H25142887   3.116   5.900   2.518 -2.5105 -0.3275 -1.8625
   39MOL   H25242888   2.864   5.760   2.613  1.5114  0.6896  1.4498
   39MOL   H25342889   2.865   5.915   2.536 -1.1093 -0.7033  1.2841
   39MOL   H25442890   2.911   5.646   2.412  0.9337 -0.0625 -2.4688
   39MOL   H25542891   2.943   5.789   2.326  0.9046 -1.4179  0.2116
   39MOL   H25642892   2.716   5.718   2.256  1.0715 -0.7945 -0.2168
   39MOL   H25742893   2.710   5.867   2.340  0.5377  0.0229 -0.0196
   39MOL   H25842894   2.670   5.608   2.503 -0.8157 -1.9942 -2.2013
   39MOL   H25942895   2.629   5.763   2.538  0.4287  0.3599 -0.7436
   39MOL   H26042896   2.512   5.648   2.282 -2.1439  0.5073  0.0985
   39MOL   H26142897   2.445   5.764   2.399 -1.1966 -0.0127  0.3625
   39MOL   H26242898   2.484   5.467   2.455 -1.0362 -1.3440  2.7376
   39MOL   H26342899   2.407   5.576   2.571 -1.5111  0.7686  0.1386
   39MOL   H26442900   2.234   5.617   2.394 -2.2948 -2.4564 -3.2397
   39MOL   H26542901   2.300   5.480   2.310  1.4477 -0.1899  0.2501
   39MOL   H26642902   2.259   5.358   2.554 -0.6152  0.1770  1.0739
   39MOL   H26742903   2.136   5.483   2.570  0.9831  0.0566  0.0552
   39MOL   H26842904   2.161   5.189   2.508 -1.7110  0.8927  1.6197
   39MOL   H26942905   2.069   5.051   2.349 -0.4929  0.4443 -2.6287
   39MOL   H27042906   1.954   5.181   2.289 -0.2802  1.7524  0.3882
   39MOL   H27142907   1.946   5.039   2.562 -0.8223  0.0726  1.0925
   39MOL   H27242908   1.836   5.008   2.439  0.0281 -0.5381  1.5801
   39MOL   H27342909   1.742   5.164   2.611  0.2115 -3.2697 -0.3190
   39MOL   H27442910   1.869   5.276   2.590  0.9636 -1.6722 -0.1774
   39MOL   H27542911   1.701   5.199   2.343 -0.0615  1.7115 -0.6582
   39MOL   H27642912   1.793   5.335   2.373  1.0351  0.3298  1.4316
   39MOL   H27742913   1.618   5.419   2.526  1.3171 -1.7487  2.7379
   39MOL   H27842914   1.538   5.274   2.541  1.1650 -0.6073 -0.2551
   39MOL   H27942915   1.500   5.293   2.286  1.9412 -1.5736  1.7234
   39MOL   H28042916   1.560   5.458   2.290 -1.7988 -0.7530 -0.9109
   39MOL   H28142917   1.377   5.534   2.418  0.3506  0.8788 -2.0661
   39MOL   C28242918   1.266   5.386   2.353  0.8650  0.5451  0.1381
   39MOL   O28342919   1.258   5.275   2.302  0.8596  0.1873  0.3327
   39MOL   C28442920   1.142   5.472   2.373 -0.3662 -0.1577 -0.5101
   39MOL   C28542921   1.077   5.528   2.247  0.4706 -0.1031 -0.0766
   39MOL   C28642922   1.146   5.626   2.157  0.0034  0.8359 -0.0024
   39MOL   C28742923   1.057   5.681   2.043  0.1337 -0.0894  0.1710
   39MOL   C28842924   0.973   5.803   2.094  0.6136  0.0804  0.4416
   39MOL   C28942925   0.905   5.891   1.988 -0.3893  0.5407  0.2274
   39MOL   C29042926   0.819   5.985   2.057 -0.0664 -0.0428  0.5499
   39MOL   C29142927   0.736   6.072   1.970 -0.6265 -0.0341  0.1051
   39MOL   C29242928   0.667   6.179   2.045  0.0064 -0.0602 -0.0225
   39MOL   C29342929   0.566   6.267   1.955 -0.7349  0.2508  0.4530
   39MOL   C29442930   0.433   6.204   1.937  0.4672  0.3567 -0.5291
   39MOL   O29542931   0.403   6.159   1.826 -0.4776  0.4225 -0.4883
   39MOL   N29642932   0.345   6.221   2.038  0.3762 -0.3025  0.7351
   39MOL   C29742933   0.203   6.177   2.025  0.1443  0.3026 -0.4457
   39MOL   C29842934   0.121   6.242   2.136 -0.0145  0.2331 -0.1265
   39MOL   C29942935   0.167   6.184   2.273 -0.7797 -0.1467 -0.0947
   39MOL   C30042936   0.093   6.236   2.394  0.1683  0.1862 -0.8642
   39MOL   C30142937   0.163   6.206   2.526 -0.0853  0.3458 -0.1071
   39MOL   C30242938   0.083   6.254   2.647 -0.2721 -0.3539  0.0963
   39MOL   N30342939   7.644   6.180   2.655 -0.3301  0.0618 -0.1256
   39MOL   H30442940   1.070   5.433   2.444  0.7633 -0.1024  0.6850
   39MOL   H30542941   1.181   5.553   2.435 -1.7845  0.2608 -0.1548
   39MOL   H30642942   0.974   5.555   2.271 -0.0864 -1.4006 -1.0123
   39MOL   H30742943   1.053   5.442   2.185 -0.0951  0.4773 -0.6603
   39MOL   H30842944   1.196   5.705   2.214 -1.8346  0.6360  1.9546
   39MOL   H30942945   1.225   5.572   2.103 -0.1852 -0.3364  0.8692
   39MOL   H31042946   1.002   5.595   2.007 -0.8866  0.2608  0.8411
   39MOL   H31142947   1.125   5.712   1.964 -1.7852  0.1394 -1.4205
   39MOL   H31242948   0.905   5.778   2.175 -0.0404  1.2478  0.2577
   39MOL   H31342949   1.042   5.857   2.159 -1.3414  3.0810  0.0742
   39MOL   H31442950   0.980   5.939   1.925 -0.9301 -0.2519 -1.0199
   39MOL   H31542951   0.836   5.829   1.931 -0.9841  0.4190  1.0654
   39MOL   H31642952   0.878   6.050   2.121 -1.1844  0.2220  1.3373
   39MOL   H31742953   0.750   5.925   2.117  0.8662 -2.6938 -0.9593
   39MOL   H31842954   0.667   6.001   1.923 -1.4299  0.2113  0.9040
   39MOL   H31942955   0.803   6.108   1.893  0.5336  0.5311  1.3814
   39MOL   H32042956   0.615   6.124   2.123  0.7633 -1.6945 -0.6597
   39MOL   H32142957   0.736   6.246   2.095  0.1903  1.2430 -1.9646
   39MOL   H32242958   0.562   6.357   2.016  2.6338  1.1861 -0.6318
   39MOL   H32342959   0.598   6.304   1.858  1.6304 -2.1398  0.2800
   39MOL   H32442960   0.363   6.281   2.118 -0.5221  2.0590 -0.7572
   39MOL   H32542961   0.183   6.070   2.025 -4.1737  1.0336 -1.4101
   39MOL   H32642962   0.169   6.200   1.924  0.0468  1.7648 -0.0831
   39MOL   H32742963   0.016   6.221   2.114 -0.0476  0.4085 -0.1381
   39MOL   H32842964   0.129   6.351   2.130  0.6855  0.3181  1.9617
   39MOL   H32942965   0.271   6.211   2.292  0.0590 -2.0244 -1.9315
   39MOL   H33042966   0.173   6.076   2.275  0.1285 -0.0812  1.3505
   39MOL   H33142967   0.090   6.345   2.391  2.2403  0.2243 -2.2635
   39MOL   H33242968   7.685   6.192   2.398  1.4613 -2.7046  1.0524
   39MOL   H33342969   0.253   6.265   2.542 -1.1051  2.2354 -1.0047
   39MOL   H33442970   0.187   6.101   2.541  0.9843  0.6579  0.3829
   39MOL   H33542971   0.141   6.239   2.739  1.3743  3.1707 -0.2717
   39MOL   H33642972   0.078   6.363   2.642  0.2733 -0.2941  0.7021
   39MOL   H33742973   7.643   6.085   2.622  1.9871 -0.4636  1.1977
   39MOL   C33842974   7.546   6.210   2.741 -0.4844  0.0330  0.7455
   39MOL   O33942975   7.549   6.311   2.814  1.0655  0.2787  0.5468
   39MOL   C34042976   7.426   6.112   2.765 -0.5455 -0.0226  0.0059
   39MOL   C34142977   7.316   6.176   2.848  0.1652 -0.7440 -0.7741
   39MOL   C34242978   7.197   6.087   2.872 -0.2244  0.6454 -0.0283
   39MOL   C34342979   7.097   6.165   2.964 -0.4624  0.4906 -0.1802
   39MOL   C34442980   6.995   6.082   3.050  0.5305  0.1354  0.6607
   39MOL   C34542981   6.938   5.960   2.978  1.0813  0.1641 -0.0731
   39MOL   C34642982   6.830   5.894   3.067 -0.2260  0.1347 -0.6877
   39MOL   C34742983   6.746   5.798   2.991 -0.0770  0.8431 -0.3098
   39MOL   C34842984   6.608   5.781   3.052 -0.1472 -0.5875 -0.6573
   39MOL   C34942985   6.503   5.705   2.964 -0.6095 -0.2002  0.4048
   39MOL   C35042986   6.400   5.803   2.896 -0.2509  0.0384 -0.7019
   39MOL   O35142987   6.384   5.918   2.934  0.0264 -0.2040  0.1717
   39MOL   N35242988   6.336   5.757   2.786 -0.0630  0.4312 -0.0105
   39MOL   C35342989   6.333   5.617   2.733  0.4312  0.0901 -0.0874
   39MOL   C35442990   6.210   5.591   2.637  0.4918 -0.1634  0.2134
   39MOL   C35542991   6.064   5.627   2.673 -0.5505  0.3044 -0.0389
   39MOL   C35642992   6.027   5.573   2.806 -0.5190 -0.0658 -0.5449
   39MOL   C35742993   6.022   5.423   2.804  0.1960 -0.0838 -0.6024
   39MOL   C35842994   5.975   5.359   2.932  0.0060  0.3628 -0.2589
   39MOL   N35942995   5.965   5.217   2.913 -0.2828 -0.4534 -0.1090
   39MOL   H36042996   7.454   6.014   2.802  2.9356  0.7789 -0.3425
   39MOL   H36142997   7.397   6.101   2.660  1.4788  1.3453 -0.7282
   39MOL   H36242998   7.353   6.197   2.948  0.1763 -2.1333 -0.4789
   39MOL   H36342999   7.277   6.268   2.803  0.7379 -0.3381 -0.4526
   39MOL   H36443000   7.228   5.991   2.914 -0.7328 -0.8597 -2.9939
   39MOL   H36543001   7.143   6.065   2.781 -4.0855 -0.3667  2.3682
   39MOL   H36643002   7.147   6.241   3.023  2.0793 -1.2644 -0.0012
   39MOL   H36743003   7.044   6.225   2.890  2.4396  1.4716 -1.5502
   39MOL   H36843004   7.045   6.046   3.140 -4.3342  0.1305  3.5193
   39MOL   H36943005   6.916   6.149   3.084 -0.3837 -0.8778  0.5439
   39MOL   H37043006   6.891   5.984   2.883  1.3662 -0.0947 -0.2782
   39MOL   H37143007   6.999   5.874   2.953 -1.3947 -1.3371 -1.0482
   39MOL   H37243008   6.879   5.853   3.155  1.5801  1.6691 -0.9576
   39MOL   H37343009   6.769   5.978   3.099  0.6742  0.9961 -1.2223
   39MOL   H37443010   6.741   5.836   2.889  0.1359  2.3868  0.2472
   39MOL   H37543011   6.791   5.699   2.984  0.2161  0.8684  0.9834
   39MOL   H37643012   6.568   5.873   3.094 -2.0008 -0.8578 -1.7583
   39MOL   H37743013   6.622   5.718   3.140  0.6418  2.2705  1.3085
   39MOL   H37843014   6.546   5.630   2.898  1.2093  0.3618  0.9148
   39MOL   H37943015   6.439   5.649   3.032  0.2053 -3.6279 -1.5261
   39MOL   H38043016   6.261   5.818   2.756  0.1844  0.0188 -1.4830
   39MOL   H38143017   6.326   5.541   2.811 -0.5229 -0.1849 -0.4285
   39MOL   H38243018   6.427   5.597   2.682  1.4880  1.5199  1.2786
   39MOL   H38343019   6.216   5.486   2.608 -0.1331  0.0190 -0.6095
   39MOL   H38443020   6.240   5.654   2.553 -1.4391  0.1168 -0.3027
   39MOL   H38543021   6.053   5.735   2.673 -2.0962  0.1767  1.7870
   39MOL   H38643022   5.991   5.591   2.600  0.9090  0.5352 -1.6363
   39MOL   H38743023   6.101   5.591   2.884 -1.0293 -0.6705  0.0832
   39MOL   H38843024   5.934   5.614   2.845 -1.1613 -1.9364 -0.0804
   39MOL   H38943025   6.119   5.385   2.771  0.7741 -0.1039  1.0725
   39MOL   H39043026   5.960   5.393   2.720 -1.1224  1.7994 -0.3368
   39MOL   H39143027   6.054   5.378   3.004  0.3546  2.5827 -1.1913
   39MOL   H39243028   5.876   5.392   2.966 -0.3716  0.0436 -1.0451
   39MOL   H39343029   6.053   5.169   2.921  1.0388  1.5909 -1.7931
   39MOL   C39443030   5.854   5.142   2.908 -0.1323 -0.5211  0.9117
   39MOL   O39543031   5.741   5.189   2.908  1.0141  0.0917  0.0672
   39MOL   C39643032   5.876   4.993   2.898  0.5231  0.4924  0.4757
   39MOL   C39743033   5.791   4.927   2.787 -0.4079 -0.2612 -0.6305
   39MOL   C39843034   5.656   4.876   2.840  0.4368  0.6143 -0.1161
   39MOL   C39943035   5.644   4.741   2.917  0.0012 -0.4401 -0.6402
   39MOL   C40043036   5.495   4.699   2.947 -0.0745  0.1767  0.2495
   39MOL   C40143037   5.423   4.790   3.048 -0.6399  0.9067  0.5223
   39MOL   C40243038   5.472   4.771   3.191 -0.1544 -0.9722  0.0968
   39MOL   C40343039   5.393   4.873   3.278 -0.8989  0.0582 -0.2673
   39MOL   C40443040   5.441   4.896   3.425 -0.5613  0.4239  1.0793
   39MOL   C40543041   5.366   5.016   3.491 -0.3058 -0.3931 -0.1296
   39MOL   C40643042   5.457   5.078   3.596 -1.2548 -0.1820 -0.3085
   39MOL   O40743043   5.473   5.017   3.700 -0.0516  0.1618 -0.2056
   39MOL   N40843044   5.522   5.194   3.572  0.1386  0.4156 -0.4685
   39MOL   C40943045   5.613   5.254   3.667 -0.2595 -0.1317  0.8188
   39MOL   C41043046   5.761   5.221   3.648  0.3817 -0.5638 -0.4318
   39MOL   C41143047   5.852   5.265   3.758  0.6645  0.6510 -0.5836
   39MOL   C41243048   5.991   5.216   3.741 -0.6324  0.3042  0.4210
   39MOL   C41343049   6.012   5.080   3.793  0.4268  0.3378  0.3141
   39MOL   C41443050   6.118   5.079   3.895  0.3953 -0.0969 -0.1430
   39MOL   N41543051   6.144   4.940   3.954  0.1727  0.0228 -0.3283
   39MOL   H41643052   5.852   4.951   2.995 -1.4443  2.2508  0.7878
   39MOL   H41743053   5.982   4.970   2.882  0.3352 -0.1494  0.1762
   39MOL   H41843054   5.853   4.845   2.750  0.4439 -0.3208  0.9098
   39MOL   H41943055   5.778   5.000   2.707  0.0183  1.7526  1.1004
   39MOL   H42043056   5.585   4.872   2.757 -1.3621  0.5510  1.4097
   39MOL   H42143057   5.619   4.960   2.899  0.6847 -0.3902  1.4896
   39MOL   H42243058   5.707   4.734   3.006  2.0537  2.6813 -1.7615
   39MOL   H42343059   5.685   4.669   2.846 -0.8515 -2.5565  0.9616
   39MOL   H42443060   5.441   4.688   2.853  0.5132  0.0206 -0.0716
   39MOL   H42543061   5.492   4.598   2.988 -2.3839 -0.0720 -0.4928
   39MOL   H42643062   5.456   4.892   3.031 -0.7409  0.6813 -1.0478
   39MOL   H42743063   5.314   4.789   3.040 -0.7384 -1.1440  1.7116
   39MOL   H42843064   5.448   4.673   3.233  0.7967 -0.8588  0.9416
   39MOL   H42943065   5.579   4.793   3.197 -0.2077 -1.1089  2.1160
   39MOL   H43043066   5.403   4.973   3.237  0.6118  0.2015  0.4150
   39MOL   H43143067   5.288   4.841   3.284 -0.8377  0.1426  1.5231
   39MOL   H43243068   5.548   4.911   3.419 -0.4893  0.3110  2.0169
   39MOL   H43343069   5.416   4.808   3.484  0.9484  0.6034  1.9964
   39MOL   H43443070   5.329   5.091   3.422 -0.2482  0.3388  0.6349
   39MOL   H43543071   5.277   4.981   3.544  0.3364  1.5017  2.2623
   39MOL   H43643072   5.502   5.241   3.484  0.1436 -0.4151 -0.9220
   39MOL   H43743073   5.581   5.236   3.770  1.7552  1.7957  1.8100
   39MOL   H43843074   5.609   5.361   3.649 -0.7100 -0.4124 -0.9000
   39MOL   H43943075   5.800   5.254   3.552 -1.9021  2.0878 -0.4999
   39MOL   H44043076   5.762   5.112   3.650  0.0009 -0.5550  0.1969
   39MOL   H44143077   5.848   5.373   3.772 -1.8995  0.5928 -0.5300
   39MOL   H44243078   5.812   5.236   3.855  2.2882 -0.7588 -0.3065
   39MOL   H44343079   6.025   5.227   3.638  0.7303  1.3873  0.9696
   39MOL   H44443080   6.062   5.281   3.792  0.4049 -0.5595  0.0876
   39MOL   H44543081   5.920   5.030   3.823 -0.0779  1.1137  0.0521
   39MOL   H44643082   6.047   5.013   3.713  0.4642  0.3422  0.3271
   39MOL   H44743083   6.212   5.128   3.869  0.5499  0.7681  1.9493
   39MOL   H44843084   6.080   5.140   3.977  3.0296 -0.2356  1.2284
   39MOL   H44943085   6.228   4.891   3.927 -0.1389 -1.0086  0.5191
   39MOL   C45043086   6.072   4.889   4.055  0.2960 -0.1864  0.1356
   39MOL   O45143087   5.972   4.951   4.092 -0.0463  0.4686 -0.3850
   39MOL   C45243088   6.122   4.760   4.130 -0.1980 -0.5317  0.1587
   39MOL   C45343089   6.165   4.781   4.280  0.0583 -0.6387 -0.4717
   39MOL   C45443090   6.284   4.871   4.295 -0.2464  0.8385 -0.0306
   39MOL   C45543091   6.309   4.889   4.447 -0.6705 -1.1353  0.1218
   39MOL   C45643092   6.421   4.986   4.481 -0.3506 -0.2304 -0.2698
   39MOL   C45743093   6.380   5.136   4.468 -0.1498  0.1056  0.1848
   39MOL   C45843094   6.316   5.211   4.587 -0.3250  0.2645  0.2296
   39MOL   C45943095   6.260   5.353   4.572  0.5191  0.7526 -0.1787
   39MOL   C46043096   6.356   5.456   4.507  0.2488  0.1696  0.4827
   39MOL   C46143097   6.464   5.508   4.604 -0.2382  0.1451  0.1709
   39MOL   C46243098   6.546   5.620   4.535  0.3079 -0.9239  0.9163
   39MOL   O46343099   6.509   5.662   4.426  0.0582 -0.3916 -0.1395
   39MOL   N46443100   6.652   5.666   4.599  0.1657 -0.3026 -0.1737
   39MOL   C46543101   6.750   5.758   4.554 -0.1381  0.9507 -0.5077
   39MOL   C46643102   6.714   5.897   4.594  0.5855 -0.3455  0.8391
   39MOL   C46743103   6.694   5.916   4.751  0.5588 -0.5816 -0.0383
   39MOL   C46843104   6.665   6.067   4.789 -0.4486 -0.0011  0.2519
   39MOL   C46943105   6.660   6.079   4.938  0.0148  0.5103  0.1492
   39MOL   C47043106   6.609   6.209   4.985  0.5895  0.1541 -0.2761
   39MOL   N47143107   6.691   6.320   4.951 -0.4058 -0.1529 -0.1087
   39MOL   H47243108   6.040   4.689   4.125 -0.2755 -0.7663  3.3355
   39MOL   H47343109   6.212   4.725   4.080  1.1733  0.5441  1.7844
   39MOL   H47443110   6.172   4.690   4.338 -1.6965  0.0944  0.9227
   39MOL   H47543111   6.077   4.829   4.322 -0.2963 -2.3736  0.7908
   39MOL   H47643112   6.260   4.970   4.256 -1.3314  0.5933  0.0146
   39MOL   H47743113   6.369   4.834   4.238 -0.3345  1.7293 -0.7471
   39MOL   H47843114   6.339   4.795   4.493  2.3490 -1.1611 -1.7557
   39MOL   H47943115   6.216   4.920   4.496 -0.6385 -0.6988 -0.0923
   39MOL   H48043116   6.502   4.955   4.415  1.2193  1.8563  0.6125
   39MOL   H48143117   6.454   4.962   4.583 -0.5733  0.7290  0.0346
   39MOL   H48243118   6.318   5.152   4.380  1.1081 -0.9219 -0.9218
   39MOL   H48343119   6.470   5.194   4.444 -0.0908  0.6595  1.6902
   39MOL   H48443120   6.230   5.154   4.622  0.7695 -0.5999  1.5849
   39MOL   H48543121   6.387   5.198   4.669 -0.8251 -0.1822  0.5954
   39MOL   H48643122   6.168   5.331   4.518  0.6392  0.8825 -0.4372
   39MOL   H48743123   6.224   5.386   4.670  1.8726  3.2027 -0.4775
   39MOL   H48843124   6.295   5.540   4.473 -2.7552 -0.7029  3.4414
   39MOL   H48943125   6.406   5.407   4.423 -0.1998  0.7166 -0.1044
   39MOL   H49043126   6.411   5.548   4.691 -0.9423 -0.7638  0.1674
   39MOL   H49143127   6.523   5.422   4.636  0.5117 -0.3637 -2.4996
   39MOL   H49243128   6.674   5.618   4.685 -0.3194  1.4029  0.9347
   39MOL   H49343129   6.756   5.755   4.445  1.1861 -1.6162 -0.3957
   39MOL   H49443130   6.847   5.734   4.598  0.1863  1.1757 -1.0844
   39MOL   H49543131   6.790   5.970   4.567 -0.2740 -0.2735 -1.4893
   39MOL   H49643132   6.630   5.929   4.533  0.8317 -2.5645 -0.7017
   39MOL   H49743133   6.786   5.884   4.801 -0.6489 -1.2105  1.8176
   39MOL   H49843134   6.607   5.862   4.787 -1.2058  0.7617 -2.1400
   39MOL   H49943135   6.567   6.090   4.746 -0.3907 -0.7728 -0.3150
   39MOL   H50043136   6.743   6.131   4.749  0.3458 -1.6986 -0.9840
   39MOL   H50143137   6.596   6.006   4.988 -2.7858  0.9242 -2.6763
   39MOL   H50243138   6.761   6.060   4.973  0.2105 -1.4518 -1.3965
   39MOL   H50343139   6.505   6.213   4.954 -0.0211 -4.5926  0.6886
   39MOL   H50443140   6.611   6.200   5.094  1.8500  1.6056 -0.1747
   39MOL   H50543141   6.785   6.322   4.987  0.5165 -0.6091 -2.3646
   39MOL   C50643142   6.655   6.400   4.844 -0.1945 -0.5797  0.0508
   39MOL   O50743143   6.557   6.374   4.779 -0.5211  0.0280 -0.0439
   39MOL   C50843144   6.727   6.529   4.816 -0.6497 -0.3235  0.1258
   39MOL   C50943145   6.782   6.543   4.674 -0.6067 -0.0242 -0.4452
   39MOL   C51043146   6.678   6.591   4.576 -0.0074 -0.1062 -0.1170
   39MOL   C51143147   6.728   6.613   4.431 -0.0248 -0.0424 -0.3933
   39MOL   C51243148   6.754   6.483   4.357 -0.7324 -0.4923 -0.2978
   39MOL   C51343149   6.627   6.394   4.353  0.0007  0.0219  0.5424
   39MOL   C51443150   6.638   6.281   4.241  0.4585  0.1580 -0.5227
   39MOL   C51543151   6.586   6.144   4.282  0.0729  0.5225  0.3818
   39MOL   C51643152   6.596   6.047   4.160 -0.0368 -0.2277 -0.1621
   39MOL   C51743153   6.571   5.903   4.207 -0.0240  0.2297 -0.7832
   39MOL   C51843154   6.577   5.798   4.092 -0.0358 -0.0942  0.5443
   39MOL   O51943155   6.610   5.832   3.977  0.4123  0.6996  0.3622
   39MOL   N52043156   6.544   5.678   4.129  0.4465  0.3860 -0.4599
   39MOL   C52143157   6.521   5.563   4.041  0.1375 -0.0689 -0.0335
   39MOL   C52243158   6.453   5.450   4.133 -0.2183 -0.1402 -0.3169
   39MOL   C52343159   6.425   5.319   4.055 -0.6087  0.3949 -0.1966
   39MOL   C52443160   6.546   5.233   4.010  0.3190 -0.0682  0.0902
   39MOL   C52543161   6.585   5.141   4.123 -0.4817  0.1336 -0.3624
   39MOL   C52643162   6.729   5.091   4.108  0.2842  0.1748 -0.1249
   39MOL   N52743163   6.750   4.979   4.197  0.0259  0.2054 -0.3681
   39MOL   H52843164   6.815   6.530   4.881  0.5424 -1.5193 -1.4070
   39MOL   H52943165   6.658   6.610   4.838 -0.5003 -0.1867  0.0990
   39MOL   H53043166   6.828   6.447   4.651  0.2760  0.4563 -0.7112
   39MOL   H53143167   6.860   6.619   4.675 -1.4174  0.8234 -1.0423
   39MOL   H53243168   6.650   6.690   4.611  2.8175  0.3218  1.0417
   39MOL   H53343169   6.591   6.525   4.583 -0.5556  0.5791 -0.4304
   39MOL   H53443170   6.662   6.675   4.371  3.4878 -0.2453 -4.7203
   39MOL   H53543171   6.810   6.684   4.448 -0.0788 -0.4981  1.9424
   39MOL   H53643172   6.800   6.519   4.265  1.7283 -1.3484  0.5710
   39MOL   H53743173   6.828   6.420   4.406 -0.6294  0.3077  0.5768
   39MOL   H53843174   6.624   6.345   4.450  0.3918 -1.6734 -0.2821
   39MOL   H53943175   6.536   6.454   4.358 -0.7356 -1.0306 -0.0024
   39MOL   H54043176   6.594   6.308   4.145  1.0875 -0.4594 -0.9997
   39MOL   H54143177   6.745   6.262   4.225  0.8478  1.8235  0.0506
   39MOL   H54243178   6.661   6.116   4.356  0.0803  3.0074  1.3723
   39MOL   H54343179   6.485   6.162   4.317  0.1603  1.0404  0.3766
   39MOL   H54443180   6.688   6.064   4.103 -0.4393  2.2573 -0.1324
   39MOL   H54543181   6.520   6.066   4.084  1.1911 -0.1225 -1.3913
   39MOL   H54643182   6.638   5.869   4.287 -0.4708  0.2215 -0.4112
   39MOL   H54743183   6.475   5.890   4.256  0.1616 -1.3986 -0.8310
   39MOL   H54843184   6.545   5.673   4.230 -0.2767 -0.0133 -0.4745
   39MOL   H54943185   6.611   5.530   3.990 -0.9156 -1.1606 -1.1951
   39MOL   H55043186   6.456   5.600   3.962 -0.4104 -1.4616 -0.2550
   39MOL   H55143187   6.354   5.475   4.173 -0.1030 -0.5235  0.2169
   39MOL   H55243188   6.512   5.426   4.221 -1.4642  0.1468  0.6183
   39MOL   H55343189   6.371   5.345   3.964 -0.4414  0.2820 -0.3283
   39MOL   H55443190   6.362   5.258   4.120 -0.2256 -0.0775 -0.2745
   39MOL   H55543191   6.635   5.289   3.979  1.8890 -3.5638 -2.0032
   39MOL   H55643192   6.531   5.166   3.926  3.2513 -1.7910  0.8429
   39MOL   H55743193   6.584   5.189   4.221  1.7131  0.2240 -0.3603
   39MOL   H55843194   6.524   5.051   4.126  1.6488 -1.3542 -0.0278
   39MOL   H55943195   6.738   5.066   4.002  3.1686  2.4788 -0.4966
   39MOL   H56043196   6.796   5.177   4.119  1.4204 -0.7346  0.2147
   39MOL   H56143197   6.688   4.899   4.198  1.8121 -1.2296  2.1417
   39MOL   C56243198   6.862   4.950   4.254 -0.0096  0.2825 -0.5238
   39MOL   O56343199   6.874   4.861   4.333  0.5755  0.3997 -0.2774
   39MOL   C56443200   6.984   5.043   4.220  0.1427 -0.3015 -0.1719
   39MOL   C56543201   6.996   5.163   4.324 -0.1323  0.8065  0.2716
   39MOL   C56643202   7.085   5.142   4.436  0.5164  0.3472 -0.5857
   39MOL   C56743203   7.232   5.117   4.400 -0.3083  0.4028 -0.2552
   39MOL   C56843204   7.324   5.092   4.523  0.0569  0.3582 -0.1663
   39MOL   C56943205   7.461   5.038   4.484 -0.2701 -0.1852 -0.4017
   39MOL   C57043206   7.564   5.060   4.596 -0.8826  0.0189  0.0975
   39MOL   C57143207   7.563   4.960   4.709  1.0088  0.0719 -0.3096
   39MOL   C57243208   7.650   5.003   4.825  0.1244 -0.1358 -0.1845
   39MOL   C57343209   7.674   4.895   4.924 -0.2998  0.6442 -0.1317
   39MOL   C57443210   7.556   4.869   5.019  1.2007  0.3107 -0.3361
   39MOL   O57543211   7.526   4.947   5.110  0.1101 -0.0170  0.7752
   39MOL   N57643212   7.483   4.755   5.012  0.0755  0.1913 -0.1600
   39MOL   C57743213   7.516   4.631   4.942 -0.5812 -1.0796  0.3723
   39MOL   C57843214   7.412   4.525   4.976  0.8826 -0.4576  0.0707
   39MOL   C57943215   7.428   4.388   4.923 -0.3024  0.4223 -0.4984
   39MOL   C58043216   7.414   4.374   4.772 -0.0042 -0.1405 -0.0204
   39MOL   C58143217   7.405   4.230   4.727  0.2793 -0.4893 -0.7976
   39MOL   C58243218   7.410   4.229   4.571  0.4175 -0.4543  0.0006
   39MOL   N58343219   7.268   4.233   4.528  0.6228 -0.2175 -0.1341
   39MOL   H58443220   7.076   4.985   4.224 -0.3899 -1.1158  0.1766
   39MOL   H58543221   6.968   5.069   4.115 -3.6928 -2.0947 -0.1194
   39MOL   H58643222   7.028   5.249   4.265  2.1181 -1.0695 -1.3372
   39MOL   H58743223   6.897   5.192   4.359  1.0543  1.8880  2.8891
   39MOL   H58843224   7.050   5.061   4.499 -1.2920  0.9577 -0.7611
   39MOL   H58943225   7.083   5.218   4.514 -3.3681  1.8396 -1.9738
   39MOL   H59043226   7.245   5.027   4.340  0.4561  0.7792 -0.6638
   39MOL   H59143227   7.259   5.193   4.327 -0.4990  0.4118 -0.3171
   39MOL   H59243228   7.329   5.194   4.563 -0.4551 -0.3860  1.9071
   39MOL   H59343229   7.277   5.028   4.598 -0.2517 -0.3554 -0.9654
   39MOL   H59443230   7.448   4.939   4.441  2.2147 -0.7429  0.0485
   39MOL   H59543231   7.505   5.090   4.400  2.5070  0.2920  1.2899
   39MOL   H59643232   7.666   5.040   4.561 -0.0389  1.3717  1.7344
   39MOL   H59743233   7.568   5.163   4.630  3.5868 -0.6605  1.9138
   39MOL   H59843234   7.570   4.860   4.666 -0.2350  0.4404 -1.4265
   39MOL   H59943235   7.458   4.962   4.739  0.5723 -1.8838 -1.5823
   39MOL   H60043236   7.614   5.093   4.875 -0.1546 -0.7072  0.6469
   39MOL   H60143237   0.053   5.038   4.783  1.8471 -1.8191  2.1555
   39MOL   H60243238   0.003   4.802   4.872 -0.1119 -0.3648  1.6914
   39MOL   H60343239   0.077   4.911   4.976 -0.7289  1.4277  0.4322
   39MOL   H60443240   7.406   4.749   5.077  0.3697 -4.1002 -0.0285
   39MOL   H60543241   7.621   4.610   4.964 -0.0197  0.4535 -0.7023
   39MOL   H60643242   7.509   4.647   4.834 -0.5933 -0.8281  0.4095
   39MOL   H60743243   7.309   4.561   4.967  1.3325  1.7739  2.9885
   39MOL   H60843244   7.417   4.501   5.082  0.4754 -1.4766 -0.1296
   39MOL   H60943245   7.345   4.327   4.959 -1.3349  1.6025 -0.8908
   39MOL   H61043246   7.514   4.338   4.969 -0.9337 -0.5845 -0.4030
   39MOL   H61143247   7.330   4.428   4.729 -1.3401 -2.1682  0.0019
   39MOL   H61243248   7.503   4.409   4.719 -2.1392 -0.9723 -4.3522
   39MOL   H61343249   7.322   4.177   4.775 -0.8407  1.7519 -0.1858
   39MOL   H61443250   7.494   4.180   4.764 -0.0413 -0.6500 -0.2258
   39MOL   H61543251   7.441   4.324   4.528 -1.8049  0.3890  0.2138
   39MOL   H61643252   7.462   4.145   4.525  0.2243 -1.3960  1.4541
   39MOL   H61743253   7.234   4.325   4.505 -0.6944 -0.3078  1.3397
   39MOL   C61843254   7.186   4.128   4.521 -0.2898  0.2802 -0.3988
   39MOL   O61943255   7.223   4.008   4.533  0.1046  0.1174 -0.7815
   39MOL   C62043256   7.035   4.164   4.519  0.0826  0.2007  0.4600
   39MOL   C62143257   6.944   4.126   4.634  0.2092  0.1645 -0.2689
   39MOL   C62243258   7.006   4.147   4.770 -0.7708  0.1719  0.9849
   39MOL   C62343259   6.912   4.097   4.878  0.7642  0.2467 -0.1282
   39MOL   C62443260   6.986   4.086   5.015  0.1449  0.1163  0.5874
   39MOL   C62543261   6.995   4.221   5.085 -0.5721  0.1013 -0.2034
   39MOL   C62643262   7.034   4.213   5.234 -0.4896  0.4077 -0.2387
   39MOL   C62743263   6.997   4.334   5.322  0.0104 -0.2399  0.0250
   39MOL   C62843264   7.066   4.326   5.460 -0.5330 -0.1130 -0.3175
   39MOL   C62943265   7.039   4.441   5.553 -0.1376  0.7317  0.0569
   39MOL   C63043266   7.102   4.571   5.510  0.2455 -0.3953 -0.3980
   39MOL   O63143267   7.223   4.582   5.514 -0.1551  0.0520  0.4637
   39MOL   N63243268   7.009   4.660   5.479 -0.0595  0.2638  0.8826
   39MOL   C63343269   7.042   4.802   5.449  0.0909  0.7431  0.0771
   39MOL   C63443270   7.075   4.819   5.300 -0.0395  0.1733 -0.2898
   39MOL   C63543271   7.117   4.963   5.258  0.1551 -0.3360 -0.6645
   39MOL   C63643272   7.143   4.967   5.107  0.3746  0.3552 -0.1341
   39MOL   C63743273   7.225   5.093   5.079  0.6748  0.0437 -0.1426
   39MOL   C63843274   7.248   5.123   4.929  0.0617 -0.5002 -0.2747
   39MOL   N63943275   7.336   5.238   4.905  0.7886  0.4097  0.8552
   39MOL   H64043276   6.994   4.127   4.425 -0.1671  0.5334  0.4369
   39MOL   H64143277   7.026   4.271   4.499  0.3708 -0.1805 -1.8564
   39MOL   H64243278   6.906   4.024   4.624 -2.5561  0.9965  1.0656
   39MOL   H64343279   6.849   4.177   4.616 -0.6919 -0.9145  1.2918
   39MOL   H64443280   7.015   4.255   4.780 -0.8148  0.2791 -0.1228
   39MOL   H64543281   7.093   4.083   4.765 -2.3688 -2.1947  2.3869
   39MOL   H64643282   6.822   4.156   4.893  1.2606  0.9119  0.2594
   39MOL   H64743283   6.865   4.003   4.848 -0.7761  1.6392 -2.2016
   39MOL   H64843284   6.936   4.016   5.083 -1.2176  0.8785  0.3808
   39MOL   H64943285   7.080   4.037   4.993 -0.4881 -1.2291  0.7885
   39MOL   H65043286   6.906   4.280   5.062 -0.4160 -0.1209 -1.4182
   39MOL   H65143287   7.070   4.278   5.031 -1.4628  2.6258  1.1395
   39MOL   H65243288   7.005   4.116   5.274  0.9786  0.5800  1.2763
   39MOL   H65343289   7.142   4.208   5.244 -0.5556 -1.2356 -0.3548
   39MOL   H65443290   7.043   4.417   5.268  2.0372 -1.5794 -0.3520
   39MOL   H65543291   6.890   4.343   5.343 -0.3258  1.6076 -2.2280
   39MOL   H65643292   7.171   4.298   5.449 -0.7398 -0.9979 -0.0211
   39MOL   H65743293   7.021   4.236   5.501 -1.0575 -0.1257 -0.9136
   39MOL   H65843294   6.933   4.455   5.572 -0.0712  2.3798 -0.6979
   39MOL   H65943295   7.080   4.395   5.643  0.3241 -1.1076 -1.0652
   39MOL   H66043296   6.913   4.631   5.471  0.2491 -1.2064  2.2130
   39MOL   H66143297   6.950   4.858   5.463 -0.6076 -0.5639  0.8418
   39MOL   H66243298   7.124   4.839   5.510  0.9696  0.0906 -0.6986
   39MOL   H66343299   6.988   4.789   5.241  0.4171 -1.6076 -0.0752
   39MOL   H66443300   7.168   4.770   5.271 -0.5114  0.0053 -1.5402
   39MOL   H66543301   7.046   5.042   5.283 -0.7251 -1.1084 -0.6866
   39MOL   H66643302   7.208   4.990   5.311 -1.0532  0.3693  1.0715
   39MOL   H66743303   7.046   4.950   5.061 -0.3339  2.1697  0.6434
   39MOL   H66843304   7.190   4.873   5.078  1.9932  1.1010 -0.0232
   39MOL   H66943305   7.176   5.182   5.117 -1.5639 -0.8588 -0.8514
   39MOL   H67043306   7.321   5.091   5.132 -0.1806 -2.4189  1.3843
   39MOL   H67143307   7.296   5.042   4.875  2.5954  1.3432 -0.9166
   39MOL   H67243308   7.156   5.151   4.878  0.2207 -0.3093 -0.4560
   39MOL   H67343309   7.432   5.225   4.879  0.0441 -0.4555 -1.6725
   39MOL   C67443310   7.293   5.364   4.904  0.4657  0.9003  0.4238
   39MOL   O67543311   7.182   5.399   4.936  0.0823 -0.5837 -0.9311
   39MOL   C67643312   7.396   5.468   4.848  0.1696 -0.4945  0.0012
   39MOL   C67743313   7.357   5.617   4.853  0.9157  0.4971  0.1634
   39MOL   C67843314   7.245   5.645   4.750 -0.1437 -0.6436 -0.5545
   39MOL   C67943315   7.195   5.793   4.758 -0.5980  0.4429 -0.8514
   39MOL   C68043316   7.143   5.856   4.625 -1.0080 -0.6453 -0.9096
   39MOL   C68143317   7.055   5.980   4.657 -0.1305 -0.8768  0.3694
   39MOL   C68243318   7.139   6.092   4.718  0.2215  0.4566  0.8034
   39MOL   C68343319   7.054   6.222   4.731 -0.0593  0.1366  0.0683
   39MOL   C68443320   7.132   6.344   4.795  0.5656  0.1485 -0.6717
   39MOL   C68543321   7.188   6.319   4.934  0.9321  0.0542  0.4026
   39MOL   C68643322   7.074   6.270   5.023 -0.3916  0.1095  0.2456
   39MOL   O68743323   6.959   6.320   5.010 -0.7125 -0.3007  0.2834
   39MOL   N68843324   7.096   6.170   5.117 -0.4080 -0.0251  0.5785
   39MOL   C68943325   7.004   6.136   5.220 -0.0968 -0.1491  0.1061
   39MOL   C69043326   7.029   6.000   5.287 -0.1142  0.0452 -0.3752
   39MOL   C69143327   7.024   5.892   5.175  0.3235 -0.0072  0.7625
   39MOL   C69243328   7.029   5.754   5.242 -0.0667  0.2498 -0.5771
   39MOL   C69343329   7.038   5.643   5.141 -0.2690  0.1815  0.3641
   39MOL   C69443330   6.916   5.636   5.037 -0.4478  0.4900  0.5203
   39MOL   N69543331   6.936   5.527   4.939 -0.3779  0.0438  0.3834
   39MOL   H69643332   7.412   5.450   4.742  2.0840  0.4698  0.0996
   39MOL   H69743333   7.495   5.461   4.893  1.0132  0.2409 -1.6922
   39MOL   H69843334   7.444   5.677   4.825  0.0087  2.1297  0.7587
   39MOL   H69943335   7.337   5.652   4.955 -0.0548 -0.1750  0.2031
   39MOL   H70043336   7.277   5.626   4.648 -0.2441  1.3309 -0.9650
   39MOL   H70143337   7.154   5.585   4.758 -1.7568  1.9084  0.8742
   39MOL   H70243338   7.280   5.852   4.793  0.0322  0.4388 -2.3010
   39MOL   H70343339   7.122   5.797   4.838 -1.8253 -1.0883 -1.8471
   39MOL   H70443340   7.087   5.778   4.574 -2.9728 -0.4365  0.8811
   39MOL   H70543341   7.226   5.882   4.559  0.2800  0.9319  1.3083
   39MOL   H70643342   7.014   6.009   4.559 -1.2310 -1.6458  0.5949
   39MOL   H70743343   6.979   5.964   4.734 -1.6491 -0.0287 -0.8998
   39MOL   H70843344   7.176   6.061   4.816  0.5231 -0.1324  0.4975
   39MOL   H70943345   7.223   6.113   4.653 -0.4168  3.1491  0.7799
   39MOL   H71043346   7.032   6.269   4.636  0.5148  2.2192  0.9276
   39MOL   H71143347   6.957   6.196   4.773  0.2199 -0.0395  0.6175
   39MOL   H71243348   7.071   6.434   4.799  1.8213  1.1842 -3.3339
   39MOL   H71343349   7.209   6.381   4.727  0.0360  0.3208 -1.1733
   39MOL   H71443350   7.275   6.253   4.933  1.7840  1.1454  1.6944
   39MOL   H71543351   7.220   6.412   4.980  0.5148 -0.4030  1.6296
   39MOL   H71643352   7.183   6.119   5.106 -1.9022 -2.6156  0.5059
   39MOL   H71743353   7.020   6.220   5.288 -2.5322  0.4162 -0.0026
   39MOL   H71843354   6.901   6.122   5.190  0.2886 -1.0793 -0.8005
   39MOL   H71943355   6.946   5.979   5.355  0.6532  0.7142  0.7737
   39MOL   H72043356   7.115   6.002   5.353 -0.6545  2.3518  0.3096
   39MOL   H72143357   6.929   5.902   5.122  1.0445  1.8733 -0.2326
   39MOL   H72243358   7.101   5.903   5.098  2.1289 -3.4230  1.9572
   39MOL   H72343359   6.934   5.736   5.292  1.3084 -0.2886  1.9133
   39MOL   H72443360   7.113   5.747   5.310  0.3420  1.2410 -0.9672
   39MOL   H72543361   7.062   5.551   5.194 -1.3686  0.6168  1.6309
   39MOL   H72643362   7.127   5.663   5.081  0.3282 -0.3079  1.0844
   39MOL   H72743363   6.824   5.621   5.093 -0.4193 -1.8440  0.0024
   39MOL   H72843364   6.897   5.728   4.982 -0.1817  1.2215  1.6371
   39MOL   H72943365   7.020   5.473   4.945  0.7215  1.6178 -0.4467
   39MOL   C73043366   6.850   5.495   4.845  0.2400 -0.4667  0.4958
   39MOL   O73143367   6.734   5.537   4.845  1.0012 -0.8478 -0.1715
   39MOL   C73243368   6.905   5.400   4.739 -0.3564 -0.0837 -0.3130
   39MOL   C73343369   6.804   5.300   4.672  0.9486  0.1435 -0.2651
   39MOL   C73443370   6.720   5.204   4.764  0.0991  0.3183 -0.3397
   39MOL   C73543371   6.812   5.122   4.861  0.6755  0.4710  0.1209
   39MOL   C73643372   6.737   5.006   4.929  0.0907 -0.0741  0.6538
   39MOL   C73743373   6.591   5.041   4.979  0.2391  0.6750 -0.1112
   39MOL   C73843374   6.589   5.166   5.071 -0.4676 -0.3589 -0.1356
   39MOL   C73943375   6.452   5.197   5.124 -0.5374  0.0827 -0.0600
   39MOL   C74043376   6.355   5.250   5.017 -0.1335  0.0053  1.1267
   39MOL   C74143377   6.387   5.384   4.957  0.2734  0.0883 -0.2980
   39MOL   C74243378   6.394   5.491   5.065  0.0833  0.4533 -0.2981
   39MOL   O74343379   6.306   5.500   5.152  0.5599 -0.3450 -0.0125
   39MOL   N74443380   6.501   5.570   5.053 -0.5321 -0.6105  0.0272
   39MOL   C74543381   6.541   5.677   5.149  0.0932  0.1255  0.5278
   39MOL   C74643382   6.439   5.794   5.186  0.0421  0.6028  0.5174
   39MOL   C74743383   6.501   5.892   5.284  1.3128  0.5187 -0.3402
   39MOL   C74843384   6.388   5.986   5.317  0.4510 -0.1268 -0.1544
   39MOL   C74943385   6.432   6.089   5.419  0.6208  0.2354 -0.5356
   39MOL   C75043386   6.533   6.186   5.351 -0.7059  1.0627  0.2101
   39MOL   N75143387   6.617   6.262   5.441  0.0468 -0.1098  0.3922
   39MOL   H75243388   6.976   5.337   4.793  0.1019  0.2725 -0.5079
   39MOL   H75343389   6.962   5.469   4.677 -0.1618 -1.3481 -1.5575
   39MOL   H75443390   6.852   5.242   4.593  0.5524  1.1400 -1.2612
   39MOL   H75543391   6.734   5.358   4.611 -0.7448  0.8616  2.2874
   39MOL   H75643392   6.669   5.129   4.703  1.8845  1.0602 -2.8316
   39MOL   H75743393   6.647   5.253   4.828 -0.5647 -0.3210 -0.6055
   39MOL   H75843394   6.845   5.190   4.940 -0.2867 -1.3948  2.1827
   39MOL   H75943395   6.908   5.090   4.821  0.8226  1.3947 -0.2710
   39MOL   H76043396   6.791   4.960   5.012 -3.0809 -1.8420  1.8281
   39MOL   H76143397   6.722   4.917   4.867  0.5731 -0.4975  1.1360
   39MOL   H76243398   6.536   5.060   4.887  0.0679 -1.6418 -0.5165
   39MOL   H76343399   6.550   4.953   5.027  2.0560  0.8402  1.7921
   39MOL   H76443400   6.649   5.135   5.156  0.1807 -2.1303 -1.2240
   39MOL   H76543401   6.645   5.251   5.033 -0.2910 -0.9845 -1.2639
   39MOL   H76643402   6.418   5.107   5.174 -2.4707  1.3210  0.9213
   39MOL   H76743403   6.453   5.272   5.203  0.1629  0.2728 -0.2501
   39MOL   H76843404   6.259   5.258   5.069  0.0652 -0.8462  1.6221
   39MOL   H76943405   6.341   5.178   4.937  0.1765  0.7127  0.4243
   39MOL   H77043406   6.485   5.381   4.910 -0.6649 -1.1265 -2.2397
   39MOL   H77143407   6.301   5.414   4.897 -0.4490 -0.5228  0.4128
   39MOL   H77243408   6.564   5.569   4.975 -0.2309  0.9011  0.2450
   39MOL   H77343409   6.629   5.725   5.106  0.1030  0.2413  0.6764
   39MOL   H77443410   6.579   5.633   5.242  1.3066  0.7164  0.3259
   39MOL   H77543411   6.346   5.756   5.229  1.3242 -3.0259  0.3197
   39MOL   H77643412   6.419   5.836   5.088  0.4475 -0.9165 -0.2343
   39MOL   H77743413   6.595   5.937   5.251  0.3161  3.0043  0.0904
   39MOL   H77843414   6.524   5.841   5.377 -3.0038 -0.3740  0.3166
   39MOL   H77943415   6.345   6.032   5.229 -0.9300  0.0939  0.6162
   39MOL   H78043416   6.306   5.926   5.359  0.7176  0.2946  0.9982
   39MOL   H78143417   6.480   6.035   5.501 -2.0372  0.4061  1.1760
   39MOL   H78243418   6.355   6.149   5.467 -1.0172 -0.3707 -2.3467
   39MOL   H78343419   6.602   6.131   5.287 -0.4368  0.0355  1.3636
   39MOL   H78443420   6.489   6.250   5.275  0.1808 -0.6860 -1.8458
   39MOL   H78543421   6.590   6.358   5.458 -0.1380 -0.2630  0.9646
   39MOL   C78643422   6.723   6.214   5.507  0.2704  0.8226 -0.1312
   39MOL   O78743423   6.769   6.102   5.498  0.2923 -0.3206 -0.5509
   39MOL   C78843424   6.759   6.308   5.614  0.3449 -0.7041  0.1487
   39MOL   C78943425   6.911   6.284   5.656  0.2913 -0.2781  0.7314
   39MOL   C79043426   7.015   6.275   5.539  0.2885  0.3605  1.1849
   39MOL   C79143427   7.155   6.287   5.598  0.0090 -0.1133  0.4298
   39MOL   C79243428   7.263   6.245   5.499  0.3094  0.5728 -0.3360
   39MOL   C79343429   7.411   6.227   5.551  0.9431 -0.2331 -0.1797
   39MOL   C79443430   7.485   6.354   5.603  0.7482  0.2445 -0.1778
   39MOL   C79543431   7.640   6.330   5.619  0.3025 -0.0192 -0.0442
   39MOL   C79643432   0.020   6.461   5.640  0.2408 -0.0266 -0.0104
   39MOL   C79743433   0.167   6.448   5.675  0.3983  0.1413 -0.0428
   39MOL   C79843434   0.233   6.587   5.700  0.3997  0.5985  0.3121
   39MOL   O79943435   0.167   6.669   5.766  0.0390  0.1545 -0.1073
   39MOL   N80043436   0.352   6.619   5.643 -0.6789 -0.6132 -0.4011
   39MOL   C80143437   0.447   6.725   5.675 -0.8093  0.1664 -1.0696
   39MOL   C80243438   0.422   6.863   5.615 -0.0507  0.2304 -0.1233
   39MOL   C80343439   0.517   6.959   5.686  0.0231 -0.1928 -0.8898
   39MOL   C80443440   0.480   7.104   5.639 -0.3180 -0.7080  0.5411
   39MOL   C80543441   0.532   7.136   5.497  0.6777  1.1544 -0.2135
   39MOL   C80643442   0.538   7.285   5.469 -0.2274  0.3991  0.0133
   39MOL   N80743443   0.585   7.314   5.331  0.2899 -0.0810 -0.4902
   39MOL   H80843444   6.697   6.298   5.703  0.3087  1.7393  0.4315
   39MOL   H80943445   6.762   6.414   5.588  1.0742 -1.0042 -1.0603
   39MOL   H81043446   6.944   6.365   5.721 -0.8698 -0.6326  1.7674
   39MOL   H81143447   6.915   6.194   5.718 -0.9750  1.0323  2.7822
   39MOL   H81243448   6.981   6.340   5.459  0.9289 -0.1039  0.5326
   39MOL   H81343449   7.019   6.178   5.489  1.4972  2.1896 -2.4380
   39MOL   H81443450   7.176   6.386   5.639  0.3794  0.2142 -0.5377
   39MOL   H81543451   7.182   6.211   5.671 -1.6042 -2.2175 -1.1456
   39MOL   H81643452   7.234   6.152   5.450  0.5668  1.0489 -1.4002
   39MOL   H81743453   7.256   6.305   5.409 -1.3325 -0.9886 -1.2700
   39MOL   H81843454   7.407   6.162   5.639  1.2492 -1.1880 -0.8547
   39MOL   H81943455   7.469   6.167   5.481  0.7513 -1.4512  0.6841
   39MOL   H82043456   7.463   6.429   5.527  0.9651 -0.3715 -0.8616
   39MOL   H82143457   7.444   6.377   5.701 -0.7119 -0.1718 -0.6835
   39MOL   H82243458   7.659   6.265   5.704  3.1783  0.8584  0.0489
   39MOL   H82343459   7.682   6.269   5.538  0.1563  1.4378 -1.2332
   39MOL   H82443460   7.661   6.524   5.713 -0.4507  0.8617 -1.2340
   39MOL   H82543461   0.010   6.511   5.543  1.4818 -1.6606 -1.0087
   39MOL   H82643462   0.186   6.380   5.758  0.5132 -0.4570 -0.5549
   39MOL   H82743463   0.225   6.401   5.596  0.6474  1.3898 -0.6072
   39MOL   H82843464   0.393   6.547   5.585 -0.1724 -1.1986  0.6688
   39MOL   H82943465   0.546   6.687   5.652 -0.4457 -1.1675  2.3642
   39MOL   H83043466   0.443   6.735   5.784  1.3646 -1.1496 -0.8517
   39MOL   H83143467   0.322   6.894   5.643  0.6447  3.4868 -1.0601
   39MOL   H83243468   0.428   6.863   5.506  2.3323  0.6519 -0.0378
   39MOL   H83343469   0.490   6.947   5.790 -1.8769  3.1203 -0.9506
   39MOL   H83443470   0.624   6.938   5.681  0.6067  2.1639  0.9315
   39MOL   H83543471   0.536   7.159   5.714 -0.9824 -0.7350  1.0629
   39MOL   H83643472   0.373   7.125   5.649 -0.4464  0.8384 -3.2525
   39MOL   H83743473   0.474   7.091   5.416 -1.4103  2.3090  0.6091
   39MOL   H83843474   0.634   7.098   5.489  0.8189  1.2603  0.9944
   39MOL   H83943475   0.591   7.335   5.549 -0.6616  0.7205  0.1031
   39MOL   H84043476   0.435   7.321   5.475 -0.6273 -0.5006 -1.2073
   39MOL   H84143477   0.548   7.244   5.268  1.9066 -1.7368  0.3750
   39MOL   C84243478   0.649   7.428   5.304 -0.6802 -0.1497  0.5504
   39MOL   O84343479   0.673   7.516   5.379 -0.7404 -0.2778 -0.1697
   39MOL   C84443480   0.694   7.433   5.160  0.2478  0.0666 -0.8872
   39MOL   C84543481   0.848   7.445   5.147  0.1907 -0.0246  0.4322
   39MOL   C84643482   0.887   7.462   4.998 -0.1966  0.2809 -0.4701
   39MOL   C84743483   1.035   7.459   4.968  0.1289 -0.0898  0.0372
   39MOL   C84843484   1.071   7.483   4.821  0.4176 -0.3322 -0.7292
   39MOL   C84943485   1.221   7.499   4.806  0.2091  0.9395 -0.5496
   39MOL   C85043486   1.254   7.527   4.662  0.0727 -0.0103 -0.5244
   39MOL   C85143487   1.221   7.676   4.629  0.3623  0.1840 -0.3209
   39MOL   C85243488   1.207   7.690   4.475 -0.4812  0.3624 -0.9337
   39MOL   C85343489   1.196   0.147   4.426 -0.0060 -0.5938  0.1196
   39MOL   C85443490   1.075   0.227   4.473 -0.1572 -0.3500  0.0403
   39MOL   O85543491   0.977   0.231   4.397 -0.2171  0.5205  0.5301
   39MOL   N85643492   1.090   0.304   4.583  0.6317  0.1982  0.2458
   39MOL   C85743493   0.996   0.384   4.660  0.3141  0.1638  0.1687
   39MOL   C85843494   1.048   0.526   4.692  0.2326  0.1236  0.1117
   39MOL   C85943495   0.954   0.602   4.788 -0.0908 -0.2777  0.8950
   39MOL   C86043496   1.016   0.742   4.827 -0.4292  0.4018 -1.2374
   39MOL   C86143497   1.139   0.728   4.924  0.0027 -0.0665  0.4047
   39MOL   C86243498   1.198   0.865   4.971 -0.0570 -0.1597 -0.0666
   39MOL   N86343499   1.289   0.851   5.087 -0.4829 -0.2247 -0.1064
   39MOL   H86443500   0.649   7.516   5.107 -0.6549 -0.2653 -0.6507
   39MOL   H86543501   0.655   7.341   5.115 -2.1488 -0.2519  1.6650
   39MOL   H86643502   0.896   7.359   5.194  0.3787 -1.1146 -1.6523
   39MOL   H86743503   0.897   7.527   5.198  0.3126 -0.4211  0.9603
   39MOL   H86843504   0.836   7.395   4.929  0.0396 -2.3728  1.8250
   39MOL   H86943505   0.864   7.558   4.953  4.3947  1.1171 -1.3401
   39MOL   H87043506   1.077   7.364   5.004  0.5858  0.3113  0.5644
   39MOL   H87143507   1.079   7.539   5.027  4.1093 -0.9940 -1.5136
   39MOL   H87243508   1.020   7.412   4.755  2.9973 -0.5310 -2.6074
   39MOL   H87343509   1.030   7.578   4.787  2.4965  0.9262  0.2033
   39MOL   H87443510   1.266   7.574   4.870  2.4189  0.1840 -1.1880
   39MOL   H87543511   1.276   7.408   4.832 -1.2043 -0.4830 -2.3190
   39MOL   H87643512   1.361   7.511   4.648  0.1589 -1.0540  1.1885
   39MOL   H87743513   1.186   7.466   4.602  0.7021 -0.4773 -0.7730
   39MOL   H87843514   1.309   0.034   4.670  0.2862  0.2261 -0.2078
   39MOL   H87943515   1.130   0.023   4.675  0.8849 -0.1687  1.0191
   39MOL   H88043516   1.132   7.620   4.438 -1.1188  0.3624  0.3325
   39MOL   H88143517   1.298   7.647   4.433 -0.7054  0.0061 -1.0584
   39MOL   H88243518   1.295   0.191   4.437  0.7541 -1.6810 -1.9441
   39MOL   H88343519   1.187   0.155   4.317  3.8928  0.7180 -0.1752
   39MOL   H88443520   1.185   0.313   4.617 -0.7230  1.8175  3.8733
   39MOL   H88543521   0.963   0.337   4.753 -1.8499  0.2965 -0.5151
   39MOL   H88643522   0.900   0.394   4.610 -0.0316 -2.0546  0.3507
   39MOL   H88743523   1.049   0.583   4.599  1.3075  3.1922  1.9237
   39MOL   H88843524   1.146   0.513   4.738 -0.8580  1.5992  2.9861
   39MOL   H88943525   0.961   0.533   4.872 -2.0724  1.1369  2.2706
   39MOL   H89043526   0.851   0.608   4.755  0.1266 -1.9973 -0.1436
   39MOL   H89143527   0.939   0.804   4.873  0.1198  1.7047 -2.0193
   39MOL   H89243528   1.029   0.807   4.740 -0.9259  1.1029 -0.7909
   39MOL   H89343529   1.117   0.661   5.007 -2.2404 -0.8128 -0.7140
   39MOL   H89443530   1.221   0.687   4.865 -1.0435  0.2503 -1.3394
   39MOL   H89543531   1.245   0.919   4.888 -1.1861 -0.4294 -0.8899
   39MOL   H89643532   1.121   0.934   5.005  0.6962 -0.0324  1.4080
   39MOL   H89743533   1.274   0.910   5.168  0.2918 -1.7452  1.1712
   39MOL   C89843534   1.401   0.774   5.086  0.0451  0.2286  0.4920
   39MOL   O89943535   1.442   0.704   4.991 -0.6705  0.3846 -0.0001
   39MOL   C90043536   1.493   0.790   5.213 -0.1186  0.2402  0.5274
   39MOL   C90143537   1.567   0.654   5.238 -0.9476 -0.0331 -0.2818
   39MOL   C90243538   1.653   0.662   5.367 -0.4654  0.2008  0.3780
   39MOL   C90343539   1.740   0.536   5.392 -0.5773 -0.0284 -0.1421
   39MOL   C90443540   1.832   0.541   5.513 -1.2444  0.3049 -0.5334
   39MOL   C90543541   1.918   0.415   5.532 -0.3238  0.4156  0.2353
   39MOL   C90643542   2.025   0.400   5.421  0.4166 -0.1086  0.2025
   39MOL   C90743543   2.113   0.274   5.430 -0.0916  0.3493 -0.3440
   39MOL   C90843544   2.189   0.249   5.294 -0.0305 -0.5394 -0.4826
   39MOL   C90943545   2.298   0.353   5.271 -0.6016  0.0524  0.4744
   39MOL   C91043546   2.429   0.319   5.346  0.1238  0.3757 -0.2937
   39MOL   O91143547   2.526   0.267   5.300  0.3897  0.4982 -0.0167
   39MOL   N91243548   2.430   0.366   5.473  0.0148  0.2173  0.7158
   39MOL   C91343549   2.528   0.340   5.580 -0.1565 -0.2213 -0.3560
   39MOL   C91443550   2.516   0.431   5.702  0.6570  0.1607  0.0599
   39MOL   C91543551   2.629   0.404   5.800 -0.0014 -0.1471 -0.5521
   39MOL   C91643552   2.601   0.479   5.930 -0.1597  0.1058 -0.1877
   39MOL   C91743553   2.625   0.638   5.939 -0.3430 -0.2305  0.2293
   39MOL   C91843554   2.503   0.719   5.992 -0.9224 -0.3431  0.2021
   39MOL   N91943555   2.532   0.865   6.008  0.0593  0.4368 -0.0916
   39MOL   H92043556   1.569   0.867   5.202 -0.0014  0.2959  1.6711
   39MOL   H92143557   1.430   0.812   5.299 -1.8519  1.6049 -1.0497
   39MOL   H92243558   1.637   0.623   5.160  0.7838 -0.3573  1.3598
   39MOL   H92343559   1.490   0.581   5.264 -0.6109 -0.2493  0.1080
   39MOL   H92443560   1.586   0.678   5.451 -0.5564 -0.1595  0.3771
   39MOL   H92543561   1.723   0.745   5.353 -0.4133 -0.1039 -1.3311
   39MOL   H92643562   1.673   0.450   5.399 -1.5683  0.9137  2.8767
   39MOL   H92743563   1.802   0.541   5.303 -0.1447  1.5794  0.2370
   39MOL   H92843564   1.768   0.551   5.601  0.1630 -0.4736  0.6059
   39MOL   H92943565   1.900   0.626   5.516 -0.5093 -0.2828 -0.2412
   39MOL   H93043566   1.960   0.412   5.633  1.1938 -1.0336 -0.4346
   39MOL   H93143567   1.859   0.324   5.526  1.8957 -1.0556  0.4527
   39MOL   H93243568   2.093   0.485   5.430  0.6651 -0.2168 -0.5937
   39MOL   H93343569   1.985   0.399   5.320  2.6227 -2.1166 -0.6710
   39MOL   H93443570   2.058   0.186   5.463  0.9741  0.0494  0.6665
   39MOL   H93543571   2.172   0.267   5.522 -1.4725 -0.5599  0.4922
   39MOL   H93643572   2.240   0.153   5.308  0.2591 -0.1011  1.6250
   39MOL   H93743573   2.124   0.242   5.207  1.2216 -0.6208 -1.4193
   39MOL   H93843574   2.325   0.357   5.165 -0.6202  1.1439  0.5079
   39MOL   H93943575   2.267   0.453   5.300 -0.3560 -0.1431  1.4110
   39MOL   H94043576   2.349   0.421   5.499 -1.0938 -1.6242  1.2762
   39MOL   H94143577   2.625   0.364   5.534  0.1976 -0.9599 -0.0004
   39MOL   H94243578   2.537   0.232   5.592 -2.1181 -0.2893  0.5753
   39MOL   H94343579   2.507   0.536   5.675  0.3085  0.0978 -0.0697
   39MOL   H94443580   2.421   0.391   5.740  0.9711 -1.7339 -1.0920
   39MOL   H94543581   2.630   0.296   5.815 -1.5166 -0.2375 -1.0363
   39MOL   H94643582   2.730   0.417   5.761  0.2063 -1.5768 -0.5300
   39MOL   H94743583   2.657   0.431   6.010 -0.3558  2.6444  1.5220
   39MOL   H94843584   2.499   0.455   5.958  0.0774 -0.6566  0.0281
   39MOL   H94943585   2.701   0.663   6.013  1.3141 -1.2878 -1.0787
   39MOL   H95043586   2.655   0.677   5.842 -1.3533  1.7783  0.6904
   39MOL   H95143587   2.475   0.683   6.091  1.0136  3.2898  2.1565
   39MOL   H95243588   2.420   0.695   5.926 -0.3610 -0.9564 -0.2898
   39MOL   H95343589   2.557   0.898   6.100  1.7368 -0.1735 -0.3087
   39MOL   C95443590   2.521   0.955   5.908  0.1659 -0.4362  0.1684
   39MOL   O95543591   2.514   0.932   5.788  0.3926  0.1208 -0.0195
   39MOL   C95643592   2.515   1.103   5.948 -0.3697  0.9496 -0.2645
   39MOL   C95743593   2.527   1.209   5.839 -0.1390  0.2780 -0.6803
   39MOL   C95843594   2.404   1.221   5.749  0.2565 -0.5541  0.3049
   39MOL   C95943595   2.433   1.306   5.624 -0.2066  0.2667 -0.0443
   39MOL   C96043596   2.332   1.305   5.516 -0.1658 -0.2213 -0.2737
   39MOL   C96143597   2.353   1.437   5.432 -0.5782  0.5299  0.7399
   39MOL   C96243598   2.315   1.568   5.509 -0.4372  0.1923  0.5717
   39MOL   C96343599   2.331   1.692   5.416  0.8163 -0.1516 -0.1482
   39MOL   C96443600   2.300   1.825   5.492  0.1665 -0.4780 -0.5250
   39MOL   C96543601   2.344   1.946   5.413  0.0255  0.9649 -0.0289
   39MOL   C96643602   2.287   2.075   5.472 -0.0631  0.6374  0.5249
   39MOL   O96743603   2.163   2.088   5.466 -0.1507 -0.0495 -0.6322
   39MOL   N96843604   2.370   2.166   5.519 -0.0153 -0.5494  0.3278
   39MOL   C96943605   2.347   2.309   5.554 -0.4355  0.2019  0.2478
   39MOL   C97043606   2.295   2.390   5.440 -0.0113 -0.2333  0.7334
   39MOL   C97143607   2.283   2.541   5.476  0.0936  0.1677  0.1756
   39MOL   C97243608   2.208   2.615   5.361 -0.0724  0.7317 -0.2352
   39MOL   C97343609   2.209   2.769   5.384  0.8072 -0.1722 -0.5464
   39MOL   C97443610   2.109   2.841   5.288 -0.4080  0.4565 -0.1954
   39MOL   N97543611   2.115   2.985   5.299  0.3570  0.3622 -0.5408
   39MOL   H97643612   2.427   1.120   6.009 -1.3762  0.7849 -1.6432
   39MOL   H97743613   2.602   1.107   6.014 -0.1067  1.3798 -0.6290
   39MOL   H97843614   2.618   1.181   5.786  1.0333  0.9458  0.9144
   39MOL   H97943615   2.543   1.309   5.880  0.9208 -0.1999  0.1107
   39MOL   H98043616   2.369   1.122   5.719  1.2130 -0.9069  0.3533
   39MOL   H98143617   2.320   1.265   5.804  0.3590 -0.6248  0.5160
   39MOL   H98243618   2.435   1.404   5.672  0.3151  0.6921 -0.9330
   39MOL   H98343619   2.533   1.287   5.584  0.7042  0.7731  1.9030
   39MOL   H98443620   2.350   1.222   5.448  1.8670 -0.8806  1.0410
   39MOL   H98543621   2.233   1.290   5.559  0.7561 -0.7342  1.7332
   39MOL   H98643622   2.458   1.441   5.403 -0.1244 -0.9707  2.0850
   39MOL   H98743623   2.300   1.436   5.337  1.2078  2.1253 -0.3121
   39MOL   H98843624   2.220   1.563   5.561  1.4067 -2.1423  3.9109
   39MOL   H98943625   2.386   1.587   5.589 -0.0662 -2.1909  0.8349
   39MOL   H99043626   2.429   1.707   5.371 -0.0611  4.9707 -0.5984
   39MOL   H99143627   2.275   1.674   5.324 -0.5776  0.0730  0.6382
   39MOL   H99243628   2.347   1.837   5.590  0.2273 -2.4817 -0.2925
   39MOL   H99343629   2.192   1.831   5.506  0.1613  1.1281 -1.1965
   39MOL   H99443630   2.453   1.956   5.413  0.1379  0.1296  2.4783
   39MOL   H99543631   2.311   1.946   5.310  1.9696 -3.7867 -0.8005
   39MOL   H99643632   2.467   2.138   5.523 -0.2093 -1.1222  1.3179
   39MOL   H99743633   2.441   2.347   5.593 -0.3722 -1.4543  1.8168
   39MOL   H99843634   2.277   2.317   5.637 -1.7507 -1.2581 -0.6908
   39MOL   H99943635   2.197   2.355   5.407  0.8330 -0.1741 -2.0196
   39MOL     H143636   2.352   2.373   5.349  0.3875  0.1025  0.9225
   39MOL     H243637   2.383   2.580   5.496 -0.7420  2.0934  0.7469
   39MOL     H343638   2.227   2.545   5.569  1.0665  0.3597  0.7703
   39MOL     H443639   2.234   2.593   5.258 -2.2219  0.4640 -0.7465
   39MOL     H543640   2.106   2.575   5.366  0.7347 -1.3191  0.5353
   39MOL     H643641   2.309   2.811   5.368  1.0743  0.3945  2.2518
   39MOL     H743642   2.182   2.786   5.488  1.0553  0.1295 -0.5298
   39MOL     H843643   2.129   2.824   5.182 -2.4041  1.0465 -0.6721
   39MOL     H943644   2.015   2.796   5.319 -1.1804 -0.5606 -3.8669
   39MOL    H1043645   2.167   3.021   5.220  2.3511 -0.0288  0.5532
   39MOL    C1143646   2.084   3.072   5.400  0.1973  0.3827 -0.1965
   39MOL    O1243647   2.018   3.034   5.497 -0.5313 -0.1768 -0.3982
   39MOL    C1343648   2.127   3.223   5.392 -0.7683  0.1204 -0.3868
   39MOL    C1443649   2.175   3.293   5.524  0.0938  0.4450 -0.0051
   39MOL    C1543650   2.233   3.438   5.508 -0.3303  0.6405 -0.2474
   39MOL    C1643651   2.120   3.546   5.496  0.6376 -0.0842  0.0422
   39MOL    C1743652   2.192   3.686   5.507  0.4635  0.3515 -0.0666
   39MOL    C1843653   2.096   3.794   5.468  0.2184  1.1581  0.2067
   39MOL    C1943654   2.147   3.934   5.503  0.0508  0.5224  0.0734
   39MOL    C2043655   2.073   4.043   5.427  0.1390  0.3286  0.8160
   39MOL    C2143656   2.142   4.085   5.293 -0.0821 -0.3918 -0.6353
   39MOL    C2243657   2.281   4.150   5.304  0.4037  0.2141  0.1477
   39MOL    C2343658   2.376   4.094   5.192 -0.6016 -0.4984 -0.2399
   39MOL    O2443659   2.432   3.991   5.210 -0.0629 -0.4172  0.2841
   39MOL    N2543660   2.382   4.162   5.076  0.5027 -0.4848 -0.4278
   39MOL    C2643661   2.475   4.128   4.977 -0.3323 -0.0800  0.4599
   39MOL    C2743662   2.596   4.230   4.973  0.3295 -0.4983  0.7313
   39MOL    C2843663   2.700   4.204   5.086  0.6104  0.2659 -0.9280
   39MOL    C2943664   2.791   4.325   5.100  0.1650  0.5338  0.3899
   39MOL    C3043665   2.907   4.318   5.197 -0.1859  0.1088  0.5423
   39MOL    C3143666   2.982   4.451   5.202 -0.3060 -0.2730 -0.0813
   39MOL    N3243667   3.081   4.434   5.304 -0.3161 -0.6742 -0.3135
   39MOL    H3343668   2.041   3.270   5.345 -1.4347 -0.8974 -0.2156
   39MOL    H3443669   2.206   3.224   5.316 -0.6036  0.2330 -0.2123
   39MOL    H3543670   2.252   3.228   5.565  1.0131  1.3354 -0.2874
   39MOL    H3643671   2.094   3.292   5.596  0.1079  2.0236  0.0538
   39MOL    H3743672   2.300   3.434   5.422 -0.4538 -0.4164 -0.3080
   39MOL    H3843673   2.284   3.464   5.600 -1.3230  0.3342  0.3935
   39MOL    H3943674   2.071   3.526   5.401 -0.0017 -0.7422  0.5106
   39MOL    H4043675   2.040   3.531   5.568 -0.6550 -0.1653 -1.4030
   39MOL    H4143676   2.219   3.699   5.612  0.1603  0.3302  0.0137
   39MOL    H4243677   2.280   3.689   5.443  0.8544  0.8314  0.4889
   39MOL    H4343678   2.092   3.787   5.359 -2.4648  0.2442  0.3197
   39MOL    H4443679   1.997   3.780   5.510  0.1448 -0.6111 -0.4855
   39MOL    H4543680   2.130   3.948   5.610 -0.1730 -1.3351  0.2908
   39MOL    H4643681   2.253   3.944   5.479 -0.0212 -1.4738 -1.1503
   39MOL    H4743682   1.970   4.012   5.409  0.3070 -0.8143  1.7454
   39MOL    H4843683   2.059   4.127   5.494  0.1073  0.4806  0.6180
   39MOL    H4943684   2.080   4.146   5.227 -0.1527 -0.4973 -0.6664
   39MOL    H5043685   2.151   3.995   5.232 -0.0594 -0.1748 -0.9560
   39MOL    H5143686   2.276   4.257   5.288 -0.0855  0.5654  2.4624
   39MOL    H5243687   2.322   4.139   5.405  0.8417 -2.7793 -0.2905
   39MOL    H5343688   2.318   4.239   5.063  0.8277 -0.0810  0.3117
   39MOL    H5443689   2.430   4.117   4.878 -1.1097 -1.4294  0.9571
   39MOL    H5543690   2.511   4.026   4.989 -2.3187 -0.7463  0.8582
   39MOL    H5643691   2.560   4.332   4.988 -1.3506 -0.9168 -0.3919
   39MOL    H5743692   2.647   4.218   4.878 -0.3369  0.2831  0.2735
   39MOL    H5843693   2.759   4.114   5.065  2.5845  0.9937  1.2800
   39MOL    H5943694   2.647   4.191   5.180  0.7546  1.4594 -0.6693
   39MOL    H6043695   2.722   4.405   5.126 -0.8465  0.0102 -0.6373
   39MOL    H6143696   2.832   4.345   5.001  0.3030  0.7230  0.4859
   39MOL    H6243697   2.969   4.234   5.166  0.8468  1.5237 -1.3457
   39MOL    H6343698   2.864   4.294   5.294 -1.9001 -1.9211 -0.6912
   39MOL    H6443699   2.927   4.539   5.236  0.7013 -0.0063  0.8769
   39MOL    H6543700   3.025   4.485   5.108 -1.1973  1.9592  0.2880
   39MOL    H6643701   3.052   4.419   5.399 -1.9011 -1.6925 -0.9451
   39MOL    C6743702   3.215   4.450   5.286  0.2337 -0.5605  0.0775
   39MOL    O6843703   3.269   4.495   5.186 -0.6120 -0.1081 -0.0152
   39MOL    C6943704   3.298   4.428   5.413  0.4701 -0.0027 -0.6118
   39MOL    C7043705   3.366   4.555   5.476  0.3713 -0.8745 -0.2397
   39MOL    C7143706   3.290   4.691   5.473 -0.3082 -1.0858 -0.9526
   39MOL    C7243707   3.354   4.787   5.578  0.6951 -0.7263 -0.1069
   39MOL    C7343708   3.319   4.763   5.722 -0.0488  0.0533 -0.3120
   39MOL    C7443709   3.409   4.837   5.828 -0.1972  0.3648 -0.0508
   39MOL    C7543710   3.539   4.756   5.855  0.0439  1.1070  0.1388
   39MOL    C7643711   3.509   4.626   5.927 -0.4929  0.8082 -0.7349
   39MOL    C7743712   3.627   4.527   5.931  0.8350 -0.1192  0.1860
   39MOL    C7843713   3.602   4.398   6.014 -0.3078  0.1154  0.0271
   39MOL    C7943714   3.499   4.298   5.965 -0.1716 -0.2019  0.5213
   39MOL    O8043715   3.476   4.286   5.847  0.0464 -0.2344  0.2062
   39MOL    N8143716   3.438   4.221   6.051  0.2127 -0.2725 -0.8621
   39MOL    C8243717   3.358   4.107   6.022  0.3936 -0.0731 -0.4565
   39MOL    C8343718   3.341   4.011   6.140 -0.4245  0.1302  0.1489
   39MOL    C8443719   3.284   3.880   6.091 -0.3472 -0.4479  0.1828
   39MOL    C8543720   3.273   3.777   6.210 -0.2566 -0.6737  0.2746
   39MOL    C8643721   3.234   3.633   6.171 -0.0461 -0.1849 -0.1851
   39MOL    C8743722   3.086   3.620   6.133  0.4883 -0.0615  0.8265
   39MOL    N8843723   3.048   3.483   6.102 -0.7008 -0.7780  0.3139
   39MOL    H8943724   3.371   4.348   5.400 -0.8718 -1.3055 -0.2666
   39MOL    H9043725   3.229   4.387   5.487  1.1030 -0.2485 -0.1583
   39MOL    H9143726   3.383   4.526   5.580 -1.6073 -1.8270 -0.1520
   39MOL    H9243727   3.462   4.575   5.428 -0.6949  0.9602 -1.6776
   39MOL    H9343728   3.289   4.737   5.374 -1.0786  1.2572  0.1098
   39MOL    H9443729   3.186   4.685   5.504 -0.5975  2.4286 -1.0335
   39MOL    H9543730   3.463   4.791   5.573  0.8047  0.5099  2.6951
   39MOL    H9643731   3.313   4.887   5.565  0.7354 -0.8218 -1.0308
   39MOL    H9743732   3.218   4.800   5.738  1.5053  4.6947 -0.2393
   39MOL    H9843733   3.298   4.660   5.750 -0.3236 -0.2651 -1.6885
   39MOL    H9943734   3.441   4.932   5.785 -4.2157  0.4575 -3.0550
   39MOL   H10043735   3.355   4.857   5.921 -1.2801 -1.6352 -0.2301
   39MOL   H10143736   3.609   4.821   5.906  2.4136 -1.7838  0.7201
   39MOL   H10243737   3.582   4.726   5.759 -2.2750 -3.2025  0.2959
   39MOL   H10343738   3.493   4.658   6.030  0.7370 -0.0161 -0.2784
   39MOL   H10443739   3.418   4.576   5.894 -1.1104  2.2749 -1.2788
   39MOL   H10543740   3.717   4.582   5.958 -0.1703  1.2838  0.7566
   39MOL   H10643741   3.637   4.493   5.828 -0.8533 -0.1922  0.0281
   39MOL   H10743742   3.690   4.337   6.032  0.6937  0.6832 -2.6505
   39MOL   H10843743   3.558   4.438   6.105 -2.1462  2.6743 -1.8871
   39MOL   H10943744   3.477   4.219   6.144  1.4079  1.1576 -1.3127
   39MOL   H11043745   3.395   4.058   5.931  1.0741 -1.0073  0.3170
   39MOL   H11143746   3.258   4.140   5.995 -0.3698  0.4736  2.9087
   39MOL   H11243747   3.284   4.042   6.228 -1.3783  0.3798 -0.5472
   39MOL   H11343748   3.441   3.989   6.179 -0.7914 -2.8185 -0.5133
   39MOL   H11443749   3.340   3.823   6.017  0.8790  1.6941 -0.5847
   39MOL   H11543750   3.185   3.896   6.049 -1.5646  0.2566  3.2109
   39MOL   H11643751   3.370   3.772   6.260  0.3666 -0.0629 -0.8399
   39MOL   H11743752   3.206   3.814   6.288 -1.9876  0.1757 -1.5796
   39MOL   H11843753   3.301   3.594   6.094  0.8004  1.5100 -0.3295
   39MOL   H11943754   3.247   3.565   6.255  0.6354  2.7565  2.1936
   39MOL   H12043755   3.029   3.676   6.207 -1.6648 -0.4840 -0.4813
   39MOL   H12143756   3.071   3.682   6.045  0.4416 -1.5131 -0.2138
   39MOL   H12243757   3.093   3.472   6.012  0.2590  0.0412  0.6902
   39MOL   H12343758   2.950   3.480   6.076 -0.6201 -1.5169  0.0732
   40MOL     C143759   5.731   2.874   5.930  0.0643  0.8365  0.3584
   40MOL     O243760   5.631   2.808   5.957 -0.7091  0.2673  0.1062
   40MOL     C343761   5.729   3.022   5.959 -0.2511 -0.1653  0.3755
   40MOL     C443762   5.618   3.065   6.048  0.4634 -0.6705 -0.7618
   40MOL     C543763   5.630   3.024   6.191  0.1679  0.0115  0.1075
   40MOL     C643764   5.526   3.081   6.279  0.5881 -0.4311 -0.4663
   40MOL     C743765   5.528   3.028   6.422 -0.5951 -0.9381 -0.8457
   40MOL     C843766   5.642   3.092   6.505  0.6771 -0.7810  0.3623
   40MOL     C943767   5.690   2.993   6.614 -0.0935  0.0977  0.0853
   40MOL    C1043768   5.597   2.987   6.733  0.0015 -0.0207 -0.5397
   40MOL    C1143769   5.636   2.892   6.845 -0.3779  0.4995  0.2053
   40MOL    C1243770   5.527   2.840   6.944 -0.5157  0.0855  0.4481
   40MOL    C1343771   5.606   2.758   7.061  0.1973 -0.0840 -0.3832
   40MOL    O1443772   5.704   2.815   7.111 -0.2182  0.2978  0.1246
   40MOL    N1543773   5.557   2.638   7.101  0.4865 -0.4602 -0.6136
   40MOL    C1643774   5.607   2.548   7.203  0.2062  0.1957 -0.2109
   40MOL    C1743775   5.507   2.463   7.283 -0.4071 -0.0136 -0.0662
   40MOL    C1843776   5.385   2.547   7.323 -0.3908  0.0499  0.0059
   40MOL    C1943777   5.296   2.478   7.422  0.4611  0.0440  0.3827
   40MOL    C2043778   5.353   2.435   7.553 -0.2096 -0.3952  0.1835
   40MOL    C2143779   5.289   2.517   7.670 -0.2729  0.6446 -0.3872
   40MOL    N2243780   5.313   2.443   0.102  0.1174  0.2057 -0.1262
   40MOL    H2343781   5.718   3.062   5.859  0.7519  2.0421  1.1080
   40MOL    H2443782   5.829   3.046   5.997 -0.6552  0.2139  1.2184
   40MOL    H2543783   5.524   3.024   6.011  1.3525 -1.6974 -1.9317
   40MOL    H2643784   5.611   3.174   6.045  2.4527 -0.4996 -0.0193
   40MOL    H2743785   5.729   3.055   6.223  0.7186 -1.6349  0.0574
   40MOL    H2843786   5.624   2.916   6.200  3.0277 -0.2397 -0.3602
   40MOL    H2943787   5.527   3.190   6.283 -1.1229 -0.4021 -0.1116
   40MOL    H3043788   5.429   3.060   6.234 -0.9619  0.8726  2.1095
   40MOL    H3143789   5.536   2.920   6.433  2.3453 -0.6177  0.5262
   40MOL    H3243790   5.429   3.061   6.453  0.2250  1.1455 -0.3250
   40MOL    H3343791   5.723   3.121   6.439  0.9599  0.9587  1.4553
   40MOL    H3443792   5.609   3.191   6.536  1.4646 -0.1716 -0.7018
   40MOL    H3543793   5.706   2.893   6.572 -1.5937 -0.0843 -0.0754
   40MOL    H3643794   5.787   3.017   6.658  0.3985  0.0851 -0.9684
   40MOL    H3743795   5.584   3.089   6.771 -0.3679  0.0316 -0.8016
   40MOL    H3843796   5.501   2.951   6.698 -0.4119 -0.1805  0.7282
   40MOL    H3943797   5.718   2.937   6.901 -0.5333  0.2299  0.6539
   40MOL    H4043798   5.685   2.807   6.798 -0.7605 -0.5150  1.6139
   40MOL    H4143799   5.480   2.929   6.985  3.6966  2.3898  0.6009
   40MOL    H4243800   5.460   2.770   6.896 -0.1515  1.9155 -2.8623
   40MOL    H4343801   5.477   2.605   7.048 -0.9442  2.0474 -0.1006
   40MOL    H4443802   5.665   2.611   7.270 -0.6285 -0.4825  1.1571
   40MOL    H4543803   5.672   2.478   7.149  0.8596  0.9970 -0.4767
   40MOL    H4643804   5.548   2.409   7.369 -1.7925 -1.0773 -0.0606
   40MOL    H4743805   5.472   2.393   7.207  0.7919 -0.0782 -0.5724
   40MOL    H4843806   5.405   2.640   7.376  2.1662 -0.1898 -0.4818
   40MOL    H4943807   5.329   2.574   7.234  2.9251  2.7101 -1.3705
   40MOL    H5043808   5.242   2.401   7.367 -1.7557  1.4977  0.4836
   40MOL    H5143809   5.211   2.546   7.426 -0.8465 -1.6393  2.0232
   40MOL    H5243810   5.326   2.332   7.575  0.9635  0.1574  4.7507
   40MOL    H5343811   5.462   2.433   7.558 -0.2239 -0.2465  0.6272
   40MOL    H5443812   5.319   2.621   7.682 -0.1791  0.3520  2.1838
   40MOL    H5543813   5.181   2.520   7.662 -0.3261  0.8913  0.4400
   40MOL    H5643814   5.391   2.471   0.160  1.8620  0.2954 -2.4425
   40MOL    H5743815   5.827   2.833   5.898 -0.2473 -0.5433  1.1490
   40MOL    C5843816   5.237   2.347   0.152 -0.2086 -0.8586  0.0558
   40MOL    O5943817   5.140   2.303   0.090 -0.1363 -0.3962  0.5712
   40MOL    C6043818   5.255   2.298   0.299 -0.4830 -0.0727  0.5419
   40MOL    C6143819   5.124   2.294   0.385 -0.5291 -0.0534  0.6334
   40MOL    C6243820   5.096   2.421   0.473 -0.5182 -0.2080 -0.3019
   40MOL    C6343821   5.030   2.526   0.390 -0.5082 -0.2419 -0.1540
   40MOL    C6443822   5.001   2.641   0.475  0.0046 -0.3248  0.5317
   40MOL    C6543823   4.950   2.758   0.390 -0.0207 -0.1924  0.0242
   40MOL    C6643824   4.927   2.886   0.475  0.2977 -0.1237  0.6407
   40MOL    C6743825   4.875   2.995   0.382  0.5062  0.3046  0.3845
   40MOL    C6843826   4.815   3.114   0.462  0.9503 -0.3327  0.4287
   40MOL    C6943827   4.912   3.197   0.552  0.1240  0.0706 -0.3418
   40MOL    C7043828   4.967   3.321   0.500  0.0098 -0.0313 -0.0125
   40MOL    O7143829   5.002   3.331   0.381 -0.4463  0.0584 -0.3913
   40MOL    N7243830   4.963   3.430   0.581  0.1315  0.3846  0.1798
   40MOL    C7343831   5.012   3.563   0.547 -0.2030  0.4822  0.2128
   40MOL    C7443832   5.140   3.600   0.623 -0.1401 -0.3570  0.6713
   40MOL    C7543833   5.177   3.751   0.614 -0.0631  0.2771  0.1374
   40MOL    C7643834   5.298   3.806   0.695  0.0768  0.7813  0.5032
   40MOL    C7743835   5.431   3.737   0.651 -0.4440  0.6423 -0.0017
   40MOL    C7843836   5.557   3.789   0.714 -0.0274 -0.3938 -0.4945
   40MOL    N7943837   5.681   3.736   0.663 -0.1082 -0.0121 -0.0826
   40MOL    H8043838   5.323   2.364   0.353  0.0325 -0.9353  0.9592
   40MOL    H8143839   5.307   2.202   0.301  2.8892  1.6720 -0.2143
   40MOL    H8243840   5.041   2.274   0.317  1.1932 -1.6821 -1.0466
   40MOL    H8343841   5.128   2.205   0.448 -1.1364 -2.6112 -2.8113
   40MOL    H8443842   5.184   2.447   0.532 -0.7651  0.1436 -0.0837
   40MOL    H8543843   5.021   2.410   0.552  0.5321  0.4610  0.8204
   40MOL    H8643844   4.941   2.493   0.337 -1.2804  2.6864 -0.7835
   40MOL    H8743845   5.098   2.547   0.307 -1.7137 -1.6374 -1.5351
   40MOL    H8843846   4.924   2.618   0.548 -1.5658  1.3709 -0.5312
   40MOL    H8943847   5.084   2.680   0.534  0.3669  1.6726 -1.2134
   40MOL    H9043848   4.857   2.727   0.342  0.0075  2.4869 -1.8820
   40MOL    H9143849   5.021   2.783   0.310 -0.2121  0.8486  0.1731
   40MOL    H9243850   5.027   2.917   0.506  0.7529  0.9946 -1.7850
   40MOL    H9343851   4.874   2.871   0.569  1.1028  0.6471  1.2113
   40MOL    H9443852   4.946   3.022   0.304  0.7646 -3.3697 -0.7053
   40MOL    H9543853   4.788   2.955   0.330 -0.1321 -1.9396  3.0363
   40MOL    H9643854   4.745   3.075   0.537  2.1914  1.4521  2.5637
   40MOL    H9743855   4.757   3.178   0.396  1.3489 -0.8742 -0.4555
   40MOL    H9843856   4.853   3.211   0.643 -0.5929 -2.3726 -0.3991
   40MOL    H9943857   4.994   3.136   0.589 -0.3360 -0.8429 -0.8280
   40MOL   H10043858   4.927   3.409   0.673  1.2612  1.6798  0.9230
   40MOL   H10143859   4.933   3.635   0.568 -0.0157  0.8086 -0.1753
   40MOL   H10243860   5.032   3.568   0.440 -1.6909 -0.8705 -0.1447
   40MOL   H10343861   5.138   3.575   0.729  0.7451  1.5201  1.1295
   40MOL   H10443862   5.222   3.545   0.576 -0.3284  0.0063 -0.0893
   40MOL   H10543863   5.088   3.812   0.635 -1.1814 -0.7249 -1.6528
   40MOL   H10643864   5.199   3.768   0.509  1.3650  0.8854  0.5229
   40MOL   H10743865   5.302   3.915   0.696 -2.2805  0.9234 -0.8657
   40MOL   H10843866   5.288   3.777   0.799 -0.9275  0.6629  0.3761
   40MOL   H10943867   5.445   3.751   0.544  1.2272 -2.6993 -0.2987
   40MOL   H11043868   5.431   3.629   0.669  1.6185  0.7925  1.0517
   40MOL   H11143869   5.544   3.772   0.821 -2.7811 -0.9537 -0.8833
   40MOL   H11243870   5.548   3.897   0.719  0.7637 -0.3458  0.1696
   40MOL   H11343871   5.683   3.711   0.565  4.1027 -1.9275  0.3933
   40MOL   C11443872   5.794   3.740   0.731  0.0037  0.9212  0.0193
   40MOL   O11543873   5.795   3.789   0.847 -0.7734  0.1173 -0.3230
   40MOL   C11643874   5.922   3.699   0.655  0.6441  0.5304  0.5481
   40MOL   C11743875   6.057   3.729   0.729 -0.7737 -0.1616 -0.0136
   40MOL   C11843876   6.103   3.641   0.853 -0.0142  0.1188  0.0839
   40MOL   C11943877   6.082   3.488   0.856 -0.5075  0.2579 -0.0426
   40MOL   C12043878   6.181   3.415   0.765 -1.0621 -0.4660  0.1331
   40MOL   C12143879   6.139   3.377   0.625  0.9369 -0.1638 -0.5500
   40MOL   C12243880   6.259   3.326   0.538 -0.1582  0.3268  0.4979
   40MOL   C12343881   6.209   3.277   0.402 -0.2913 -0.1982  0.4210
   40MOL   C12443882   6.181   3.129   0.376  0.2902 -0.3775  0.0405
   40MOL   C12543883   6.109   3.096   0.234 -0.7519 -0.5753  0.7008
   40MOL   C12643884   6.200   3.107   0.112 -0.0389 -0.0746  0.3463
   40MOL   O12743885   6.323   3.090   0.126 -0.4440  0.2055  0.0109
   40MOL   N12843886   6.145   3.123   7.685 -0.5812  0.2177 -0.1633
   40MOL   C12943887   6.212   3.113   7.559  0.5839  0.1341 -0.5005
   40MOL   C13043888   6.140   3.012   7.469 -0.6267  0.2387 -0.4475
   40MOL   C13143889   6.211   2.954   7.343 -0.2618  0.0434  0.1931
   40MOL   C13243890   6.121   2.850   7.280 -0.2689  0.4551  0.6058
   40MOL   C13343891   6.160   2.842   7.127  0.5632  1.1215  0.1810
   40MOL   C13443892   6.299   2.791   7.097  0.1752  0.6248 -0.5766
   40MOL   N13543893   6.337   2.802   6.961  0.2026 -0.8666 -0.1173
   40MOL   H13643894   5.916   3.592   0.633 -0.8963  1.3480 -3.2467
   40MOL   H13743895   5.916   3.744   0.556 -0.4255 -0.0056  0.3624
   40MOL   H13843896   6.048   3.833   0.760  0.2850  0.3232 -1.2806
   40MOL   H13943897   6.129   3.721   0.647  2.0488  0.2809  2.3743
   40MOL   H14043898   6.205   3.659   0.886 -0.6775  0.9481  1.7005
   40MOL   H14143899   6.037   3.686   0.927  0.3046 -1.4196  1.3120
   40MOL   H14243900   6.096   3.451   0.957  0.5546 -0.8109 -0.5713
   40MOL   H14343901   5.980   3.451   0.843 -0.4997 -0.2696  1.3233
   40MOL   H14443902   6.269   3.478   0.754 -0.0416 -2.0585 -1.1045
   40MOL   H14543903   6.219   3.327   0.817 -0.0732  0.1646  0.5165
   40MOL   H14643904   6.107   3.468   0.575 -1.6021 -0.7936 -0.1242
   40MOL   H14743905   6.057   3.305   0.624  0.1135  0.7259  0.7635
   40MOL   H14843906   6.323   3.413   0.520 -1.2562  1.1066  0.2953
   40MOL   H14943907   6.311   3.241   0.581 -0.8251 -1.4129 -1.9705
   40MOL   H15043908   6.291   3.294   0.332  0.2628 -1.2282  0.8143
   40MOL   H15143909   6.124   3.329   0.357  0.0682  0.8651  0.9609
   40MOL   H15243910   6.124   3.091   0.461  1.5987  1.7009  1.8761
   40MOL   H15343911   6.275   3.076   0.389 -0.6418 -2.3704 -1.1054
   40MOL   H15443912   6.023   3.162   0.221 -1.5417 -2.0244 -1.5564
   40MOL   H15543913   6.067   2.996   0.243  0.6702 -1.1248  1.4604
   40MOL   H15643914   6.048   3.148   7.668 -0.7514 -0.9251 -0.9518
   40MOL   H15743915   6.317   3.090   7.580  0.3458 -0.9838 -0.4894
   40MOL   H15843916   6.207   3.210   7.510 -1.7268 -0.4024 -1.3858
   40MOL   H15943917   6.044   3.052   7.436 -0.3631  1.4274  0.1947
   40MOL   H16043918   6.101   2.924   7.521 -0.5428 -0.9131 -2.2843
   40MOL   H16143919   6.232   3.040   7.280 -0.1492 -0.7421 -0.8405
   40MOL   H16243920   6.304   2.910   7.379 -1.2471 -0.9929  1.5536
   40MOL   H16343921   6.131   2.751   7.325  3.1488  0.4921  0.1138
   40MOL   H16443922   6.015   2.874   7.274 -0.7748 -2.0596 -2.9429
   40MOL   H16543923   6.135   2.943   7.094 -3.8750  0.1798  0.3082
   40MOL   H16643924   6.081   2.778   7.088  2.6459 -1.3276 -0.1328
   40MOL   H16743925   6.377   2.839   7.155  2.0152  0.9665 -3.2229
   40MOL   H16843926   6.284   2.688   7.129  0.3987  0.4926 -0.8913
   40MOL   H16943927   6.367   2.894   6.932 -1.6607  0.9677  3.4329
   40MOL   C17043928   6.333   2.711   6.863  0.5803 -0.3019 -0.9699
   40MOL   O17143929   6.282   2.600   6.885 -0.6279 -0.0579  0.0067
   40MOL   C17243930   6.395   2.744   6.729 -0.2858 -0.3080  0.2830
   40MOL   C17343931   6.444   2.637   6.636  0.0140  0.3637  0.6095
   40MOL   C17443932   6.588   2.590   6.677 -0.3484 -0.4300  0.2218
   40MOL   C17543933   6.653   2.516   6.565  0.2304  0.3725  0.1074
   40MOL   C17643934   6.789   2.469   6.626  0.3482 -0.4226  0.0527
   40MOL   C17743935   6.864   2.374   6.540 -0.1736  0.1279 -0.5196
   40MOL   C17843936   6.995   2.323   6.592  0.6371 -0.2775  0.0418
   40MOL   C17943937   6.979   2.200   6.673  0.1195  0.8276  0.1876
   40MOL   C18043938   6.956   2.068   6.595 -0.0436  0.7197  0.2200
   40MOL   C18143939   6.896   1.956   6.677  0.4456 -0.7024 -0.6870
   40MOL   C18243940   6.984   1.879   6.779  0.3546  0.5796 -0.0689
   40MOL   O18343941   7.084   1.820   6.731  0.1705  0.4753 -0.3526
   40MOL   N18443942   6.945   1.876   6.909 -0.5365 -0.1046 -0.5445
   40MOL   C18543943   7.007   1.802   7.015 -0.1350 -0.6598 -0.5712
   40MOL   C18643944   6.936   1.837   7.142  0.6230 -0.3243  0.1624
   40MOL   C18743945   6.964   1.754   7.265  0.1470 -1.4116 -1.1092
   40MOL   C18843946   6.913   1.828   7.391  0.2293  1.0948  0.6570
   40MOL   C18943947   6.953   1.764   7.530  0.9135 -0.0875 -0.5030
   40MOL   C19043948   6.909   1.860   7.647  0.6118  0.1356  0.3134
   40MOL   N19143949   6.767   1.854   7.681  0.8265 -0.2843  0.2432
   40MOL   H19243950   6.320   2.802   6.676  1.7253  0.1444 -2.1609
   40MOL   H19343951   6.471   2.817   6.758 -0.7092 -0.1535  1.0128
   40MOL   H19443952   6.446   2.687   6.539 -1.2839  2.0837  1.4384
   40MOL   H19543953   6.371   2.558   6.617  0.7633 -0.3876  0.8274
   40MOL   H19643954   6.585   2.538   6.773  1.7718  1.5634  1.4298
   40MOL   H19743955   6.642   2.683   6.693  0.9409 -0.9617 -0.9643
   40MOL   H19843956   6.591   2.429   6.546 -0.5030  0.9137  0.0231
   40MOL   H19943957   6.669   2.579   6.478  0.9063 -1.9388 -1.4671
   40MOL   H20043958   6.850   2.558   6.633  0.7534 -0.8153  1.7394
   40MOL   H20143959   6.783   2.430   6.728  2.3484 -1.0507 -0.0499
   40MOL   H20243960   6.904   2.426   6.453  2.3394 -1.9858 -0.6950
   40MOL   H20343961   6.812   2.288   6.499  0.6942 -0.5729 -0.1809
   40MOL   H20443962   7.067   2.309   6.511  1.0748  0.5001  0.2800
   40MOL   H20543963   7.047   2.396   6.655  0.1203  0.7152 -0.6696
   40MOL   H20643964   7.067   2.185   6.735 -0.4337 -0.7317  0.6263
   40MOL   H20743965   6.891   2.207   6.737  0.5360  3.4965  0.5205
   40MOL   H20843966   7.050   2.033   6.552 -0.3470  2.0373 -1.6082
   40MOL   H20943967   6.894   2.085   6.507  0.0539 -0.1204 -0.0112
   40MOL   H21043968   6.805   1.991   6.725  1.0691 -0.0622  0.0419
   40MOL   H21143969   6.851   1.889   6.603  0.8012  0.1890 -1.7385
   40MOL   H21243970   6.857   1.918   6.936 -0.3766 -1.1398  1.6966
   40MOL   H21343971   7.113   1.824   7.025 -0.0236 -1.1183 -0.7596
   40MOL   H21443972   6.997   1.696   6.992  1.1306 -0.8475 -0.2617
   40MOL   H21543973   6.975   1.937   7.159  0.4239 -0.0170 -1.0770
   40MOL   H21643974   6.830   1.849   7.120  0.7132  0.1505 -0.0303
   40MOL   H21743975   6.920   1.655   7.256 -3.4247 -0.0906  0.7620
   40MOL   H21843976   7.069   1.739   7.292 -0.3076 -0.7197  1.1615
   40MOL   H21943977   6.805   1.847   7.395 -0.1607 -0.9781  0.3929
   40MOL   H22043978   6.940   1.933   7.384  1.4253  0.7335 -0.2298
   40MOL   H22143979   7.062   1.764   7.529  0.9351  2.2932 -1.9479
   40MOL   H22243980   6.915   1.664   7.550  1.0244 -0.1138 -0.4200
   40MOL   H22343981   6.940   1.964   7.641  0.8069  0.1016  0.7282
   40MOL   H22443982   6.959   1.828   0.047 -0.8811 -0.0084  1.1082
   40MOL   H22543983   6.742   1.779   0.052 -0.8226 -1.7946 -2.1440
   40MOL   C22643984   6.665   1.929   7.631 -0.5200  0.3108  0.2475
   40MOL   O22743985   6.695   2.024   7.559 -0.2401  0.2327  0.0779
   40MOL   C22843986   6.515   1.888   7.645 -0.0578 -0.4996  0.0651
   40MOL   C22943987   6.410   1.975   7.576  0.2054 -0.1172  0.7316
   40MOL   C23043988   6.261   1.917   7.587  0.0565 -0.7898  0.0561
   40MOL   C23143989   6.258   1.770   7.530  0.2395  0.5057  0.2458
   40MOL   C23243990   6.121   1.718   7.480  0.3972 -0.0814  0.0993
   40MOL   C23343991   6.137   1.585   7.412 -0.5737  0.8803  0.1476
   40MOL   C23443992   6.038   1.534   7.306 -0.5595  1.0289  0.3424
   40MOL   C23543993   5.906   1.475   7.351  0.1185  0.4159 -0.2203
   40MOL   C23643994   5.807   1.571   7.430 -0.3927  0.2895  0.0665
   40MOL   C23743995   5.754   1.685   7.340 -0.0889 -0.3222 -0.0588
   40MOL   C23843996   5.666   1.787   7.414 -0.4210  0.4999  0.2959
   40MOL   O23943997   5.661   1.799   7.537 -0.2947 -0.7047  0.1228
   40MOL   N24043998   5.582   1.853   7.331  0.1523 -0.0821  0.1214
   40MOL   C24143999   5.492   1.960   7.368 -0.5836 -0.2000  0.0254
   40MOL   C24244000   5.369   1.908   7.446 -0.3715  0.1101  0.0543
   40MOL   C24344001   5.265   2.015   7.485 -0.4796 -0.3244  0.6065
   40MOL   C24444002   5.154   1.966   7.565  0.0046 -0.2855 -0.8303
   40MOL   C24544003   5.195   1.918   0.012 -0.0767 -0.3910  0.6267
   40MOL   C24644004   5.079   1.918   0.109  0.0711 -0.6428 -0.2980
   40MOL   N24744005   5.110   1.845   0.230 -0.2577  0.2750 -0.0325
   40MOL   H24844006   6.503   1.893   0.061 -0.5763  0.2977 -0.0258
   40MOL   H24944007   6.514   1.783   7.615 -0.6742 -0.3341 -0.5207
   40MOL   H25044008   6.406   2.077   7.615 -1.7966 -1.0661  3.1114
   40MOL   H25144009   6.436   1.981   7.470  0.3125  1.3552  0.8339
   40MOL   H25244010   6.246   1.924   0.003 -0.3202  1.1032 -0.1058
   40MOL   H25344011   6.193   1.989   7.542 -1.8606  0.0239  4.0317
   40MOL   H25444012   6.278   1.713   7.620  2.4105  1.7417  0.5942
   40MOL   H25544013   6.334   1.755   7.452 -1.3827 -0.8977 -1.1012
   40MOL   H25644014   6.073   1.786   7.410  0.6664 -0.7591 -0.7677
   40MOL   H25744015   6.055   1.697   7.563 -1.4972  0.5862 -1.2092
   40MOL   H25844016   6.226   1.589   7.349 -0.9973 -1.6567 -0.6770
   40MOL   H25944017   6.167   1.519   7.493 -3.0734 -0.6457 -0.1084
   40MOL   H26044018   6.104   1.473   7.244 -0.9766  1.2482 -0.3228
   40MOL   H26144019   6.019   1.619   7.240 -1.5468  0.6946  0.1819
   40MOL   H26244020   5.860   1.437   7.259  2.2403  0.4052 -1.3114
   40MOL   H26344021   5.921   1.386   7.412 -1.6213 -0.2854 -0.7738
   40MOL   H26444022   5.724   1.521   7.480  0.0130  0.1601  0.6199
   40MOL   H26544023   5.855   1.620   7.515  0.2037  0.3378 -0.2929
   40MOL   H26644024   5.838   1.743   7.300  0.9920 -1.6409  0.2461
   40MOL   H26744025   5.696   1.638   7.261 -1.4272  2.1108 -0.5773
   40MOL   H26844026   5.617   1.862   7.237 -0.9467 -1.6465 -0.4534
   40MOL   H26944027   5.460   2.024   7.286 -0.4066 -0.8639 -0.5594
   40MOL   H27044028   5.535   2.028   7.441 -0.5321  0.2487 -0.4203
   40MOL   H27144029   5.404   1.853   7.533  0.0482 -0.1701 -0.2910
   40MOL   H27244030   5.319   1.840   7.377 -1.1846  0.4145  0.3270
   40MOL   H27344031   5.330   2.087   7.536 -0.8643  0.0897  0.5194
   40MOL   H27444032   5.228   2.065   7.395 -1.5625 -1.5262  0.3697
   40MOL   H27544033   5.084   1.895   7.522 -2.6087  1.6990  0.0565
   40MOL   H27644034   5.092   2.053   7.585 -0.2840 -1.3051  3.2151
   40MOL   H27744035   5.266   1.997   0.038 -0.5483 -0.0153  0.7841
   40MOL   H27844036   5.250   1.824   0.004 -1.5299 -1.3340  1.5460
   40MOL   H27944037   4.998   1.875   0.050  0.8367 -0.4525 -1.5039
   40MOL   H28044038   5.052   2.018   0.141  0.6643 -0.3332 -0.7559
   40MOL   H28144039   5.194   1.879   0.275  1.2395 -2.1429 -0.8866
   40MOL   C28244040   5.046   1.743   0.281 -0.1231 -0.8296 -0.5152
   40MOL   O28344041   4.941   1.701   0.234  0.3000  0.0121 -0.2577
   40MOL   C28444042   5.085   1.706   0.422  0.0742 -0.5197 -1.1646
   40MOL   C28544043   4.981   1.762   0.525 -0.3976  0.5474  0.4155
   40MOL   C28644044   4.979   1.913   0.550  0.0594  0.0263  0.1150
   40MOL   C28744045   4.884   1.963   0.656 -0.6322 -0.1166 -0.1766
   40MOL   C28844046   4.888   2.112   0.672 -0.2387 -0.6250  0.5547
   40MOL   C28944047   4.759   2.168   0.740  0.6448 -0.0438 -0.2994
   40MOL   C29044048   4.767   2.314   0.790 -0.7747  0.7424 -0.2734
   40MOL   C29144049   4.683   2.326   0.914  0.5566  0.3706  0.3211
   40MOL   C29244050   4.673   2.466   0.953 -0.2753  0.2483  0.0309
   40MOL   C29344051   4.552   2.547   0.903  0.7379 -0.3877  0.6128
   40MOL   C29444052   4.417   2.513   0.977 -0.1463  0.0894 -0.7667
   40MOL   O29544053   4.416   2.501   1.101 -0.4795 -1.0193 -0.2106
   40MOL   N29644054   4.305   2.487   0.907  0.0349 -0.6034 -0.0256
   40MOL   C29744055   4.165   2.475   0.948 -0.0939  0.1571  0.3078
   40MOL   C29844056   4.082   2.465   0.819  0.3204  0.2866  0.2934
   40MOL   C29944057   3.933   2.473   0.831  0.8803 -0.0513  0.1331
   40MOL   C30044058   3.865   2.440   0.693  0.1612  0.1887 -0.1190
   40MOL   C30144059   3.889   2.547   0.583  0.3265  0.5289 -0.4008
   40MOL   C30244060   3.784   2.567   0.479 -0.0870  0.4744  0.1950
   40MOL   N30344061   3.671   2.640   0.538  0.3190  0.1065  0.2868
   40MOL   H30444062   5.079   1.597   0.417  0.9321 -0.5502 -1.6265
   40MOL   H30544063   5.191   1.722   0.438 -0.4310 -0.0198  2.1722
   40MOL   H30644064   5.003   1.720   0.622  1.0233 -0.7993 -0.4743
   40MOL   H30744065   4.881   1.725   0.501 -0.5349  1.9237 -1.2924
   40MOL   H30844066   5.084   1.934   0.574 -0.0127  0.6096 -0.0599
   40MOL   H30944067   4.951   1.953   0.452  0.9950  0.2913 -0.0598
   40MOL   H31044068   4.897   1.925   0.757  2.4436  0.1447 -0.4374
   40MOL   H31144069   4.782   1.930   0.635 -0.0897 -1.1161 -1.3120
   40MOL   H31244070   4.975   2.146   0.729  0.6007 -1.6991 -0.0694
   40MOL   H31344071   4.899   2.158   0.574  3.1346 -0.8413  0.7828
   40MOL   H31444072   4.676   2.163   0.670 -0.9836 -0.6803  1.6216
   40MOL   H31544073   4.726   2.096   0.815 -1.2904  0.2733 -0.8178
   40MOL   H31644074   4.734   2.375   0.706 -1.1494  0.9951  0.0568
   40MOL   H31744075   4.870   2.337   0.818  0.1597 -1.0950 -2.0274
   40MOL   H31844076   4.731   2.271   0.995 -0.5530  0.6042  1.1483
   40MOL   H31944077   4.584   2.283   0.901  0.0053  0.9062  2.6791
   40MOL   H32044078   4.676   2.475   1.061 -0.4448 -0.0559  0.0627
   40MOL   H32144079   4.766   2.514   0.921  0.1903 -0.0723  0.8867
   40MOL   H32244080   4.565   2.655   0.913 -1.5200 -0.0127 -0.2212
   40MOL   H32344081   4.542   2.534   0.795  3.2893  0.3477  0.2538
   40MOL   H32444082   4.324   2.488   0.808  1.8724  0.8331  0.2938
   40MOL   H32544083   4.130   2.561   1.005  0.4864  1.3707 -1.1522
   40MOL   H32644084   4.149   2.382   1.003 -1.2434 -0.8052 -1.6246
   40MOL   H32744085   4.105   2.380   0.755 -0.9147  0.7961 -0.8394
   40MOL   H32844086   4.105   2.546   0.750  1.1240 -1.0990 -1.1043
   40MOL   H32944087   3.897   2.570   0.863  2.9191  1.5550 -2.2690
   40MOL   H33044088   3.898   2.395   0.899  0.4002 -0.6918 -0.8406
   40MOL   H33144089   3.906   2.345   0.659 -0.5094  0.0090 -0.4452
   40MOL   H33244090   3.762   2.430   0.726 -1.1087  1.3054 -3.5119
   40MOL   H33344091   3.983   2.524   0.531 -0.4925 -1.1428 -1.1641
   40MOL   H33444092   3.918   2.643   0.626  2.7572 -0.3271 -0.0535
   40MOL   H33544093   3.816   2.633   0.398 -0.7745 -0.2788 -0.7068
   40MOL   H33644094   3.753   2.472   0.435 -2.4697  1.5021 -0.4376
   40MOL   H33744095   3.673   2.740   0.544 -1.5624  0.1585  0.2768
   40MOL   C33844096   3.567   2.581   0.590 -0.1289 -0.0003  0.1232
   40MOL   O33944097   3.540   2.464   0.583 -0.3486  0.0694 -0.1747
   40MOL   C34044098   3.484   2.673   0.675  0.3149  0.6954 -0.2348
   40MOL   C34144099   3.403   2.605   0.786 -0.3216 -0.5244  0.1166
   40MOL   C34244100   3.277   2.543   0.744  0.0912  0.5814  0.6057
   40MOL   C34344101   3.196   2.482   0.857 -0.5024 -0.6782 -0.7109
   40MOL   C34444102   3.256   2.375   0.951  0.5742 -0.3356  0.2321
   40MOL   C34544103   3.268   2.246   0.871  0.2760 -0.6215  0.4038
   40MOL   C34644104   3.409   2.205   0.827 -0.2481  0.7333 -0.3363
   40MOL   C34744105   3.508   2.152   0.931  0.5885 -0.1092  0.2212
   40MOL   C34844106   3.654   2.147   0.882  0.7787  0.4808 -0.5540
   40MOL   C34944107   3.750   2.082   0.986 -0.1920  0.4195 -0.3321
   40MOL   C35044108   3.762   1.931   0.975 -0.6430  0.1434 -0.0665
   40MOL   O35144109   3.659   1.865   0.976  0.3675  0.0322 -0.2771
   40MOL   N35244110   3.880   1.877   0.946 -0.0332 -0.3777 -0.1290
   40MOL   C35344111   3.909   1.743   0.921  0.2088 -0.2968  0.0056
   40MOL   C35444112   4.052   1.727   0.891 -0.1458 -0.4691  0.0907
   40MOL   C35544113   4.103   1.574   0.900 -0.1061 -0.6672 -0.1179
   40MOL   C35644114   4.251   1.562   0.875  0.0913  0.2683  0.2664
   40MOL   C35744115   4.316   1.439   0.938  0.1103  0.0987  0.1397
   40MOL   C35844116   4.243   1.306   0.907 -0.2012 -0.4849  0.5554
   40MOL   N35944117   4.222   1.281   0.764  0.7380 -0.1614 -0.1646
   40MOL   H36044118   3.426   2.741   0.612  0.0525  1.2948  0.6521
   40MOL   H36144119   3.555   2.736   0.728  2.3378  0.8575 -3.0018
   40MOL   H36244120   3.468   2.543   0.847  0.0506  0.7136  1.0203
   40MOL   H36344121   3.372   2.683   0.856 -0.2255  0.8988 -1.3852
   40MOL   H36444122   3.308   2.463   0.677 -0.9957 -0.0049  0.8038
   40MOL   H36544123   3.223   2.623   0.694 -1.4323 -0.4435  0.6091
   40MOL   H36644124   3.179   2.569   0.920 -0.4207 -0.8364 -0.4683
   40MOL   H36744125   3.101   2.444   0.820 -0.9087 -0.8128  0.4441
   40MOL   H36844126   3.352   2.402   0.994 -0.1608  3.0294 -0.0393
   40MOL   H36944127   3.190   2.360   1.036  1.2042  1.4790  1.0647
   40MOL   H37044128   3.249   2.168   0.944 -1.7741  0.5541  1.1702
   40MOL   H37144129   3.189   2.238   0.796  0.0491  0.0627  0.5655
   40MOL   H37244130   3.405   2.126   0.752  1.9688  0.8778 -0.6268
   40MOL   H37344131   3.446   2.294   0.776 -1.5553  0.4849 -1.7485
   40MOL   H37444132   3.502   2.212   1.022 -0.8993 -1.0810  0.7868
   40MOL   H37544133   3.479   2.054   0.967 -0.0718 -0.2135 -0.5746
   40MOL   H37644134   3.681   2.252   0.870 -0.3321  1.1476  2.2529
   40MOL   H37744135   3.661   2.098   0.785  0.2306 -0.6781 -0.0151
   40MOL   H37844136   3.848   2.126   0.970 -0.1250  0.4311  0.1091
   40MOL   H37944137   3.725   2.110   1.088  1.0251 -0.1510  0.1310
   40MOL   H38044138   3.960   1.937   0.931 -0.6388  0.8172  1.2126
   40MOL   H38144139   3.841   1.721   0.838 -2.3044 -1.1154  2.1867
   40MOL   H38244140   3.884   1.673   1.001 -3.7059  1.2777  0.2838
   40MOL   H38344141   4.104   1.779   0.971 -0.6756  0.3078 -0.0676
   40MOL   H38444142   4.088   1.767   0.796  1.6986 -0.5434  0.7360
   40MOL   H38544143   4.069   1.535   0.997  2.6923 -0.9488  0.7863
   40MOL   H38644144   4.050   1.524   0.819  0.7210  0.3967 -1.3079
   40MOL   H38744145   4.287   1.566   0.773  0.4014 -2.4421  0.2264
   40MOL   H38844146   4.308   1.641   0.924 -0.3797  0.0769  1.1426
   40MOL   H38944147   4.342   1.457   1.043 -0.2315  0.4499  0.1690
   40MOL   H39044148   4.418   1.426   0.904  0.8012 -1.5836  2.7157
   40MOL   H39144149   4.294   1.225   0.959  1.4860 -0.2343 -0.6830
   40MOL   H39244150   4.147   1.307   0.958 -0.1341  0.3033  0.6749
   40MOL   H39344151   4.161   1.336   0.705 -0.6603 -1.1454  0.3482
   40MOL   C39444152   4.277   1.182   0.694 -0.5464 -0.2243  0.1499
   40MOL   O39544153   4.354   1.102   0.745  0.0739 -0.0880  0.7093
   40MOL   C39644154   4.261   1.175   0.541  0.4947 -0.4862  0.5639
   40MOL   C39744155   4.377   1.117   0.466 -0.5793 -0.3365  0.1222
   40MOL   C39844156   4.360   1.133   0.311  0.2307  0.0613 -0.3934
   40MOL   C39944157   4.483   1.101   0.228  0.4280  0.0483  0.3161
   40MOL   C40044158   4.537   0.956   0.249 -0.2393  0.1274  0.3493
   40MOL   C40144159   4.439   0.838   0.206  0.3273  0.3059  0.3997
   40MOL   C40244160   4.506   0.702   0.215  0.3085 -0.5194 -0.3367
   40MOL   C40344161   4.412   0.585   0.185 -0.1466  0.1854 -0.0972
   40MOL   C40444162   4.454   0.442   0.233  0.2048 -0.0208  0.0580
   40MOL   C40544163   4.384   0.332   0.136 -0.3994 -0.0895 -1.2081
   40MOL   C40644164   4.405   0.189   0.180  0.3049 -0.6026 -0.0765
   40MOL   O40744165   4.518   0.146   0.226  0.3794  0.5940  0.5351
   40MOL   N40844166   4.294   0.116   0.178 -0.1499  0.3695 -1.2899
   40MOL   C40944167   4.271   7.673   0.240 -0.3480  0.4478  0.0595
   40MOL   C41044168   4.170   7.600   0.154 -0.3481 -0.0452  0.5533
   40MOL   C41144169   4.122   7.461   0.195  0.2557 -0.0015 -0.4056
   40MOL   C41244170   4.013   7.416   0.099  0.2497 -0.2098  0.4509
   40MOL   C41344171   4.052   7.386   7.644 -0.2121 -0.0023 -0.7421
   40MOL   C41444172   3.939   7.309   7.574  0.5369  0.2229  0.2459
   40MOL   N41544173   3.819   7.386   7.559  0.3497  0.6088  0.3722
   40MOL   H41644174   4.253   1.277   0.503  2.5151 -0.5983 -0.2775
   40MOL   H41744175   4.169   1.128   0.506  0.9200 -0.5636 -0.4722
   40MOL   H41844176   4.376   1.012   0.495  2.2541 -0.1550  1.0343
   40MOL   H41944177   4.473   1.154   0.503 -0.8349  0.2898  0.1710
   40MOL   H42044178   4.325   1.233   0.284  3.2842  1.7394  1.6373
   40MOL   H42144179   4.279   1.068   0.278  0.7999 -1.2910  0.8266
   40MOL   H42244180   4.553   1.183   0.242  0.4088  0.3786 -1.3890
   40MOL   H42344181   4.455   1.115   0.123  2.0057  0.4889 -0.0699
   40MOL   H42444182   4.627   0.957   0.188 -0.1465 -1.2757  0.4361
   40MOL   H42544183   4.571   0.945   0.352  0.8570  0.9791  0.0864
   40MOL   H42644184   4.345   0.845   0.262  0.7424  0.6853  1.0502
   40MOL   H42744185   4.400   0.848   0.104  1.7636 -0.0113 -0.1915
   40MOL   H42844186   4.596   0.704   0.154 -0.6407  2.2693 -1.7295
   40MOL   H42944187   4.546   0.690   0.315  3.1876  0.8370 -1.2582
   40MOL   H43044188   4.312   0.598   0.227 -0.8218  0.0517 -1.6325
   40MOL   H43144189   4.407   0.585   0.077  0.1664  2.5616 -0.1442
   40MOL   H43244190   4.448   0.428   0.341  0.6762 -1.3585 -0.0787
   40MOL   H43344191   4.558   0.429   0.205 -0.4388  0.5401 -2.7434
   40MOL   H43444192   4.282   0.363   0.114  0.0722  2.0474 -0.4527
   40MOL   H43544193   4.421   0.336   0.034 -0.4219  0.1938 -1.2040
   40MOL   H43644194   4.211   0.172   0.165 -1.4929 -1.4654 -0.7973
   40MOL   H43744195   4.254   7.676   0.347  2.0834 -1.6222  0.5550
   40MOL   H43844196   4.363   7.621   0.215  0.1848  1.6843 -0.5680
   40MOL   H43944197   4.221   7.590   0.058 -2.1723  0.5428 -0.5085
   40MOL   H44044198   4.081   7.660   0.133  0.7572  1.3629 -0.2303
   40MOL   H44144199   4.211   7.398   0.186  0.2518 -0.0106 -0.3726
   40MOL   H44244200   4.106   7.471   0.302  1.7245  0.4614 -0.2192
   40MOL   H44344201   3.984   7.325   0.151  2.2448 -1.5376 -0.7076
   40MOL   H44444202   3.927   7.482   0.109  0.4832  0.5109 -1.9618
   40MOL   H44544203   4.086   7.472   7.587  0.5921  0.2513  0.1076
   40MOL   H44644204   4.136   7.318   7.650  0.6996  0.9933 -1.8907
   40MOL   H44744205   3.983   7.273   7.481 -0.7365 -0.3151 -0.1621
   40MOL   H44844206   3.911   7.220   7.630 -2.2079 -0.2739 -1.8463
   40MOL   H44944207   3.828   7.482   7.529  1.6131  1.0648  2.1772
   40MOL   C45044208   3.693   7.335   7.555 -0.0105 -0.2770 -0.9020
   40MOL   O45144209   3.667   7.214   7.570  0.1071  0.4243 -0.2956
   40MOL   C45244210   3.585   7.424   7.498  0.9342  0.1963 -0.1915
   40MOL   C45344211   3.457   7.411   7.580  0.4982  0.3065 -0.4869
   40MOL   C45444212   3.351   7.501   7.523 -0.1234  0.2645  0.1063
   40MOL   C45544213   3.220   7.483   7.606 -0.5205  0.0850  0.3583
   40MOL   C45644214   3.222   7.569   0.048 -0.3948 -0.3243  0.1765
   40MOL   C45744215   3.081   7.562   0.110  0.5338  0.1434 -0.1167
   40MOL   C45844216   3.058   7.676   0.216 -0.7443 -0.3415  0.2286
   40MOL   C45944217   2.923   7.671   0.291  0.0944 -0.2682 -0.0821
   40MOL   C46044218   2.899   0.096   0.399 -0.1142 -0.7484  0.2029
   40MOL   C46144219   2.882   0.240   0.344 -0.3654  0.4329  0.0566
   40MOL   C46244220   2.761   0.244   0.247 -0.2414 -0.1244 -1.0126
   40MOL   O46344221   2.658   0.184   0.271  0.3086  0.5833 -0.8802
   40MOL   N46444222   2.771   0.330   0.145 -0.1211 -0.3215 -0.0059
   40MOL   C46544223   2.664   0.351   0.045 -0.0555  0.0254 -0.1325
   40MOL   C46644224   2.655   0.243   7.630 -0.1237 -0.3654 -0.4324
   40MOL   C46744225   2.566   0.285   7.511  0.5590 -0.4981 -0.0257
   40MOL   C46844226   2.545   0.167   7.418  0.3431 -0.5082 -0.5044
   40MOL   C46944227   2.451   0.188   7.294 -0.3549  0.2676 -0.0808
   40MOL   C47044228   2.432   0.066   7.206 -0.1544  0.1963  0.9301
   40MOL   N47144229   2.378   0.111   7.079 -0.4850  0.5318  0.2604
   40MOL   H47244230   3.617   7.528   7.509  2.5872 -0.5258  2.1254
   40MOL   H47344231   3.558   7.397   7.395 -0.4367 -0.0715  0.2303
   40MOL   H47444232   3.473   7.432   7.686  0.7944  0.9301 -0.6537
   40MOL   H47544233   3.427   7.307   7.571 -0.2335  0.5176 -0.5245
   40MOL   H47644234   3.326   7.467   7.422 -0.6345 -1.4479  0.8054
   40MOL   H47744235   3.382   7.606   7.516  0.4117  0.1146  0.2235
   40MOL   H47844236   3.203   7.378   7.634 -2.9525  0.5975  0.8546
   40MOL   H47944237   3.136   7.503   7.541 -0.4178  0.8618  0.4596
   40MOL   H48044238   3.244   7.670   0.014  0.7703 -1.3020 -2.0581
   40MOL   H48144239   3.310   7.538   0.105 -0.4627  1.0570  1.0355
   40MOL   H48244240   3.064   7.465   0.155  2.6023 -0.9499 -1.6390
   40MOL   H48344241   2.998   7.564   0.039  0.5862 -1.9457 -0.2579
   40MOL   H48444242   3.143   7.685   0.284  0.7944  1.7186 -1.8911
   40MOL   H48544243   3.063   0.082   0.167 -0.5083 -0.3147  0.3045
   40MOL   H48644244   2.845   7.665   0.215  0.9710 -1.4286 -0.9296
   40MOL   H48744245   2.916   7.586   0.358 -2.3464  0.3739  0.5265
   40MOL   H48844246   2.980   0.101   0.471  1.6743 -0.2546 -1.7702
   40MOL   H48944247   2.813   0.069   0.459  0.0203  0.7036  1.0793
   40MOL   H49044248   2.873   0.307   0.429 -0.6830  1.9346 -1.1506
   40MOL   H49144249   2.975   0.273   0.299  0.5355  0.0289  1.6049
   40MOL   H49244250   2.841   0.402   0.133 -0.1528 -0.0000  1.7174
   40MOL   H49344251   2.679   0.451   0.004 -0.0265  0.0138 -0.1500
   40MOL   H49444252   2.566   0.345   0.092  0.6392  0.8166  1.4904
   40MOL   H49544253   2.759   0.236   7.599 -0.4902  0.4463 -1.9448
   40MOL   H49644254   2.613   0.151   7.671  0.3051  0.4207  1.8206
   40MOL   H49744255   2.599   0.372   7.455  1.0872  0.3161  1.5282
   40MOL   H49844256   2.469   0.316   7.552  0.6724  0.3504 -0.3773
   40MOL   H49944257   2.519   0.081   7.481  2.1825 -1.3952 -0.9142
   40MOL   H50044258   2.641   0.133   7.379  0.0339 -1.5896 -0.3392
   40MOL   H50144259   2.349   0.211   7.323 -0.0126  1.4069  0.2488
   40MOL   H50244260   2.475   0.275   7.233 -0.6182  1.5689  1.6012
   40MOL   H50344261   2.532   0.031   7.181 -0.8991 -1.0431 -0.3934
   40MOL   H50444262   2.371   7.684   7.259  0.1737  0.2630  1.3999
   40MOL   H50544263   2.450   0.126   7.010 -0.7944  0.5691 -0.0594
   40MOL   C50644264   2.253   0.154   7.067  0.4676 -0.0434 -0.0377
   40MOL   O50744265   2.167   0.129   7.153  0.3580 -0.0207 -0.0124
   40MOL   C50844266   2.215   0.219   6.931  0.2780  0.0284 -0.1922
   40MOL   C50944267   2.079   0.160   6.874  0.0881 -0.6698 -0.0521
   40MOL   C51044268   2.045   0.182   6.728  0.8382  0.2887 -0.2897
   40MOL   C51144269   1.898   0.151   6.700 -0.1543  0.0559  0.2712
   40MOL   C51244270   1.869   0.154   6.547 -0.0464 -0.2842 -0.1456
   40MOL   C51344271   1.924   0.029   6.472  0.2261  0.5970  0.5343
   40MOL   C51444272   1.908   0.033   6.316 -0.2112  0.1825 -0.4124
   40MOL   C51544273   1.949   7.590   6.258  0.1775  0.2121  0.5411
   40MOL   C51644274   1.903   7.458   6.329 -0.1114 -0.2170 -0.1973
   40MOL   C51744275   1.945   7.335   6.253  0.7887 -0.1645  0.1483
   40MOL   C51844276   2.091   7.297   6.269  0.2194 -0.1320 -0.0885
   40MOL   O51944277   2.178   7.382   6.289 -0.0254  0.4523 -0.1725
   40MOL   N52044278   2.122   7.168   6.265 -0.2709 -0.1638  0.3778
   40MOL   C52144279   2.246   7.103   6.294  0.3180  0.0426  0.2574
   40MOL   C52244280   2.250   7.015   6.422  0.0861 -0.1523  0.6109
   40MOL   C52344281   2.206   7.085   6.555  0.3615  0.4241  0.2229
   40MOL   C52444282   2.228   6.993   6.685  0.1738 -0.0371  0.4803
   40MOL   C52544283   2.149   6.856   6.677 -0.1825 -0.4664 -0.0253
   40MOL   C52644284   2.155   6.770   6.805  0.0535 -0.0340 -0.2638
   40MOL   N52744285   2.129   6.840   6.929 -0.3751 -0.4090  0.0860
   40MOL   H52844286   2.297   0.195   6.864  0.9193  0.2340  0.4993
   40MOL   H52944287   2.213   0.326   6.954  0.7091  0.0903 -0.4399
   40MOL   H53044288   1.995   0.204   6.927 -0.1465  1.2084 -1.9266
   40MOL   H53144289   2.070   0.055   6.903 -1.8169  0.0260  2.0346
   40MOL   H53244290   2.105   0.118   6.663  1.1552  1.4498 -1.1456
   40MOL   H53344291   2.073   0.283   6.697 -0.4011  0.4755 -0.8338
   40MOL   H53444292   1.860   0.062   6.750  1.2249 -1.3340 -1.0696
   40MOL   H53544293   1.839   0.228   6.749 -0.2289 -0.1137  0.4488
   40MOL   H53644294   1.762   0.146   6.528 -0.2066  0.1802  0.5593
   40MOL   H53744295   1.897   0.248   6.498 -2.4863  0.4956 -0.1021
   40MOL   H53844296   2.029   0.012   6.493  0.3333  0.1108 -0.3573
   40MOL   H53944297   1.868   7.637   6.513 -1.9860  1.0546 -1.4187
   40MOL   H54044298   1.804   0.063   6.312 -0.2340  0.1109 -0.3636
   40MOL   H54144299   1.977   0.107   6.274 -0.5509  0.5656 -0.2933
   40MOL   H54244300   1.906   7.581   6.158 -2.3131 -0.8806  1.6651
   40MOL   H54344301   2.057   7.601   6.248  0.1195  0.8607  0.5975
   40MOL   H54444302   1.794   7.463   6.335 -0.1690  0.2703 -1.5934
   40MOL   H54544303   1.940   7.456   6.432  2.6302  1.5767 -1.1007
   40MOL   H54644304   1.877   7.253   6.276  2.5587 -1.7164 -0.0203
   40MOL   H54744305   1.929   7.357   6.147 -1.5013  0.3764  0.5837
   40MOL   H54844306   2.044   7.108   6.244 -0.2662  0.9707 -3.4202
   40MOL   H54944307   2.314   7.187   6.286 -2.6525  2.3185 -2.2908
   40MOL   H55044308   2.272   7.040   6.209 -0.1228  0.2530 -0.0350
   40MOL   H55144309   2.355   6.993   6.437  0.2928 -0.8276 -1.6960
   40MOL   H55244310   2.205   6.917   6.405 -1.2713  0.5931 -0.1881
   40MOL   H55344311   2.102   7.116   6.549  0.2605  0.4053  1.7411
   40MOL   H55444312   2.261   7.178   6.567  2.1902 -0.2299 -2.5690
   40MOL   H55544313   2.204   7.053   6.773  0.7925  1.1553 -0.1473
   40MOL   H55644314   2.335   6.982   6.698  0.1610 -1.6903 -0.7380
   40MOL   H55744315   2.045   6.885   6.659  0.0645 -0.9916 -2.4889
   40MOL   H55844316   2.180   6.802   6.588 -0.0380 -0.2053 -0.1346
   40MOL   H55944317   2.100   6.676   6.791  1.9971 -1.3700  0.7627
   40MOL   H56044318   2.256   6.730   6.817  0.3388  0.6633 -0.3696
   40MOL   H56144319   2.195   6.910   6.960 -1.4601  0.5395  0.2974
   40MOL   C56244320   2.019   6.829   7.006  0.0303  0.6133  0.2103
   40MOL   O56344321   1.928   6.752   6.980 -0.1185  1.2093 -0.5856
   40MOL   C56444322   1.996   6.933   7.123 -0.2296  0.0885  0.2845
   40MOL   C56544323   1.868   6.923   7.215 -0.7488 -0.3618 -0.5163
   40MOL   C56644324   1.911   6.882   7.359  0.5235 -0.7537 -0.2914
   40MOL   C56744325   1.798   6.868   7.452  0.2200 -0.0355 -0.2918
   40MOL   C56844326   1.826   6.779   7.577 -0.3662  0.7724  0.3220
   40MOL   C56944327   1.907   6.839   0.002 -0.2320  0.2960  0.5177
   40MOL   C57044328   1.931   6.730   0.111  0.2737 -0.0779  0.2875
   40MOL   C57144329   1.956   6.805   0.237 -0.4418 -0.8808 -0.7209
   40MOL   C57244330   2.025   6.711   0.346 -0.1056  0.4053 -0.2534
   40MOL   C57344331   2.057   6.771   0.481  0.1555  0.2974  0.2989
   40MOL   C57444332   1.931   6.824   0.555  0.2154  0.3770 -0.5030
   40MOL   O57544333   1.822   6.785   0.519  0.2917  0.3628  0.6100
   40MOL   N57644334   1.945   6.920   0.651 -0.0169  0.3287 -0.5903
   40MOL   C57744335   1.847   7.005   0.721  0.3083 -0.5062  0.0741
   40MOL   C57844336   1.893   7.040   0.864  0.0327  0.9858 -0.0963
   40MOL   C57944337   1.786   7.108   0.952 -0.5227 -0.3602  0.4970
   40MOL   C58044338   1.775   7.258   0.939  0.0484 -0.4144 -0.1925
   40MOL   C58144339   1.664   7.334   1.022  0.0492  0.5265  0.2047
   40MOL   C58244340   1.670   7.489   0.994 -0.5068  0.3228  0.2977
   40MOL   N58344341   1.543   7.559   0.997 -0.1707 -0.1442 -0.0307
   40MOL   H58444342   2.078   6.924   7.195 -1.7304  0.9706  2.1247
   40MOL   H58544343   1.994   7.021   7.059  0.3065  0.4836  0.7992
   40MOL   H58644344   1.831   7.026   7.213 -1.2355 -0.4716  1.6645
   40MOL   H58744345   1.798   6.843   7.194 -0.4757 -0.9132  0.6803
   40MOL   H58844346   1.971   6.968   7.388  0.8095 -1.5795  1.6518
   40MOL   H58944347   1.970   6.790   7.369 -0.9432 -1.8274 -1.1770
   40MOL   H59044348   1.764   6.964   7.491 -1.7818 -0.9532  0.3077
   40MOL   H59144349   1.707   6.832   7.405  0.1540 -1.1808  0.6801
   40MOL   H59244350   1.738   6.734   7.622  0.4288 -2.1733 -0.9955
   40MOL   H59344351   1.893   6.703   7.538 -0.2073  0.4548  1.2052
   40MOL   H59444352   2.004   6.851   7.646  0.2143  0.6754  1.5179
   40MOL   H59544353   1.854   6.927   0.037  2.1024  1.7836  0.3965
   40MOL   H59644354   1.846   6.665   0.129 -1.8122  2.4711 -0.0209
   40MOL   H59744355   2.014   6.665   0.083  2.3402  2.2731  0.7647
   40MOL   H59844356   1.861   6.838   0.279 -0.9492 -0.3107 -2.2968
   40MOL   H59944357   2.022   6.891   0.226 -0.6270 -0.5465  0.7250
   40MOL   H60044358   2.113   6.656   0.312  0.4457  2.7022 -2.6674
   40MOL   H60144359   1.969   6.618   0.353  2.3295 -1.1447 -0.7587
   40MOL   H60244360   2.109   6.692   0.536  1.4604 -0.0577 -1.4143
   40MOL   H60344361   2.120   6.859   0.467 -0.1958  0.5914  0.5465
   40MOL   H60444362   2.039   6.950   0.672  0.5137  0.1032 -2.5546
   40MOL   H60544363   1.754   6.949   0.725 -0.9942  1.5348 -0.7746
   40MOL   H60644364   1.821   7.098   0.669 -0.9583 -1.9931 -2.0580
   40MOL   H60744365   1.981   7.104   0.861 -0.4686  1.5841 -2.2198
   40MOL   H60844366   1.913   6.952   0.927 -2.2808  0.6109  0.1520
   40MOL   H60944367   1.789   7.068   1.053  0.4894 -2.0322 -0.1654
   40MOL   H61044368   1.689   7.062   0.929 -1.9076  1.2269  2.9154
   40MOL   H61144369   1.871   7.306   0.956  0.1766 -1.2963  1.7294
   40MOL   H61244370   1.752   7.278   0.835 -0.4894  0.6353  0.1196
   40MOL   H61344371   1.670   7.318   1.129  0.3154  0.0803  0.1228
   40MOL   H61444372   1.570   7.285   0.997  0.3042 -0.0422  0.3583
   40MOL   H61544373   1.736   7.536   1.066 -1.3631  2.3899 -0.2262
   40MOL   H61644374   1.715   7.507   0.896  1.2570  0.5402  1.1332
   40MOL   H61744375   1.488   7.529   1.076  2.9656 -1.1086  1.8788
   40MOL   C61844376   1.504   7.663   0.930  0.0938  0.3755  0.5963
   40MOL   O61944377   1.403   0.030   0.959 -0.2461 -0.7671  0.2292
   40MOL   C62044378   1.590   0.021   0.811  0.1599 -0.2031 -0.4787
   40MOL   C62144379   1.543   0.149   0.743 -0.2672 -0.2053 -0.2923
   40MOL   C62244380   1.629   0.170   0.611  0.0355 -0.0943 -0.5766
   40MOL   C62344381   1.559   0.270   0.515  0.6369  0.1522  0.5926
   40MOL   C62444382   1.621   0.314   0.378 -0.2620  0.0613 -0.1331
   40MOL   C62544383   1.666   0.198   0.296  0.2065  0.4784  0.0981
   40MOL   C62644384   1.570   0.102   0.232 -0.0270 -0.3566 -0.0262
   40MOL   C62744385   1.627   0.026   0.111  0.3219 -0.3202  0.1061
   40MOL   C62844386   1.720   7.598   0.143 -0.0176  0.0333  0.4385
   40MOL   C62944387   1.772   7.522   0.026 -0.3377  0.0283  0.1454
   40MOL   C63044388   1.662   7.435   7.658 -0.8469  0.2511 -0.5637
   40MOL   O63144389   1.616   7.347   0.036 -1.1539  0.1472 -0.1233
   40MOL   N63244390   1.624   7.466   7.531  0.2071 -0.1462 -1.2175
   40MOL   C63344391   1.522   7.397   7.455 -0.4210 -0.0143 -0.4352
   40MOL   C63444392   1.579   7.285   7.359 -0.4809 -0.1956  0.2602
   40MOL   C63544393   1.470   7.200   7.277  0.1622  0.6707  0.7423
   40MOL   C63644394   1.545   7.085   7.205  0.2919  0.3696 -0.5819
   40MOL   C63744395   1.457   7.011   7.106 -0.4720  0.7154 -0.3538
   40MOL   C63844396   1.525   6.893   7.041  0.0183  0.8683  0.3039
   40MOL   N63944397   1.632   6.931   6.955  0.3502 -0.2832 -0.3716
   40MOL   H64044398   1.590   7.638   0.731  2.9214 -1.4072  0.5676
   40MOL   H64144399   1.694   0.037   0.839  0.5244  0.2216 -2.0267
   40MOL   H64244400   1.542   0.243   0.798 -0.4997  1.3070 -2.7889
   40MOL   H64344401   1.442   0.129   0.707 -0.1894 -2.2379  0.5251
   40MOL   H64444402   1.646   0.077   0.557 -0.0160  0.3713 -1.3994
   40MOL   H64544403   1.733   0.195   0.635 -1.0173  2.2645  1.7510
   40MOL   H64644404   1.464   0.223   0.491 -0.1713  1.6149  0.8710
   40MOL   H64744405   1.533   0.358   0.575  0.2475  0.1835  0.3796
   40MOL   H64844406   1.545   0.377   0.332  0.8833  1.2578 -0.4264
   40MOL   H64944407   1.705   0.376   0.409  0.4360 -0.5780 -0.7292
   40MOL   H65044408   1.751   0.148   0.342 -0.2317 -0.5769 -0.2216
   40MOL   H65144409   1.706   0.249   0.208 -1.4535  2.6452  0.5395
   40MOL   H65244410   1.541   0.026   0.305  1.2326  0.3520  1.2293
   40MOL   H65344411   1.468   0.137   0.215  0.5667  1.7984  0.6544
   40MOL   H65444412   1.534   7.679   0.070 -0.6965  1.8518  0.3217
   40MOL   H65544413   1.659   0.101   0.038 -0.2746 -2.0260 -1.9626
   40MOL   H65644414   1.686   7.529   0.220  0.7048 -1.1411 -0.2777
   40MOL   H65744415   1.809   7.626   0.198  0.7841  0.5600 -1.0849
   40MOL   H65844416   1.837   7.586   7.657 -0.6690 -0.4195 -0.6891
   40MOL   H65944417   1.837   7.451   0.077  0.0452 -0.6217 -1.2334
   40MOL   H66044418   1.694   7.518   7.481  2.6486 -3.4214 -1.3457
   40MOL   H66144419   1.440   7.359   7.516  0.1498  0.3919  0.5960
   40MOL   H66244420   1.478   7.478   7.397  1.7396  1.2981 -0.3247
   40MOL   H66344421   1.617   7.205   7.423 -1.7068  0.6106  2.0435
   40MOL   H66444422   1.666   7.316   7.302  0.2810  1.5649  2.3103
   40MOL   H66544423   1.386   7.166   7.338  0.0713 -1.1682 -0.3913
   40MOL   H66644424   1.425   7.269   7.205  0.7358 -0.4430 -0.6929
   40MOL   H66744425   1.581   7.004   7.268  0.8973  0.3546 -0.9447
   40MOL   H66844426   1.634   7.123   7.155  0.2406 -1.4274 -2.1285
   40MOL   H66944427   1.368   6.979   7.159 -0.3290  0.0922 -0.4893
   40MOL   H67044428   1.431   7.087   7.032  0.4978  0.0935 -1.3561
   40MOL   H67144429   1.575   6.832   7.117  1.0261  1.2654 -0.0414
   40MOL   H67244430   1.461   6.822   6.989  1.1691  0.0350  0.0012
   40MOL   H67344431   1.723   6.933   7.000 -0.2729  1.5144  0.8601
   40MOL   C67444432   1.636   6.918   6.821  0.7251  0.3147 -1.2320
   40MOL   O67544433   1.539   6.883   6.749  0.3104  0.2288 -0.5111
   40MOL   C67644434   1.767   6.941   6.763  0.6956 -0.7868 -0.9129
   40MOL   C67744435   1.765   7.010   6.625 -0.5258 -0.0304 -0.3632
   40MOL   C67844436   1.719   7.155   6.632  0.0691  0.3305 -0.0533
   40MOL   C67944437   1.823   7.249   6.699 -0.7976 -0.1395 -0.3291
   40MOL   C68044438   1.777   7.400   6.701  0.7153 -0.0466  0.1149
   40MOL   C68144439   1.644   7.427   6.778 -0.0182 -0.2836 -0.4376
   40MOL   C68244440   1.658   7.423   6.932  0.0683  0.3450  0.9235
   40MOL   C68344441   1.749   7.532   6.992  0.1778  0.3344  0.7299
   40MOL   C68444442   1.744   7.557   7.144 -0.2317  0.0204 -0.5350
   40MOL   C68544443   1.852   7.664   7.174 -0.7263  0.1445 -0.4049
   40MOL   C68644444   1.874   7.681   7.319 -0.7539  0.1163 -0.5994
   40MOL   O68744445   1.797   7.622   7.394  0.0072  0.0945  0.0891
   40MOL   N68844446   1.959   0.085   7.357 -0.5894  0.2569 -0.8627
   40MOL   C68944447   1.982   0.133   7.493  0.4440 -0.4738  0.2870
   40MOL   C69044448   2.096   0.049   7.556  0.2424 -0.1016 -0.7872
   40MOL   C69144449   2.140   0.089   0.013  0.7376 -0.1962 -0.0296
   40MOL   C69244450   2.241   0.002   0.085  0.1258  0.5087 -0.1175
   40MOL   C69344451   2.300   0.050   0.218 -0.2521  0.3999  0.1668
   40MOL   C69444452   2.388   7.649   0.303 -0.4069 -0.2648  0.5676
   40MOL   N69544453   2.510   7.614   0.229  0.1709 -0.2976 -0.1895
   40MOL   H69644454   1.824   6.848   6.761 -1.4387 -2.1358 -0.7849
   40MOL   H69744455   1.819   6.997   6.840  0.4118 -1.7284 -0.0338
   40MOL   H69844456   1.692   6.963   6.558 -0.1697  0.4114 -1.0692
   40MOL   H69944457   1.852   6.990   6.562  0.0885 -1.0272  0.7771
   40MOL   H70044458   1.715   7.174   6.525  0.8204 -2.5036 -0.6341
   40MOL   H70144459   1.619   7.168   6.674 -1.0526 -2.0792 -1.8219
   40MOL   H70244460   1.924   7.241   6.658  0.0241  1.0026  1.4023
   40MOL   H70344461   1.834   7.216   6.802 -1.1748  0.1041 -0.2100
   40MOL   H70444462   1.750   7.433   6.600 -0.6411  0.3351  0.5827
   40MOL   H70544463   1.851   7.471   6.736 -0.3011  1.6258 -1.0575
   40MOL   H70644464   1.611   7.529   6.759 -0.2864 -0.6685 -2.1072
   40MOL   H70744465   1.555   7.368   6.759 -0.6826  0.4348  0.3803
   40MOL   H70844466   1.553   7.427   6.961 -0.2803 -0.9152 -0.1164
   40MOL   H70944467   1.694   7.324   6.959  0.4987  0.0163 -0.8432
   40MOL   H71044468   1.851   7.512   6.962 -0.7438  0.5383 -2.7600
   40MOL   H71144469   1.733   7.625   6.938 -0.0905  0.3490  0.8322
   40MOL   H71244470   1.775   7.465   7.193  1.7500  0.6520 -0.5759
   40MOL   H71344471   1.645   7.569   7.189 -0.1173 -1.1856  0.0526
   40MOL   H71444472   1.946   7.623   7.136 -0.5111 -1.1561  1.4586
   40MOL   H71544473   1.823   0.066   7.128 -1.3104 -0.5417 -1.4435
   40MOL   H71644474   2.021   0.123   7.288  0.3100  0.2336 -0.0726
   40MOL   H71744475   2.006   0.240   7.492  2.0769 -0.8253 -2.5251
   40MOL   H71844476   1.889   0.127   7.550 -2.0846  2.0046 -3.3448
   40MOL   H71944477   2.187   0.047   7.496  1.2337  0.5881  0.6662
   40MOL   H72044478   2.067   7.636   7.556 -0.2400  0.0153  0.4638
   40MOL   H72144479   2.172   0.192   0.028  1.1139 -0.6419  2.4128
   40MOL   H72244480   2.049   0.100   0.073  1.0393 -0.5696  0.4996
   40MOL   H72344481   2.324   7.677   0.016 -1.2104 -0.1869 -1.6262
   40MOL   H72444482   2.195   7.595   0.096  0.2243  0.7837  3.2553
   40MOL   H72544483   2.209   0.068   0.276 -0.3435 -2.1956  0.9128
   40MOL   H72644484   2.354   0.143   0.209 -0.0505  0.2453 -0.2003
   40MOL   H72744485   2.414   7.687   0.402 -0.0508  1.9428 -0.3560
   40MOL   H72844486   2.330   7.560   0.330  0.5211 -1.1134 -0.1958
   40MOL   H72944487   2.590   7.675   0.231  1.1390 -1.5852  1.6892
   40MOL   C73044488   2.523   7.495   0.181 -0.3590  0.2185 -0.4912
   40MOL   O73144489   2.431   7.413   0.188  0.1808 -0.4510 -0.7015
   40MOL   C73244490   2.646   7.465   0.096 -0.5341 -0.0318 -0.5751
   40MOL   C73344491   2.712   7.329   0.128  0.5194 -0.4250  0.0369
   40MOL   C73444492   2.811   7.285   0.018  0.0824 -0.3389  0.2612
   40MOL   C73544493   2.877   7.157   0.064  0.3368 -0.4087  0.0464
   40MOL   C73644494   3.007   7.127   7.673 -0.1189  0.5863 -0.0395
   40MOL   C73744495   3.003   7.141   7.517  0.6167  0.1976 -0.7235
   40MOL   C73844496   3.144   7.137   7.463 -0.3786  1.0261  0.1133
   40MOL   C73944497   3.154   7.173   7.311 -0.2424  0.7559 -0.0851
   40MOL   C74044498   3.293   7.174   7.251 -0.6086  0.0005 -0.0236
   40MOL   C74144499   3.291   7.184   7.101 -0.2794  0.1658  0.2087
   40MOL   C74244500   3.427   7.158   7.033 -0.5847 -0.3593 -0.0832
   40MOL   O74344501   3.527   7.135   7.104  0.3371  0.3000 -0.1031
   40MOL   N74444502   3.425   7.152   6.900  0.1251 -0.2790  0.2876
   40MOL   C74544503   3.549   7.117   6.820  0.1450 -0.1137 -0.1672
   40MOL   C74644504   3.528   7.087   6.670  0.0792  0.1505 -0.3333
   40MOL   C74744505   3.657   7.040   6.593 -0.6781  0.1765  0.4825
   40MOL   C74844506   3.611   6.994   6.450 -0.1429 -0.0645 -1.0036
   40MOL   C74944507   3.713   6.905   6.375  0.5495 -0.4628  0.2620
   40MOL   C75044508   3.671   6.877   6.230 -0.2562 -0.3881 -0.6824
   40MOL   N75144509   3.762   6.790   6.164 -0.0050  0.6099  0.4506
   40MOL   H75244510   2.712   7.551   0.103  0.8694 -1.0591 -0.9463
   40MOL   H75344511   2.611   7.469   7.685  1.5579 -1.5177 -1.3913
   40MOL   H75444512   2.639   7.250   0.142 -1.4122  1.0389 -1.5037
   40MOL   H75544513   2.766   7.342   0.222  3.8186  0.0806 -1.8625
   40MOL   H75644514   2.891   7.358   0.007 -2.0468  1.8828 -1.0436
   40MOL   H75744515   2.768   7.269   7.611  1.0951  1.6338 -0.5332
   40MOL   H75844516   2.803   7.076   0.058 -2.5136  2.2347 -2.3038
   40MOL   H75944517   2.904   7.159   0.170  0.0084 -0.8483  0.1412
   40MOL   H76044518   3.035   7.024   0.005  0.4598  0.5234 -1.0073
   40MOL   H76144519   3.092   7.180   0.027 -1.2175  1.8634  0.5629
   40MOL   H76244520   2.922   7.085   7.471  0.3727 -1.0551  1.1615
   40MOL   H76344521   2.961   7.237   7.488 -0.9630 -1.0002 -2.4680
   40MOL   H76444522   3.216   7.194   7.521 -1.4908  1.2916  1.2798
   40MOL   H76544523   3.172   7.032   7.476  2.1974  2.1016  4.0029
   40MOL   H76644524   3.097   7.094   7.263 -2.3053  1.5450  1.0005
   40MOL   H76744525   3.110   7.269   7.285  1.3127  0.9612 -2.0200
   40MOL   H76844526   3.335   7.081   7.289  0.7192 -0.3020 -2.1223
   40MOL   H76944527   3.350   7.259   7.289 -0.6318  0.0777 -0.1603
   40MOL   H77044528   3.224   7.107   7.063 -1.3105 -1.0685  4.2624
   40MOL   H77144529   3.255   7.285   7.078 -0.5393  0.3126  1.2365
   40MOL   H77244530   3.337   7.162   6.852  0.1379 -0.4908  0.2188
   40MOL   H77344531   3.607   7.040   6.871  1.3871 -0.2920 -1.8225
   40MOL   H77444532   3.604   7.211   6.819  1.0279 -0.4749  3.8912
   40MOL   H77544533   3.487   7.179   6.630 -0.1615  0.9906  1.7518
   40MOL   H77644534   3.440   7.023   6.656  0.7530 -0.9127  0.1986
   40MOL   H77744535   3.701   6.954   6.644  0.6405 -1.1759 -2.7995
   40MOL   H77844536   3.744   7.105   6.590 -1.3158  1.1044  1.6428
   40MOL   H77944537   3.525   6.927   6.454 -1.0613  1.1296 -0.4566
   40MOL   H78044538   3.589   7.092   6.408  2.8768  0.5174 -1.2904
   40MOL   H78144539   3.727   6.814   6.435  2.2020  0.5036  1.3892
   40MOL   H78244540   3.808   6.958   6.372 -0.6433  1.8298  2.0977
   40MOL   H78344541   3.568   6.846   6.216 -1.0254  1.0508  1.4246
   40MOL   H78444542   3.670   6.968   6.170 -1.4239 -0.8181 -1.3090
   40MOL   H78544543   3.843   6.751   6.212 -0.0256  1.3907  1.1314
   40MOL   C78644544   3.723   6.719   6.053 -0.5474  0.7307 -0.1034
   40MOL   O78744545   3.611   6.736   6.002 -0.4399 -0.3563  0.3735
   40MOL   C78844546   3.815   6.602   6.003  0.1098 -0.3191  0.4180
   40MOL   C78944547   3.759   6.515   5.890 -0.3007 -0.3458 -0.0658
   40MOL   C79044548   3.644   6.426   5.941 -0.7748 -0.1575  1.0041
   40MOL   C79144549   3.691   6.327   6.047  0.0903 -0.2742  0.3301
   40MOL   C79244550   3.590   6.214   6.073 -0.0967 -0.1188 -0.5370
   40MOL   C79344551   3.437   6.243   6.078 -0.8313 -0.1940  0.4010
   40MOL   C79444552   3.341   6.122   6.098 -0.3255 -0.5331  0.8315
   40MOL   C79544553   3.343   6.008   5.992 -0.2252  0.1190 -0.0609
   40MOL   C79644554   3.269   5.878   6.037  0.4589  0.6295  0.3765
   40MOL   C79744555   3.244   5.760   5.937 -0.3902 -0.0952  0.6382
   40MOL   C79844556   3.145   5.653   5.990 -0.5361 -0.8383 -0.2211
   40MOL   O79944557   3.050   5.686   6.054  0.1090 -0.1239 -0.0091
   40MOL   N80044558   3.159   5.532   5.941  0.1784 -1.1467 -0.2556
   40MOL   C80144559   3.063   5.428   5.951 -0.1941  0.4238 -0.1689
   40MOL   C80244560   3.127   5.288   5.985 -0.4615 -0.0486 -0.3529
   40MOL   C80344561   3.026   5.193   6.052  0.5698  0.4946  0.1229
   40MOL   C80444562   3.068   5.049   6.073  1.0326 -0.3554  0.1861
   40MOL   C80544563   2.954   4.961   6.131 -0.7364 -0.0722  0.0080
   40MOL   C80644564   2.954   4.820   6.076 -0.1722 -0.3733 -0.2361
   40MOL   N80744565   3.066   4.748   6.129 -0.1199  0.5520  0.1894
   40MOL   H80844566   3.855   6.541   6.084  1.0156  0.3654  0.4947
   40MOL   H80944567   3.904   6.648   5.962 -0.4833  2.0841  1.7134
   40MOL   H81044568   3.734   6.587   5.813  2.2682  2.3431  1.4717
   40MOL   H81144569   3.832   6.449   5.843 -0.4759 -0.3872 -0.2782
   40MOL   H81244570   3.611   6.367   5.856  1.6690  0.5547 -0.4976
   40MOL   H81344571   3.557   6.476   5.984 -1.1854 -0.7712  0.8896
   40MOL   H81444572   3.788   6.279   6.031  0.3949  0.6285 -0.5565
   40MOL   H81544573   3.702   6.387   6.137  1.5908 -0.2899  0.1835
   40MOL   H81644574   3.606   6.137   5.997 -2.0472 -0.4359 -0.6710
   40MOL   H81744575   3.605   6.168   6.171  1.1607  0.4585 -0.4584
   40MOL   H81844576   3.418   6.313   6.159 -5.1342 -0.5978 -0.1734
   40MOL   H81944577   3.403   6.297   5.989  2.1035 -0.2646 -0.8196
   40MOL   H82044578   3.375   6.081   6.193 -1.3100  0.8750  1.8158
   40MOL   H82144579   3.241   6.160   6.116 -0.1909  0.3831 -0.3114
   40MOL   H82244580   3.308   6.052   5.899  1.0805  0.7875 -0.2449
   40MOL   H82344581   3.446   5.983   5.966 -0.7762 -1.7575 -0.5109
   40MOL   H82444582   3.170   5.917   6.061 -1.2558 -2.2195 -1.6776
   40MOL   H82544583   3.311   5.841   6.130  0.4001 -0.8875 -0.1830
   40MOL   H82644584   3.203   5.792   5.842  0.7678 -1.7719 -0.4511
   40MOL   H82744585   3.339   5.712   5.911  0.1035  2.4677 -2.5628
   40MOL   H82844586   3.242   5.515   5.886  0.5767  1.2207 -0.4074
   40MOL   H82944587   3.015   5.427   5.853  1.0186 -0.6323 -0.7585
   40MOL   H83044588   2.986   5.453   6.024  0.9261 -0.1143  1.2233
   40MOL   H83144589   3.209   5.310   6.053  0.0435  1.1137 -1.3210
   40MOL   H83244590   3.167   5.244   5.893 -0.2652  1.2848 -0.9180
   40MOL   H83344591   2.985   5.236   6.143  0.9738 -0.0467  0.5597
   40MOL   H83444592   2.946   5.169   5.982  0.3787 -0.0527  0.5289
   40MOL   H83544593   3.152   5.027   6.140  1.9338  0.3586 -0.7048
   40MOL   H83644594   3.091   5.016   5.972 -0.4955 -1.8147  0.2924
   40MOL   H83744595   2.853   5.002   6.124 -0.1701  0.9738 -3.0768
   40MOL   H83844596   2.965   4.962   6.239  1.6458 -3.7704 -0.0962
   40MOL   H83944597   2.956   4.826   5.967 -0.3214  1.5987 -0.1351
   40MOL   H84044598   2.857   4.782   6.108 -1.2741  2.0228 -0.6755
   40MOL   H84144599   3.132   4.784   6.197  1.8292 -1.3895 -0.6343
   40MOL   C84244600   3.090   4.614   6.101 -0.3584  0.5128  0.0269
   40MOL   O84344601   3.017   4.540   6.023 -0.2007 -0.5791 -0.6989
   40MOL   C84444602   3.216   4.544   6.149 -0.1452 -0.3326 -0.2726
   40MOL   C84544603   3.196   4.421   6.239  0.6115  0.1139 -0.0832
   40MOL   C84644604   3.142   4.461   6.380 -0.2660 -0.0078 -0.3448
   40MOL   C84744605   3.139   4.337   6.471 -0.9890 -0.2570 -0.3664
   40MOL   C84844606   3.072   4.359   6.606  0.1530 -0.2333 -0.4593
   40MOL   C84944607   2.919   4.395   6.621  0.1884 -0.2082  0.2407
   40MOL   C85044608   2.892   4.498   6.726 -0.4396 -0.1829 -0.2157
   40MOL   C85144609   2.867   4.637   6.661 -0.5378 -0.1127 -0.4315
   40MOL   C85244610   2.996   4.703   6.616 -0.4806  0.0958 -0.2177
   40MOL   C85344611   2.982   4.839   6.536  0.0037 -0.2344 -0.5449
   40MOL   C85444612   3.118   4.896   6.501  0.0800 -0.7328  0.1175
   40MOL   O85544613   3.172   4.860   6.397  0.0263  0.0334  0.0439
   40MOL   N85644614   3.160   4.989   6.590  0.2687  0.6146 -0.2672
   40MOL   C85744615   3.278   5.065   6.562  0.7062  0.5671 -0.0480
   40MOL   C85844616   3.243   5.182   6.464 -0.1489 -0.1579  0.1891
   40MOL   C85944617   3.351   5.290   6.463  0.0371 -0.2286  0.6431
   40MOL   C86044618   3.293   5.419   6.400  0.5914 -0.1967  0.3046
   40MOL   C86144619   3.396   5.536   6.407  0.2299  0.3053 -0.4062
   40MOL   C86244620   3.330   5.675   6.403  0.6203 -0.4480  0.5151
   40MOL   N86344621   3.428   5.779   6.412 -0.7735  1.0542  0.1239
   40MOL   H86444622   3.288   4.610   6.198 -0.5507 -0.3105  0.3062
   40MOL   H86544623   3.273   4.518   6.060  1.9942  3.2396 -0.0541
   40MOL   H86644624   3.287   4.363   6.255  0.0892 -0.6106  0.3056
   40MOL   H86744625   3.133   4.353   6.181  0.0777  2.7310 -2.7401
   40MOL   H86844626   3.206   4.533   6.431 -1.0020 -1.8580  3.3410
   40MOL   H86944627   3.042   4.502   6.384 -0.6999 -1.2021  2.1704
   40MOL   H87044628   3.238   4.296   6.488 -1.3213 -0.1116  2.1814
   40MOL   H87144629   3.075   4.275   6.409  0.3456 -1.7557 -0.2547
   40MOL   H87244630   3.101   4.268   6.659  3.4224 -0.4366 -2.4315
   40MOL   H87344631   3.125   4.434   6.664  1.7219 -2.8121  1.5210
   40MOL   H87444632   2.860   4.405   6.530  0.1113  0.9015  0.4114
   40MOL   H87544633   2.881   4.297   6.649  0.9888 -1.0821 -1.7022
   40MOL   H87644634   2.801   4.475   6.781 -1.7328  3.9886 -0.3934
   40MOL   H87744635   2.969   4.504   6.803 -0.1492  2.3777 -0.6513
   40MOL   H87844636   2.819   4.706   6.731  2.1780  1.0179  0.4088
   40MOL   H87944637   2.793   4.631   6.581 -2.2502 -0.9978  1.1883
   40MOL   H88044638   3.060   4.629   6.569 -1.7055 -0.7433 -0.5723
   40MOL   H88144639   3.039   4.723   6.715 -1.7821 -2.3619  0.8706
   40MOL   H88244640   2.945   4.817   6.436 -1.2085 -0.4155 -0.0636
   40MOL   H88344641   2.920   4.917   6.581 -0.7043 -0.8860 -0.3840
   40MOL   H88444642   3.114   5.014   6.676  1.3353 -0.8585  0.7639
   40MOL   H88544643   3.364   5.012   6.522 -0.7570  1.0199 -3.9842
   40MOL   H88644644   3.308   5.107   6.658 -2.0033  1.9560  0.2431
   40MOL   H88744645   3.147   5.230   6.480 -0.4448 -1.0085  0.9502
   40MOL   H88844646   3.231   5.144   6.362  0.7502 -1.2803  0.4910
   40MOL   H88944647   3.444   5.258   6.416 -0.7267 -2.7925  0.7848
   40MOL   H89044648   3.378   5.315   6.566 -1.0986 -0.3393  0.9774
   40MOL   H89144649   3.195   5.448   6.436  0.2292  0.1133 -0.8975
   40MOL   H89244650   3.280   5.406   6.293  0.9410 -2.2508  0.5001
   40MOL   H89344651   3.448   5.528   6.503  1.4454  0.4115 -1.0582
   40MOL   H89444652   3.468   5.533   6.326  0.6044 -0.9625 -0.0398
   40MOL   H89544653   3.268   5.680   6.313  1.9062  1.4784 -0.3006
   40MOL   H89644654   3.276   5.690   6.496  1.0185  1.8569  0.4145
   40MOL   H89744655   3.483   5.799   6.330  0.2099 -1.0670  0.2197
   40MOL   C89844656   3.472   5.817   6.534 -0.0179  0.0992  0.4209
   40MOL   O89944657   3.428   5.768   6.639  0.0530  0.0193  0.3330
   40MOL   C90044658   3.593   5.915   6.542  0.1073 -0.2546  0.6603
   40MOL   C90144659   3.704   5.888   6.427  0.1541  0.2743 -0.1954
   40MOL   C90244660   3.770   5.754   6.451  0.1021 -0.2194  0.4084
   40MOL   C90344661   3.863   5.721   6.336 -0.2660  0.1620  0.3026
   40MOL   C90444662   3.889   5.566   6.338 -0.2273 -0.6260 -0.2904
   40MOL   C90544663   3.998   5.516   6.245  0.1643  0.2768  0.2411
   40MOL   C90644664   3.977   5.539   6.090  0.2849  0.0437 -0.5003
   40MOL   C90744665   4.065   5.443   6.004 -0.3270  0.4146 -0.5161
   40MOL   C90844666   4.027   5.436   5.855 -0.1689  0.5838 -0.2370
   40MOL   C90944667   4.116   5.331   5.786  0.0610  0.3672 -0.0160
   40MOL   C91044668   4.078   5.300   5.637 -0.1039  0.2232 -0.3123
   40MOL   O91144669   4.021   5.387   5.567 -0.3392  0.0975 -0.2934
   40MOL   N91244670   4.125   5.192   5.576  0.2697  0.5138  0.4869
   40MOL   C91344671   4.206   5.081   5.632  0.9037  0.2932 -0.3471
   40MOL   C91444672   4.358   5.095   5.622 -0.0084  0.0387  0.8454
   40MOL   C91544673   4.434   4.998   5.718  0.1173  0.3055  0.1771
   40MOL   C91644674   4.581   4.988   5.691  0.2673  0.4175 -0.4648
   40MOL   C91744675   4.652   4.893   5.789  0.0238 -0.0499 -0.1737
   40MOL   C91844676   4.684   4.947   5.930  0.5594 -0.4281  0.5796
   40MOL   N91944677   4.789   5.050   5.929 -0.7285  0.2748 -0.4836
   40MOL   H92044678   3.537   6.005   6.518 -0.2347 -0.6868 -0.1527
   40MOL   H92144679   3.621   5.936   6.646  2.1640  1.6354 -0.2337
   40MOL   H92244680   3.776   5.967   6.449  1.8043 -0.9376 -1.0651
   40MOL   H92344681   3.659   5.898   6.329  2.4775  2.0421 -1.1418
   40MOL   H92444682   3.692   5.683   6.481  0.7069 -1.1406 -0.1683
   40MOL   H92544683   3.832   5.770   6.540  0.0154 -3.2562  1.0897
   40MOL   H92644684   3.821   5.754   6.241 -0.6352  0.6319  0.6215
   40MOL   H92744685   3.955   5.770   6.368  1.8497 -2.6934 -1.2199
   40MOL   H92844686   3.794   5.514   6.331 -0.1937 -0.6670 -0.4427
   40MOL   H92944687   3.913   5.541   6.441 -1.7097 -0.2948  0.1453
   40MOL   H93044688   4.097   5.540   6.282  0.0968 -0.6266  1.0154
   40MOL   H93144689   3.992   5.408   6.261 -2.4052  0.5662  1.5560
   40MOL   H93244690   4.008   5.640   6.063 -0.3946  0.6936  1.1129
   40MOL   H93344691   3.873   5.527   6.061  0.7707  1.8023 -3.1891
   40MOL   H93444692   4.051   5.341   6.039 -2.4596  1.1650  0.9290
   40MOL   H93544693   4.173   5.448   6.000 -0.3381 -0.5342 -2.3944
   40MOL   H93644694   3.920   5.421   5.844 -0.2124  1.0440 -0.4546
   40MOL   H93744695   4.040   5.537   5.816  0.5733  0.3948 -0.4906
   40MOL   H93844696   4.219   5.364   5.788  1.2065 -3.0591  0.9096
   40MOL   H93944697   4.127   5.239   5.843 -1.3122  0.4995  0.4982
   40MOL   H94044698   4.093   5.179   5.481 -0.4066 -1.5238  0.9733
   40MOL   H94144699   4.172   4.984   5.593  1.9568 -0.3816  0.3894
   40MOL   H94244700   4.174   5.073   5.736  0.2478  1.3693 -0.4568
   40MOL   H94344701   4.393   5.082   5.520  1.5801 -1.2005  1.5176
   40MOL   H94444702   4.400   5.191   5.653  1.5038 -0.6841  1.0877
   40MOL   H94544703   4.418   5.043   5.816 -0.7101  0.9124 -0.2300
   40MOL   H94644704   4.388   4.899   5.718  0.2753  0.2299 -0.1747
   40MOL   H94744705   4.635   5.083   5.685  0.0865  0.6838  1.8956
   40MOL   H94844706   4.582   4.944   5.591  0.4249  0.8741 -0.6680
   40MOL   H94944707   4.589   4.806   5.804 -1.0722  0.6102 -0.8669
   40MOL   H95044708   4.743   4.864   5.737 -0.1921  1.2643 -1.3141
   40MOL   H95144709   4.711   4.863   5.994  0.0365 -0.0908  1.2457
   40MOL   H95244710   4.594   4.991   5.974  1.2758  0.2917  1.3359
   40MOL   H95344711   4.746   5.137   5.956 -1.3699 -0.6267  1.5965
   40MOL   C95444712   4.916   5.030   5.909 -0.0898 -0.7455 -0.0314
   40MOL   O95544713   4.958   4.928   5.856 -0.3653 -0.1612 -0.5402
   40MOL   C95644714   5.010   5.145   5.943 -0.7788  0.4599  0.1584
   40MOL   C95744715   5.144   5.085   5.990 -0.3922 -0.3896  0.0206
   40MOL   C95844716   5.248   5.183   6.039 -0.5233 -0.4468 -0.3602
   40MOL   C95944717   5.384   5.119   6.070  1.0145  1.3775 -0.1716
   40MOL   C96044718   5.480   5.228   6.107 -0.3563  0.3887 -0.6742
   40MOL   C96144719   5.630   5.175   6.125  0.8334  0.3197 -0.1633
   40MOL   C96244720   5.652   5.129   6.271  0.7513 -0.4301 -0.0655
   40MOL   C96344721   5.799   5.132   6.320 -0.1787 -0.1754  0.5184
   40MOL   C96444722   5.822   5.071   6.463 -0.1787  0.3318 -0.0597
   40MOL   C96544723   5.974   5.087   6.513 -0.5387  0.1415 -0.3545
   40MOL   C96644724   6.078   4.989   6.459 -0.0324  0.0492 -0.1123
   40MOL   O96744725   6.050   4.906   6.372  0.0578  0.3920 -0.2355
   40MOL   N96844726   6.196   5.003   6.522  0.0956  0.1156 -0.7185
   40MOL   C96944727   6.315   4.930   6.485  0.0945 -0.2178  0.2358
   40MOL   C97044728   6.383   4.880   6.613 -0.2043 -0.3014 -0.2150
   40MOL   C97144729   6.509   4.812   6.585 -0.4622  0.3819  0.0317
   40MOL   C97244730   6.578   4.766   6.714  0.9892  0.0479  0.2711
   40MOL   C97344731   6.708   4.687   6.689 -0.0341 -1.0636 -0.0757
   40MOL   C97444732   6.766   4.621   6.813  0.1035  0.3180  0.2275
   40MOL   N97544733   6.813   4.715   6.908  0.6152  0.0768 -0.2756
   40MOL   H97644734   5.034   5.194   5.849  2.7055  0.2271  0.8360
   40MOL   H97744735   4.959   5.215   6.009 -2.5515 -0.7362  0.0956
   40MOL   H97844736   5.175   5.016   5.911 -0.1696 -0.9308  0.5749
   40MOL   H97944737   5.130   5.018   6.075  1.2797  0.3000  0.8747
   40MOL   H98044738   5.254   5.270   5.973 -1.9149  0.9039  1.2083
   40MOL   H98144739   5.202   5.225   6.129 -2.6362 -0.8648 -1.2093
   40MOL   H98244740   5.371   5.041   6.144 -2.9080  2.2400  0.1285
   40MOL   H98344741   5.409   5.059   5.982 -0.5124  0.2297  0.1571
   40MOL   H98444742   5.478   5.297   6.023  1.1585  0.5906 -0.5612
   40MOL   H98544743   5.446   5.286   6.193 -0.6385  0.6231 -0.9423
   40MOL   H98644744   5.675   5.108   6.052  0.9486  1.9615 -1.6668
   40MOL   H98744745   5.693   5.261   6.099 -0.6001  1.6946  0.8230
   40MOL   H98844746   5.585   5.191   6.330  0.2114 -1.0173 -0.0625
   40MOL   H98944747   5.627   5.023   6.276 -2.9290  0.4534  1.5250
   40MOL   H99044748   5.862   5.086   6.244  0.5135  0.2018  0.8563
   40MOL   H99144749   5.825   5.238   6.317  1.2674 -0.5110  0.8389
   40MOL   H99244750   5.800   4.966   6.483 -1.9210  0.7690  0.3830
   40MOL   H99344751   5.770   5.128   6.540 -0.9722  0.8816 -0.9892
   40MOL   H99444752   6.001   5.189   6.484 -1.9968  0.3744 -0.9080
   40MOL   H99544753   5.976   5.075   6.621 -1.7274 -0.3008 -0.3795
   40MOL   H99644754   6.205   5.069   6.598 -0.1664 -0.8220  0.1509
   40MOL   H99744755   6.379   5.005   6.439  4.5227 -2.4813  2.3117
   40MOL   H99844756   6.295   4.852   6.411  3.6000  0.9563 -2.0804
   40MOL   H99944757   6.310   4.810   6.653 -0.7301 -0.4798 -1.4601
   40MOL     H144758   6.393   4.961   6.686 -0.8973  0.1060 -0.5601
   40MOL     H244759   6.584   4.871   6.533  0.9568 -1.4799 -0.0694
   40MOL     H344760   6.492   4.725   6.522  1.9025 -2.1157  2.6898
   40MOL     H444761   6.597   4.860   6.766 -0.5625 -0.2849  1.4488
   40MOL     H544762   6.510   4.718   6.783  0.7964  0.7296  0.5641
   40MOL     H644763   6.778   4.756   6.643 -0.2228 -0.3307  0.7295
   40MOL     H744764   6.684   4.613   6.612  0.4497  1.3760 -2.6250
   40MOL     H844765   6.683   4.574   6.866  0.8122 -0.8146  0.3434
   40MOL     H944766   6.840   4.541   6.803  0.9221  1.1203 -0.1326
   40MOL    H1044767   6.742   4.753   6.970  0.2964  0.6205 -0.9767
   40MOL    C1144768   6.933   4.768   6.913 -0.6273  0.9235  0.6801
   40MOL    O1244769   7.020   4.735   6.837  0.6297  0.5289  0.9545
   40MOL    C1344770   6.971   4.867   7.023 -0.1447  0.3955  0.0988
   40MOL    C1444771   7.087   4.812   7.109  0.9957 -0.5160  0.0826
   40MOL    C1544772   7.046   4.696   7.202  0.1671  0.8070 -0.0507
   40MOL    C1644773   7.155   4.668   7.308  0.1802 -0.2285  0.3407
   40MOL    C1744774   7.122   4.557   7.417  0.3613  0.2915 -0.2475
   40MOL    C1844775   7.035   4.607   7.536  0.6079  0.4253 -0.5353
   40MOL    C1944776   7.030   4.491   7.644 -0.0121  0.0182 -0.7451
   40MOL    C2044777   6.929   4.497   0.065  0.0382 -0.3742  0.4790
   40MOL    C2144778   6.980   4.408   0.180 -1.0684 -0.0399  0.7036
   40MOL    C2244779   6.925   4.450   0.319  0.3190  0.5580  0.2097
   40MOL    C2344780   7.005   4.400   0.438  0.3331 -0.0061 -0.2646
   40MOL    O2444781   7.089   4.314   0.424  0.3728 -0.0127 -0.2740
   40MOL    N2544782   6.990   4.469   0.553 -0.4070  0.0225 -0.4913
   40MOL    C2644783   7.078   4.456   0.668 -0.0615 -0.0004 -0.3075
   40MOL    C2744784   7.018   4.358   0.776 -0.5264 -0.5230 -0.6670
   40MOL    C2844785   7.087   4.384   0.911  0.5393  0.1543  0.7644
   40MOL    C2944786   7.002   4.338   1.027 -0.1081  0.3688 -0.8330
   40MOL    C3044787   6.874   4.418   1.056 -0.5223  0.0521  0.2001
   40MOL    C3144788   6.883   4.559   1.116 -0.8608  0.0164  0.0724
   40MOL    N3244789   6.751   4.606   1.139  0.5721  0.3332  0.2524
   40MOL    H3344790   6.895   4.910   7.088 -2.5385  0.6565 -2.7895
   40MOL    H3444791   7.010   4.953   6.970 -0.1339  0.5845  0.4099
   40MOL    H3544792   7.107   4.894   7.179  1.1514 -0.2332 -0.2925
   40MOL    H3644793   7.174   4.780   7.051  0.2381 -0.1204 -1.2838
   40MOL    H3744794   7.031   4.602   7.147 -0.0330  0.1662  1.0844
   40MOL    H3844795   6.952   4.723   7.250  0.8579  2.1446  0.5689
   40MOL    H3944796   7.237   4.634   7.245 -1.1991  0.2953 -1.7456
   40MOL    H4044797   7.184   4.764   7.351  0.6687 -0.1557 -0.1500
   40MOL    H4144798   7.083   4.465   7.374  0.9722  0.8295 -1.9708
   40MOL    H4244799   7.216   4.541   7.471 -0.2785  2.6097  1.6224
   40MOL    H4344800   7.079   4.697   7.579 -0.5928  0.9903 -0.4634
   40MOL    H4444801   6.933   4.628   7.505  0.5209 -0.5794 -0.9542
   40MOL    H4544802   7.016   4.394   7.595 -0.8442 -0.2576  0.0111
   40MOL    H4644803   7.130   4.477   7.685 -0.5409  1.5733  1.1268
   40MOL    H4744804   6.915   4.599   0.102 -0.4325 -0.0507 -0.5637
   40MOL    H4844805   6.829   4.477   0.026 -0.4542  5.3324 -1.7488
   40MOL    H4944806   7.089   4.408   0.187 -0.9424 -1.1174 -1.0443
   40MOL    H5044807   6.966   4.302   0.159  1.6508  0.0750 -2.0168
   40MOL    H5144808   6.933   4.559   0.329  0.1456  0.4475  1.7290
   40MOL    H5244809   6.818   4.434   0.324  0.7450 -2.1003  1.5973
   40MOL    H5344810   6.930   4.548   0.536  1.4407  1.3281 -0.9775
   40MOL    H5444811   7.092   4.558   0.704 -1.1016 -0.4788  1.5035
   40MOL    H5544812   7.178   4.414   0.659 -0.4862 -1.2314  0.4796
   40MOL    H5644813   7.034   4.257   0.739  2.2184 -0.2221 -0.3994
   40MOL    H5744814   6.911   4.378   0.782 -0.7799 -1.0511 -3.0459
   40MOL    H5844815   7.106   4.490   0.926  0.4184  0.1755  0.7699
   40MOL    H5944816   7.180   4.331   0.932 -0.0547 -1.6763 -1.0086
   40MOL    H6044817   7.063   4.356   1.116 -1.3901  1.2856 -0.1297
   40MOL    H6144818   6.973   4.233   1.022  0.3639  0.2877 -2.1214
   40MOL    H6244819   6.812   4.363   1.127  0.2041  1.2588  1.8090
   40MOL    H6344820   6.816   4.418   0.964 -2.7278  0.3138  1.5559
   40MOL    H6444821   6.936   4.634   1.057 -2.3238  1.0957  0.0926
   40MOL    H6544822   6.940   4.558   1.209 -1.5234 -2.9046  0.5076
   40MOL    H6644823   6.693   4.604   1.056  0.0906  1.1250  0.5752
   40MOL    C6744824   6.697   4.640   1.258 -0.3589  0.4725  0.0049
   40MOL    O6844825   6.773   4.657   1.350 -0.7408  0.1363  0.1049
   40MOL    C6944826   6.542   4.666   1.286 -0.0526 -0.3372  0.0269
   40MOL    C7044827   6.502   4.660   1.437 -0.6561 -0.1852  0.7900
   40MOL    C7144828   6.357   4.709   1.470  0.1198  0.1141 -0.3736
   40MOL    C7244829   6.322   4.677   1.608 -0.4053 -0.9102  0.3091
   40MOL    C7344830   6.183   4.722   1.643 -0.2694 -0.4212 -0.0640
   40MOL    C7444831   6.073   4.645   1.577 -0.2335  0.9219 -0.0213
   40MOL    C7544832   5.944   4.690   1.634  0.3474 -0.9992  0.6544
   40MOL    C7644833   5.817   4.621   1.571  1.0524  0.1176 -0.3260
   40MOL    C7744834   5.765   4.667   1.437  1.4047  0.1540  0.1491
   40MOL    C7844835   5.636   4.616   1.388  0.3116  0.3051  0.9802
   40MOL    C7944836   5.517   4.667   1.477  0.2145  0.3389  0.2875
   40MOL    O8044837   5.538   4.759   1.553 -0.3300  0.0777  0.6392
   40MOL    N8144838   5.396   4.620   1.462 -0.3801  0.1112  0.2009
   40MOL    C8244839   5.284   4.648   1.552 -0.5456  0.5301  0.0922
   40MOL    C8344840   5.245   4.796   1.550 -0.1989  0.6138 -0.9749
   40MOL    C8444841   5.139   4.830   1.653  0.2580  0.4294  0.5614
   40MOL    C8544842   5.113   4.977   1.660  0.2555  0.3950  0.6443
   40MOL    C8644843   5.007   5.013   1.769 -0.0515  0.3204  0.0624
   40MOL    C8744844   4.862   4.976   1.735  0.8412 -0.5817 -0.0657
   40MOL    N8844845   4.765   5.027   1.819 -0.7928  0.1507 -1.5337
   40MOL    H8944846   6.505   4.585   1.223  3.2538 -1.2555 -0.8333
   40MOL    H9044847   6.520   4.761   1.239 -0.7188 -1.7852 -2.6770
   40MOL    H9144848   6.520   4.555   1.457  2.2377 -0.5094 -2.9560
   40MOL    H9244849   6.580   4.710   1.493  0.7500 -2.6781  1.1421
   40MOL    H9344850   6.366   4.817   1.458 -1.4593  0.5289  1.8652
   40MOL    H9444851   6.292   4.667   1.393  1.1495 -0.9077 -0.6987
   40MOL    H9544852   6.323   4.570   1.625 -0.9208 -1.0614 -0.5637
   40MOL    H9644853   6.405   4.719   1.665  1.0217 -1.6344 -1.1879
   40MOL    H9744854   6.177   4.737   1.751 -3.4639  2.7781 -0.5544
   40MOL    H9844855   6.161   4.825   1.615  1.0370 -0.0487  0.2704
   40MOL    H9944856   6.089   4.656   1.470  1.2849 -0.3922  0.0674
   40MOL   H10044857   6.075   4.538   1.598 -1.0484  1.5610  3.7818
   40MOL   H10144858   5.937   4.798   1.630  2.8681 -0.8535 -5.8065
   40MOL   H10244859   5.960   4.667   1.740  1.2318  1.5562  1.1108
   40MOL   H10344860   5.839   4.515   1.565  0.4689  0.0762 -2.3253
   40MOL   H10444861   5.735   4.635   1.641  0.3317  0.3756 -1.2037
   40MOL   H10544862   5.842   4.661   1.360  0.0259  1.4268 -1.3680
   40MOL   H10644863   5.753   4.776   1.434  1.0227  0.1407  1.0018
   40MOL   H10744864   5.623   4.650   1.286 -1.2076 -1.4713  0.5569
   40MOL   H10844865   5.627   4.508   1.380 -1.8928  0.6528 -1.8791
   40MOL   H10944866   5.387   4.559   1.382 -0.1363 -0.4639  0.6040
   40MOL   H11044867   5.302   4.600   1.648 -0.0743  1.8934  0.6958
   40MOL   H11144868   5.202   4.586   1.515 -0.4899 -0.0831  0.9906
   40MOL   H11244869   5.208   4.813   1.449 -1.1586 -2.3565 -1.1912
   40MOL   H11344870   5.333   4.860   1.558  0.1621  0.2590 -2.0793
   40MOL   H11444871   5.175   4.800   1.751 -0.9341 -2.0358  0.3020
   40MOL   H11544872   5.046   4.776   1.633  1.1074 -0.9939  0.3955
   40MOL   H11644873   5.205   5.032   1.680  0.2077  0.6129  0.2875
   40MOL   H11744874   5.083   5.016   1.562  1.8068 -1.6162 -0.6814
   40MOL   H11844875   5.029   4.983   1.872  3.0075  0.3380 -0.5390
   40MOL   H11944876   5.006   5.121   1.783  1.4368  0.0359  2.9044
   40MOL   H12044877   4.847   5.030   1.641  2.7751  1.3521  0.6936
   40MOL   H12144878   4.860   4.869   1.715 -0.1473 -0.4968 -0.4530
   40MOL   H12244879   4.801   5.006   1.911 -0.7536  0.4763 -1.4743
   40MOL   H12344880   4.683   4.968   1.811 -1.0389 -0.1754  2.1670
   41MOL     C144881   0.375   7.056   3.461 -0.2357 -0.2762 -0.1743
   41MOL     O244882   0.265   7.104   3.481  0.1944 -0.4129  0.1507
   41MOL     C344883   0.393   6.950   3.345 -0.1879 -0.6801  0.4368
   41MOL     C444884   0.316   6.817   3.358  0.6504  0.4844 -0.4363
   41MOL     C544885   0.160   6.821   3.353  0.4686 -0.1481 -0.8710
   41MOL     C644886   0.102   6.678   3.362  0.1436  0.2183  0.4188
   41MOL     C744887   7.645   6.663   3.335 -0.2273  0.3041  0.7458
   41MOL     C844888   7.603   6.514   3.334  0.5065 -0.3954  0.7030
   41MOL     C944889   7.462   6.501   3.267 -0.3633 -0.3118 -0.1879
   41MOL    C1044890   7.417   6.361   3.245 -0.4462 -0.1403 -0.0765
   41MOL    C1144891   7.386   6.293   3.375  0.5889  0.7342 -0.1028
   41MOL    C1244892   7.295   6.172   3.355  0.0939  0.0535  0.2693
   41MOL    C1344893   7.150   6.197   3.370  0.1105 -0.3042 -0.9362
   41MOL    O1444894   7.096   6.284   3.301  0.5553  0.2552  0.5024
   41MOL    N1544895   7.081   6.118   3.458 -0.3224 -0.3379 -0.3710
   41MOL    C1644896   6.936   6.123   3.469 -0.6484  0.0441  0.2415
   41MOL    C1744897   6.879   6.083   3.606  0.4821  0.2095 -0.4647
   41MOL    C1844898   6.885   5.931   3.615  0.4522  0.2828 -0.0605
   41MOL    C1944899   6.875   5.884   3.757  0.1884 -0.3291  0.5304
   41MOL    C2044900   6.900   5.731   3.772  0.2143 -0.0899  0.7284
   41MOL    C2144901   6.782   5.649   3.708  0.2856 -0.2637  0.4829
   41MOL    N2244902   6.649   5.706   3.718 -0.4730  0.1519 -0.9329
   41MOL    H2344903   0.498   6.931   3.326  0.2674  1.7026  0.4088
   41MOL    H2444904   0.354   7.004   3.258  1.5264  1.3571  0.8925
   41MOL    H2544905   0.352   6.762   3.445 -0.7237  1.8447  1.0232
   41MOL    H2644906   0.344   6.755   3.273  1.1272  2.1050 -1.4892
   41MOL    H2744907   0.131   6.876   3.263  0.4355  2.4373  0.6595
   41MOL    H2844908   0.104   6.878   3.427  1.1244  1.2217 -1.4141
   41MOL    H2944909   0.142   6.597   3.300 -1.9247 -0.0877 -0.5695
   41MOL    H3044910   0.123   6.644   3.463  0.8155 -0.6905 -0.0150
   41MOL    H3144911   7.618   6.706   3.238  0.3007 -1.7303 -0.3241
   41MOL    H3244912   7.585   6.715   3.410  0.6988  0.3806  1.4379
   41MOL    H3344913   7.675   6.449   3.284 -0.1428 -1.3745  1.0240
   41MOL    H3444914   7.616   6.469   3.433  1.5602 -0.9526  0.3182
   41MOL    H3544915   7.389   6.559   3.324 -1.5609  0.6779 -2.6719
   41MOL    H3644916   7.466   6.560   3.176  0.9377 -1.4132 -0.8551
   41MOL    H3744917   7.321   6.377   3.195 -0.7121  0.3970  0.5862
   41MOL    H3844918   7.474   6.303   3.173 -0.4177 -0.7908  0.4631
   41MOL    H3944919   7.335   6.356   3.449 -0.1443 -0.8038  0.7273
   41MOL    H4044920   7.480   6.264   3.422 -0.5829 -2.1652  0.5682
   41MOL    H4144921   7.318   6.133   3.256 -0.4145  1.7846 -0.5628
   41MOL    H4244922   7.331   6.097   3.425 -0.5406 -2.4247 -1.9671
   41MOL    H4344923   7.133   6.056   3.519  0.0106 -0.9998 -1.3152
   41MOL    H4444924   6.885   6.059   3.396 -0.7805  0.2038  0.1934
   41MOL    H4544925   6.901   6.224   3.447  0.1385  0.6355  1.6249
   41MOL    H4644926   6.782   6.128   3.627  0.6881 -0.5196  2.2815
   41MOL    H4744927   6.943   6.127   3.683  0.2339 -0.4537  0.1299
   41MOL    H4844928   6.818   5.873   3.551  2.1357 -2.8232  0.8773
   41MOL    H4944929   6.981   5.906   3.570  0.9160 -0.2863  1.2113
   41MOL    H5044930   6.777   5.910   3.795 -0.6869 -0.6973 -1.3962
   41MOL    H5144931   6.946   5.939   3.820  0.6429  0.5399 -0.7231
   41MOL    H5244932   6.998   5.696   3.741  0.4844  1.4924 -0.2229
   41MOL    H5344933   6.906   5.712   3.880  2.1018  0.1490  0.6820
   41MOL    H5444934   6.811   5.619   3.607 -0.8113 -0.0242  0.0905
   41MOL    H5544935   6.771   5.553   3.758 -0.4178 -0.4737 -0.0693
   41MOL    H5644936   6.641   5.749   3.809  2.4233  1.7046 -1.3407
   41MOL    H5744937   0.463   7.071   3.524 -1.1999  0.8430  0.9346
   41MOL    C5844938   6.569   5.749   3.622 -0.6094  0.2668 -0.2725
   41MOL    O5944939   6.583   5.702   3.507 -0.3640 -0.2185 -0.7384
   41MOL    C6044940   6.441   5.828   3.649  0.1591  0.2854 -0.5923
   41MOL    C6144941   6.451   5.976   3.626 -0.3078  0.3208  0.2924
   41MOL    C6244942   6.487   6.052   3.761  1.1031  0.4538  0.5532
   41MOL    C6344943   6.490   6.193   3.728 -0.1833  0.3915 -0.2579
   41MOL    C6444944   6.509   6.272   3.858  0.0861 -0.1751 -0.2402
   41MOL    C6544945   6.506   6.430   3.828  0.2592  0.4180 -0.5177
   41MOL    C6644946   6.533   6.517   3.951  0.3612  0.3902 -0.0832
   41MOL    C6744947   6.409   6.526   4.041  0.7191 -0.3059 -1.3641
   41MOL    C6844948   6.427   6.659   4.124 -0.4328 -0.1680  0.1061
   41MOL    C6944949   6.306   6.705   4.199  0.1893  0.3287  0.4558
   41MOL    C7044950   6.348   6.780   4.326  0.5369 -0.4899 -0.3885
   41MOL    O7144951   6.436   6.869   4.317  0.1536 -0.0522 -0.0872
   41MOL    N7244952   6.293   6.750   4.443 -0.0050 -0.5746 -0.6026
   41MOL    C7344953   6.336   6.804   4.575 -0.1179  0.0363  0.0432
   41MOL    C7444954   6.334   6.702   4.692  0.3884  0.1216  0.0648
   41MOL    C7544955   6.413   6.759   4.811  0.1056 -0.4148 -0.4836
   41MOL    C7644956   6.413   6.669   4.933  0.0846  0.7139  0.1128
   41MOL    C7744957   6.513   6.720   5.040  0.1222 -0.5523  1.1021
   41MOL    C7844958   6.515   6.613   5.155  0.4732 -0.5319  0.0206
   41MOL    N7944959   6.612   6.655   5.254  0.5410  0.2633 -0.1287
   41MOL    H8044960   6.399   5.814   3.748 -3.3880  0.5172 -1.9994
   41MOL    H8144961   6.362   5.801   3.580 -1.8964 -1.1232  2.2166
   41MOL    H8244962   6.524   5.988   3.546  1.0854 -1.1787  1.2985
   41MOL    H8344963   6.354   6.011   3.592  1.1371  3.2743 -0.9622
   41MOL    H8444964   6.585   6.026   3.802  1.0093  1.7917  1.6430
   41MOL    H8544965   6.407   6.034   3.832  1.3681 -0.6125  0.5831
   41MOL    H8644966   6.392   6.219   3.687  0.2022  0.8136 -0.9194
   41MOL    H8744967   6.566   6.221   3.654  0.3285 -1.5132 -0.4674
   41MOL    H8844968   6.444   6.229   3.934  1.3163  1.2137  1.6234
   41MOL    H8944969   6.609   6.248   3.894 -0.0204 -0.1995  0.0384
   41MOL    H9044970   6.416   6.457   3.773  0.5421  0.7400 -0.8224
   41MOL    H9144971   6.592   6.447   3.763  0.1252 -0.2256 -0.8708
   41MOL    H9244972   6.563   6.616   3.918  1.8733  0.4431  1.3418
   41MOL    H9344973   6.613   6.472   4.011  1.2249 -2.3902 -3.1468
   41MOL    H9444974   6.318   6.526   3.980 -1.3528 -0.5319  1.6262
   41MOL    H9544975   6.394   6.434   4.097  0.6677 -2.6167 -5.0318
   41MOL    H9644976   6.442   6.743   4.056 -1.5209 -0.7140 -0.8366
   41MOL    H9744977   6.518   6.642   4.182  1.1647 -1.2481 -2.6063
   41MOL    H9844978   6.234   6.752   4.133  2.9426  1.1389 -2.0601
   41MOL    H9944979   6.254   6.613   4.228  0.3607  0.0547 -0.1033
   41MOL   H10044980   6.236   6.667   4.447  0.0604 -0.5225  3.5952
   41MOL   H10144981   6.274   6.890   4.604 -0.4193 -0.8235  2.0504
   41MOL   H10244982   6.439   6.836   4.559 -0.0059  0.3377  1.2701
   41MOL   H10344983   6.232   6.678   4.719 -0.1100  0.5888 -1.3094
   41MOL   H10444984   6.379   6.611   4.651  1.0629  1.0114 -1.2064
   41MOL   H10544985   6.358   6.842   4.855  2.3803 -0.1793  2.0361
   41MOL   H10644986   6.514   6.789   4.783 -0.1793  1.9144  0.8453
   41MOL   H10744987   6.316   6.656   4.983 -0.2181  5.0493  0.8649
   41MOL   H10844988   6.453   6.573   4.903  2.4891  2.6836 -3.2795
   41MOL   H10944989   6.486   6.817   5.082 -0.1095  0.1069 -0.5363
   41MOL   H11044990   6.614   6.733   5.002 -0.1834  1.3789  0.9062
   41MOL   H11144991   6.543   6.514   5.120 -0.7349 -0.5964 -0.7996
   41MOL   H11244992   6.415   6.598   5.197 -0.4803 -0.4262 -2.1659
   41MOL   H11344993   6.667   6.735   5.227  0.5349  0.8768  1.6544
   41MOL   C11444994   6.614   6.628   5.385 -0.4142  0.0686 -0.0503
   41MOL   O11544995   6.537   6.544   5.433 -0.1105 -0.1453  0.3511
   41MOL   C11644996   6.721   6.690   5.473  0.2806  0.1389  0.4686
   41MOL   C11744997   6.679   6.720   5.619 -0.0956 -0.0710  0.1280
   41MOL   C11844998   6.795   6.776   5.700 -0.3348  0.5504 -0.6937
   41MOL   C11944999   6.913   6.683   5.715 -0.1283 -0.2355 -0.0558
   41MOL   C12045000   7.012   6.727   5.819 -0.1479  0.4131  0.6169
   41MOL   C12145001   7.127   6.634   5.830  0.1095  0.4919  0.7539
   41MOL   C12245002   7.106   6.524   5.936 -0.2212 -0.0363  0.4629
   41MOL   C12345003   7.223   6.435   5.960  0.2351 -0.5102  0.1268
   41MOL   C12445004   7.183   6.321   6.049 -0.9144  0.0511 -0.8239
   41MOL   C12545005   7.298   6.232   6.092  0.1432 -0.7577 -0.0405
   41MOL   C12645006   7.360   6.143   5.984  0.1009 -0.0576  0.2483
   41MOL   O12745007   7.458   6.188   5.927  0.3371 -0.5301 -0.1356
   41MOL   N12845008   7.320   6.014   5.976 -0.1719  0.5276  0.2544
   41MOL   C12945009   7.382   5.896   5.917 -0.1343 -0.5177 -0.3494
   41MOL   C13045010   7.314   5.765   5.970  0.3241  0.1119  0.1800
   41MOL   C13145011   7.364   5.652   5.894 -0.0918  0.4107 -0.0557
   41MOL   C13245012   7.276   5.527   5.911 -0.9660 -0.1076 -0.4002
   41MOL   C13345013   7.318   5.404   5.826 -0.1478 -0.3538  0.4042
   41MOL   C13445014   7.226   5.286   5.823 -0.3112  0.2855  0.2211
   41MOL   N13545015   7.277   5.184   5.726 -0.4421 -0.1940  0.7549
   41MOL   H13645016   6.807   6.623   5.471 -0.5341 -0.8918 -0.2996
   41MOL   H13745017   6.755   6.785   5.430  0.5542  0.4295  1.3144
   41MOL   H13845018   6.629   6.641   5.676  2.6723 -2.1020 -0.1101
   41MOL   H13945019   6.604   6.799   5.622  0.9705  0.9554  0.4325
   41MOL   H14045020   6.837   6.870   5.663  2.8299 -0.2060  0.8077
   41MOL   H14145021   6.752   6.804   5.797 -0.1059  0.4042 -0.5501
   41MOL   H14245022   6.870   6.585   5.738  1.9534 -1.6002 -1.7815
   41MOL   H14345023   6.972   6.688   5.624 -0.1241  1.5243  0.0378
   41MOL   H14445024   7.049   6.829   5.805 -2.6155  1.3821  0.8399
   41MOL   H14545025   6.957   6.733   5.913  0.6326 -0.4468  1.1377
   41MOL   H14645026   7.221   6.683   5.856  1.5056 -1.1559 -1.0917
   41MOL   H14745027   7.135   6.597   5.728 -2.0451 -1.7308  1.3259
   41MOL   H14845028   7.085   6.573   6.031 -1.0956 -0.4366  0.4794
   41MOL   H14945029   7.023   6.459   5.909  0.5327 -0.0276 -2.0447
   41MOL   H15045030   7.304   6.492   6.006  0.7662 -0.0143 -1.3957
   41MOL   H15145031   7.267   6.407   5.865 -0.7996 -1.6685 -0.0281
   41MOL   H15245032   7.122   6.252   5.991  0.9068 -0.4396 -2.1961
   41MOL   H15345033   7.128   6.350   6.138 -0.3654  0.8760 -0.7479
   41MOL   H15445034   7.258   6.159   6.164 -1.3629  0.2793  0.2070
   41MOL   H15545035   7.365   6.297   6.148 -0.5851 -0.4813  0.5249
   41MOL   H15645036   7.243   5.994   6.037 -0.4093 -0.9001 -0.5080
   41MOL   H15745037   7.489   5.896   5.939 -0.4433  0.3882  1.2758
   41MOL   H15845038   7.388   5.899   5.809 -0.5849  1.4832 -0.3250
   41MOL   H15945039   7.211   5.781   5.940 -0.3152 -0.5287  2.0183
   41MOL   H16045040   7.316   5.752   6.078 -0.2712 -1.7497 -0.0264
   41MOL   H16145041   7.359   5.676   5.788 -2.4931  1.1468  0.1851
   41MOL   H16245042   7.466   5.622   5.918 -0.6565 -1.1593  0.4042
   41MOL   H16345043   7.285   5.508   6.017  2.9844  2.4462 -0.2142
   41MOL   H16445044   7.168   5.530   5.897 -1.1131  0.9748  0.9204
   41MOL   H16545045   7.416   5.373   5.863  0.3327  0.4573 -0.1569
   41MOL   H16645046   7.333   5.436   5.723 -0.3071 -2.3500 -0.2601
   41MOL   H16745047   7.216   5.253   5.926 -0.2375 -1.1014 -0.2050
   41MOL   H16845048   7.126   5.304   5.782 -1.4335 -1.2971  2.1529
   41MOL   H16945049   7.245   5.199   5.631 -1.0239 -1.0485  0.8146
   41MOL   C17045050   7.370   5.094   5.748 -0.1892  0.1654 -0.0643
   41MOL   O17145051   7.418   5.079   5.859  0.0491  0.7205  0.2417
   41MOL   C17245052   7.411   5.007   5.625  0.4249 -0.5355  0.1263
   41MOL   C17345053   7.421   4.862   5.659 -0.4665 -0.1579  0.2800
   41MOL   C17445054   7.469   4.776   5.537  0.4431 -0.4907  0.8861
   41MOL   C17545055   7.611   4.796   5.495  0.4042 -0.4808 -0.0716
   41MOL   C17645056   7.657   4.706   5.380  0.5568  0.5089  0.8126
   41MOL   C17745057   0.098   4.750   5.323 -0.0996 -0.2181  0.0694
   41MOL   C17845058   0.146   4.657   5.210  0.7109 -0.2714 -0.1281
   41MOL   C17945059   0.129   4.507   5.227  0.2145  0.2566 -0.4713
   41MOL   C18045060   0.172   4.423   5.107 -0.0249  0.3963  0.3349
   41MOL   C18145061   0.329   4.419   5.077 -0.4969 -0.3447 -0.4881
   41MOL   C18245062   0.414   4.349   5.184 -0.2606  1.1793  0.8020
   41MOL   O18345063   0.398   4.233   5.225 -0.6822 -0.5414 -0.2948
   41MOL   N18445064   0.508   4.435   5.231  0.3612  0.0031  0.1914
   41MOL   C18545065   0.594   4.412   5.344  0.0161 -0.7081 -0.3764
   41MOL   C18645066   0.728   4.491   5.345 -0.4730  0.4918 -0.6404
   41MOL   C18745067   0.786   4.492   5.488  0.0628 -0.4355 -0.0383
   41MOL   C18845068   0.919   4.562   5.503 -0.7728  0.4946 -0.3885
   41MOL   C18945069   0.914   4.712   5.453  0.1019  0.2417 -0.1004
   41MOL   C19045070   0.834   4.804   5.547  0.3411  0.0663 -0.1269
   41MOL   N19145071   0.805   4.939   5.503  0.0367  0.1103  0.2675
   41MOL   H19245072   7.338   5.010   5.544 -0.7945 -1.5561  1.1616
   41MOL   H19345073   7.505   5.045   5.586  0.9426 -0.3114  1.5420
   41MOL   H19445074   7.321   4.826   5.683 -0.0881 -0.7390  0.9760
   41MOL   H19545075   7.486   4.834   5.742 -0.0990  1.7765  0.6760
   41MOL   H19645076   7.391   4.791   5.461  0.2536  2.1410  1.5439
   41MOL   H19745077   7.456   4.671   5.565 -1.7357 -0.1779  1.1508
   41MOL   H19845078   7.633   4.902   5.483 -0.8589  0.0653  2.1767
   41MOL   H19945079   7.665   4.775   5.587 -2.4853  1.0055  2.0561
   41MOL   H20045080   7.653   4.610   5.430 -0.1463 -0.6549 -1.3887
   41MOL   H20145081   7.588   4.699   5.295  0.1486  2.6358  0.9268
   41MOL   H20245082   0.172   4.770   5.401 -0.5874  1.9186  0.0053
   41MOL   H20345083   0.088   4.848   5.276  1.6938 -0.2518 -0.4203
   41MOL   H20445084   0.074   4.682   5.131 -0.2511  0.5156  0.9746
   41MOL   H20545085   0.243   4.695   5.176  0.3332  1.9628  1.1850
   41MOL   H20645086   0.161   4.466   5.324 -2.2696 -2.4844 -0.7558
   41MOL   H20745087   0.021   4.500   5.238  0.0716  0.0932 -1.9376
   41MOL   H20845088   0.113   4.457   5.022 -1.8130 -0.5458  1.1877
   41MOL   H20945089   0.132   4.324   5.127  1.4853 -0.6379 -1.6437
   41MOL   H21045090   0.346   4.368   4.982  0.5820 -0.3836 -0.2751
   41MOL   H21145091   0.371   4.520   5.074  2.1505 -1.3827  0.2490
   41MOL   H21245092   0.512   4.527   5.190 -0.7460  0.1088  0.3195
   41MOL   H21345093   0.612   4.304   5.352 -1.6209 -0.8172  2.5310
   41MOL   H21445094   0.538   4.434   5.435 -1.9047  0.2746 -1.7665
   41MOL   H21545095   0.795   4.444   5.273 -2.1650 -0.3634 -1.7078
   41MOL   H21645096   0.706   4.595   5.322  0.7092  1.0028  0.4814
   41MOL   H21745097   0.720   4.538   5.562  1.2175 -0.5967  1.1189
   41MOL   H21845098   0.797   4.389   5.523  3.7223  0.6542  2.2622
   41MOL   H21945099   0.982   4.513   5.429 -3.4790 -1.2252 -1.6240
   41MOL   H22045100   0.959   4.560   5.604 -2.4323  0.9843  0.3019
   41MOL   H22145101   0.883   4.720   5.349  0.1653  1.6996 -0.0196
   41MOL   H22245102   1.015   4.749   5.442  0.0101  0.6977  0.5698
   41MOL   H22345103   0.878   4.822   5.645 -0.4381  0.1958  0.2025
   41MOL   H22445104   0.738   4.756   5.564  0.8020 -0.2487  1.7026
   41MOL   H22545105   0.845   5.015   5.556 -1.0178  1.0616 -0.2899
   41MOL   C22645106   0.703   4.973   5.424  0.4212  0.0046 -0.1498
   41MOL   O22745107   0.640   4.893   5.359 -0.0868 -0.2833  0.5887
   41MOL   C22845108   0.692   5.121   5.401 -0.1582 -0.2534  0.3937
   41MOL   C22945109   0.577   5.166   5.316  1.0246 -0.3804 -0.5423
   41MOL   C23045110   0.445   5.157   5.382 -0.1851  0.9425  0.1031
   41MOL   C23145111   0.340   5.233   5.293 -0.1859  0.2744  0.0525
   41MOL   C23245112   0.203   5.222   5.356  0.1211 -0.0893 -0.2258
   41MOL   C23345113   0.098   5.295   5.266 -0.3657  0.2757 -0.0169
   41MOL   C23445114   7.655   5.283   5.337  0.0686 -0.5873  0.2125
   41MOL   C23545115   7.537   5.354   5.271  0.4509  0.1223  0.4933
   41MOL   C23645116   7.413   5.322   5.360 -0.1259 -0.0093 -0.2797
   41MOL   C23745117   7.298   5.421   5.352 -0.0122  0.2675 -0.0433
   41MOL   C23845118   7.175   5.375   5.424 -0.6355  0.6011 -0.0248
   41MOL   O23945119   7.171   5.260   5.471  0.0980  0.4500 -0.2649
   41MOL   N24045120   7.076   5.462   5.441  0.6069 -0.0948  0.5560
   41MOL   C24145121   6.938   5.437   5.479  0.3902 -0.1349 -0.5897
   41MOL   C24245122   6.905   5.515   5.614  0.0622 -0.1666  0.6123
   41MOL   C24345123   6.962   5.659   5.639 -1.0664 -0.6744 -0.0997
   41MOL   C24445124   6.874   5.740   5.736  0.3173  0.2667  0.7090
   41MOL   C24545125   6.928   5.879   5.759 -0.0053  0.1072  0.0586
   41MOL   C24645126   6.870   5.950   5.881 -0.3338  0.6066 -0.6730
   41MOL   N24745127   6.873   5.878   6.010 -0.3990 -0.0082  0.1274
   41MOL   H24845128   0.783   5.161   5.357 -0.5994  2.2669  1.6868
   41MOL   H24945129   0.688   5.170   5.499 -1.8798  1.1729 -0.3744
   41MOL   H25045130   0.600   5.271   5.299 -3.8507  0.7038 -1.2042
   41MOL   H25145131   0.569   5.126   5.215 -1.5340 -2.4191  0.4035
   41MOL   H25245132   0.415   5.052   5.382 -0.6395  1.0616 -1.2166
   41MOL   H25345133   0.447   5.179   5.489 -0.9937 -0.2483  0.3660
   41MOL   H25445134   0.330   5.178   5.200  1.8778  0.0261 -0.0445
   41MOL   H25545135   0.368   5.334   5.264 -1.3830  0.5279 -0.2626
   41MOL   H25645136   0.211   5.260   5.457  1.0931 -0.1491 -0.2725
   41MOL   H25745137   0.175   5.117   5.369  0.0785 -0.0833 -0.2654
   41MOL   H25845138   0.124   5.401   5.266 -0.2652  0.2978  2.6016
   41MOL   H25945139   0.106   5.266   5.162 -0.7873  0.8186 -0.2055
   41MOL   H26045140   7.674   5.328   5.434  0.2194  0.9569 -0.5136
   41MOL   H26145141   7.623   5.179   5.349  0.3680 -0.7244 -0.1802
   41MOL   H26245142   7.567   5.459   5.270 -0.3445  0.3831  1.7065
   41MOL   H26345143   7.505   5.314   5.175 -2.5347  1.7070  0.7397
   41MOL   H26445144   7.386   5.219   5.337 -0.3748  0.1490 -0.6950
   41MOL   H26545145   7.440   5.305   5.464  0.2491  0.8566 -0.2322
   41MOL   H26645146   7.334   5.517   5.388  0.9959 -0.2020  0.2015
   41MOL   H26745147   7.267   5.429   5.248  3.0846 -1.3746 -1.1499
   41MOL   H26845148   7.099   5.559   5.426 -0.9244  0.0687 -0.9367
   41MOL   H26945149   6.924   5.330   5.487  3.8383 -0.6575 -0.9682
   41MOL   H27045150   6.870   5.474   5.403 -0.7102  0.2545  0.5580
   41MOL   H27145151   6.944   5.460   5.699  2.9904 -1.1167 -1.2363
   41MOL   H27245152   6.797   5.512   5.628  0.0531 -0.3118  0.5044
   41MOL   H27345153   7.064   5.648   5.677 -0.7886 -2.6760 -1.3550
   41MOL   H27445154   6.967   5.706   5.540 -0.9557 -0.1993  0.1291
   41MOL   H27545155   6.861   5.679   5.825  2.4714 -0.7449  0.3572
   41MOL   H27645156   6.775   5.747   5.691  0.5738  2.7498  0.4641
   41MOL   H27745157   6.912   5.939   5.669  0.7610  0.8267  0.3854
   41MOL   H27845158   7.037   5.872   5.762  0.0395 -0.3009 -1.8179
   41MOL   H27945159   6.763   5.960   5.863 -0.8002 -3.6438 -0.6352
   41MOL   H28045160   6.916   6.049   5.886  0.3036  0.2000  2.4867
   41MOL   H28145161   6.800   5.809   6.024 -0.1663 -0.4187 -0.6367
   41MOL   C28245162   6.960   5.913   6.106 -0.0129  0.3713 -0.4144
   41MOL   O28345163   7.058   5.984   6.076  0.6496  0.0591  0.0350
   41MOL   C28445164   6.943   5.850   6.243 -0.1354  0.6300  0.1861
   41MOL   C28545165   6.970   5.936   6.358  0.0849  0.2516  0.4019
   41MOL   C28645166   7.118   5.960   6.388  0.0010 -0.4618 -1.1134
   41MOL   C28745167   7.161   6.068   6.489 -0.5680 -0.8076 -0.2029
   41MOL   C28845168   7.313   6.055   6.516  0.2173 -0.1502 -0.3412
   41MOL   C28945169   7.381   6.170   6.595  0.1836  0.3012  0.3887
   41MOL   C29045170   7.311   6.196   6.734 -0.2067  0.3927  0.0060
   41MOL   C29145171   7.392   6.284   6.829  0.0886 -0.5119  0.5454
   41MOL   C29245172   7.502   6.196   6.891 -0.4125 -1.0468 -0.0498
   41MOL   C29345173   7.601   6.273   6.977 -0.0170 -0.4087  0.5865
   41MOL   C29445174   0.019   6.195   7.043  0.3570 -0.1047  0.9584
   41MOL   O29545175   0.029   6.075   7.023 -0.7012  0.0681  0.1715
   41MOL   N29645176   0.100   6.270   7.114  0.2286 -0.0484  0.1592
   41MOL   C29745177   0.199   6.216   7.194 -0.0405  0.5431  0.2072
   41MOL   C29845178   0.146   6.181   7.335 -0.6338 -0.2449  0.3262
   41MOL   C29945179   0.261   6.143   7.427  0.7715  0.0095  0.3083
   41MOL   C30045180   0.310   6.260   7.516  0.1548 -0.9147 -0.2837
   41MOL   C30145181   0.429   6.221   7.609  0.1284  0.4966 -0.8411
   41MOL   C30245182   0.413   6.098   0.007  0.1295  0.0751  0.0092
   41MOL   N30345183   0.546   6.056   0.054  0.2141  0.0780  0.3579
   41MOL   H30445184   6.845   5.807   6.262  1.4004 -1.7971  2.9679
   41MOL   H30545185   7.016   5.769   6.243 -2.1466 -1.2253  0.2561
   41MOL   H30645186   6.926   5.904   6.453  1.6216 -0.5820  0.8621
   41MOL   H30745187   6.929   6.036   6.352 -0.7502  0.0037  1.7784
   41MOL   H30845188   7.152   5.867   6.434 -0.0770 -0.6178 -1.3730
   41MOL   H30945189   7.176   5.979   6.297 -1.0703  1.3688 -1.4435
   41MOL   H31045190   7.109   6.066   6.586 -0.4684 -0.1014 -0.1290
   41MOL   H31145191   7.139   6.165   6.446 -0.0970 -0.7294 -0.2631
   41MOL   H31245192   7.325   5.959   6.567  0.9943 -1.5577 -3.0705
   41MOL   H31345193   7.360   6.050   6.418 -2.5083 -1.9204 -1.6428
   41MOL   H31445194   7.490   6.163   6.604  0.1411  0.6292  1.2122
   41MOL   H31545195   7.373   6.257   6.531  0.4802 -0.4655 -0.7045
   41MOL   H31645196   7.292   6.106   6.792  2.1333 -0.2332 -0.1559
   41MOL   H31745197   7.219   6.246   6.704  0.6381  2.1015  0.1976
   41MOL   H31845198   7.324   6.323   6.905 -1.1748 -1.0763 -0.2583
   41MOL   H31945199   7.442   6.367   6.779 -0.6528 -1.7565 -2.4338
   41MOL   H32045200   7.462   6.122   6.960 -2.2555 -0.2240 -0.1849
   41MOL   H32145201   7.560   6.149   6.811 -1.0511  3.5538 -3.4571
   41MOL   H32245202   7.639   6.354   6.916 -0.4563 -1.2051 -0.7785
   41MOL   H32345203   7.546   6.312   7.063 -0.3077 -0.8315  0.5987
   41MOL   H32445204   0.073   6.367   7.112  0.3978 -0.0055 -1.6044
   41MOL   H32545205   0.276   6.292   7.203  0.0254  0.2781  2.0671
   41MOL   H32645206   0.241   6.126   7.150  0.9409  0.7964  0.6336
   41MOL   H32745207   0.072   6.101   7.326 -0.2614 -0.3864 -1.7438
   41MOL   H32845208   0.095   6.271   7.367 -2.7787 -1.6750  1.0803
   41MOL   H32945209   0.340   6.106   7.362  0.6515  2.4310 -1.2880
   41MOL   H33045210   0.221   6.066   7.493  0.1759  1.2825  1.4578
   41MOL   H33145211   0.345   6.347   7.460 -1.0083  0.5865  1.2519
   41MOL   H33245212   0.233   6.291   7.587 -0.2616  0.7576 -1.4538
   41MOL   H33345213   0.461   6.303   7.673  0.3310 -0.1999 -0.0396
   41MOL   H33445214   0.516   6.211   7.543  0.7745  0.3880  0.0178
   41MOL   H33545215   0.346   6.130   0.087 -0.7413  0.5850 -0.9116
   41MOL   H33645216   0.364   6.013   7.651  0.6213  0.2576 -0.8125
   41MOL   H33745217   0.634   6.086   0.014  0.7845 -0.6624  1.0437
   41MOL   C33845218   0.568   5.955   0.143  0.5430 -0.1387  0.3347
   41MOL   O33945219   0.480   5.911   0.209  0.0752 -0.2008 -0.2192
   41MOL   C34045220   0.709   5.903   0.162 -0.8613 -0.6262  0.5506
   41MOL   C34145221   0.807   5.988   0.249 -0.0313  0.7040 -0.2978
   41MOL   C34245222   0.928   5.901   0.294  0.3799 -0.4526 -0.1993
   41MOL   C34345223   1.004   5.824   0.179 -0.1078  0.1230 -0.3759
   41MOL   C34445224   1.075   5.909   0.073  0.4980 -0.4355  0.2529
   41MOL   C34545225   1.159   6.022   0.134 -0.1542  0.7198  0.4855
   41MOL   C34645226   1.249   6.109   0.042 -0.6027  0.2989 -0.0265
   41MOL   C34745227   1.353   6.027   7.653  0.4084 -0.2174 -0.7035
   41MOL   C34845228   1.465   5.959   0.048  0.0188  0.1727  0.0803
   41MOL   C34945229   1.447   5.812   0.077  0.6507 -0.0364  0.3193
   41MOL   C35045230   1.450   5.728   7.643 -0.3400 -0.1774 -0.6774
   41MOL   O35145231   1.556   5.705   7.584 -0.1692  0.1875 -0.1417
   41MOL   N35245232   1.332   5.687   7.604 -0.0665 -0.5610 -0.1175
   41MOL   C35345233   1.302   5.607   7.486  0.1661  0.5994 -0.3549
   41MOL   C35445234   1.361   5.459   7.506 -0.1650  0.3513  0.2648
   41MOL   C35545235   1.312   5.363   7.384  0.4449  0.0472  0.2119
   41MOL   C35645236   1.342   5.213   7.417  0.3961 -0.8968  0.0822
   41MOL   C35745237   1.484   5.169   7.386 -0.8859  0.6795  0.8480
   41MOL   C35845238   1.527   5.022   7.427 -0.5065 -0.1705  0.5679
   41MOL   N35945239   1.671   4.989   7.401 -0.1371 -0.5071 -0.1138
   41MOL   H36045240   0.751   5.877   0.065 -0.6773 -0.2805  0.5371
   41MOL   H36145241   0.689   5.808   0.212 -0.4777 -2.1389 -2.0997
   41MOL   H36245242   0.840   6.073   0.189 -1.3843  1.2470 -0.3062
   41MOL   H36345243   0.757   6.040   0.331  1.2124  0.2978  0.7179
   41MOL   H36445244   0.896   5.833   0.373 -0.0188 -0.0517 -0.0133
   41MOL   H36545245   1.007   5.956   0.344  0.5830 -1.3294  0.4543
   41MOL   H36645246   1.083   5.763   0.224  0.2675  1.0868  0.2897
   41MOL   H36745247   0.949   5.740   0.138 -2.0130  1.2453 -0.1728
   41MOL   H36845248   1.134   5.836   0.017 -1.0299 -0.0212 -1.9390
   41MOL   H36945249   1.003   5.943   7.691  0.1282 -0.5071  0.5837
   41MOL   H37045250   1.089   6.095   0.174 -0.6415  0.7500 -0.3938
   41MOL   H37145251   1.221   5.994   0.219 -2.6595 -0.7687  1.8581
   41MOL   H37245252   1.178   6.157   7.666  0.0012  0.4278 -0.5750
   41MOL   H37345253   1.292   6.187   0.104 -1.4119  0.6794  0.0541
   41MOL   H37445254   1.309   5.957   7.582 -2.4124  1.2788 -0.5079
   41MOL   H37545255   1.391   6.112   7.597  1.1131  0.3082  0.5403
   41MOL   H37645256   1.473   6.022   0.136  2.6979 -0.8868  0.6372
   41MOL   H37745257   1.562   5.977   0.002 -0.5621  0.1381 -1.1747
   41MOL   H37845258   1.527   5.781   0.143  0.8739 -0.5501 -0.1882
   41MOL   H37945259   1.360   5.786   0.139  0.3942 -0.2224 -0.1163
   41MOL   H38045260   1.251   5.730   7.646  1.5119  0.4309  2.0052
   41MOL   H38145261   1.335   5.658   7.395  0.7754  1.0587  0.1184
   41MOL   H38245262   1.193   5.603   7.479  0.1775 -1.6916  0.4992
   41MOL   H38345263   1.352   5.416   7.606 -0.8043 -1.2293 -0.4493
   41MOL   H38445264   1.470   5.469   7.506 -0.3216  2.5066 -1.6142
   41MOL   H38545265   1.205   5.385   7.380  0.4492 -0.2155 -2.0398
   41MOL   H38645266   1.352   5.391   7.287 -0.8746 -0.0058 -0.3670
   41MOL   H38745267   1.313   5.187   7.519  2.1589 -0.1714  0.7938
   41MOL   H38845268   1.265   5.161   7.360 -0.8338 -2.5020  3.0676
   41MOL   H38945269   1.549   5.248   7.421 -1.7844  1.7184  0.2342
   41MOL   H39045270   1.496   5.163   7.277 -0.3687 -3.2211  1.0420
   41MOL   H39145271   1.502   5.001   7.531 -1.6899 -1.3749  0.0596
   41MOL   H39245272   1.471   4.951   7.367 -0.9262  0.0198  0.7301
   41MOL   H39345273   1.727   4.982   7.485  0.5713  1.2822 -0.4150
   41MOL   C39445274   1.718   4.966   7.283 -0.7734 -0.5806 -0.1158
   41MOL   O39545275   1.660   4.985   7.174  0.6249 -0.2641  0.0939
   41MOL   C39645276   1.858   4.916   7.280  0.1224  0.4892 -0.3149
   41MOL   C39745277   1.908   4.873   7.145 -0.1088 -0.1765  0.9621
   41MOL   C39845278   2.046   4.801   7.150  0.6448  0.1362 -0.0940
   41MOL   C39945279   2.146   4.884   7.223  0.4695  0.5236 -0.9058
   41MOL   C40045280   2.288   4.834   7.207 -0.3170 -0.5621 -0.0674
   41MOL   C40145281   2.383   4.897   7.310  0.2848  0.0989  0.4981
   41MOL   C40245282   2.532   4.852   7.294 -0.3623 -0.1243 -0.3060
   41MOL   C40345283   2.637   4.925   7.382 -0.0705  0.0415  0.0094
   41MOL   C40445284   2.652   5.072   7.327  0.4559 -0.1913  0.0873
   41MOL   C40545285   2.736   5.144   7.433 -0.7094 -0.2649  0.2374
   41MOL   C40645286   2.887   5.125   7.431 -0.3492  0.0525  0.4215
   41MOL   O40745287   2.948   5.133   7.326  0.0138 -0.3065  0.3865
   41MOL   N40845288   2.940   5.100   7.554 -0.0207 -0.1407 -0.2004
   41MOL   C40945289   3.066   5.044   7.565 -0.6870 -0.2850  0.1540
   41MOL   C41045290   3.138   5.112   7.681  0.7206 -0.6123 -0.0606
   41MOL   C41145291   3.289   5.081   7.662 -0.0779  0.1937  0.3143
   41MOL   C41245292   3.382   5.164   0.062  0.4623 -0.3370  0.4657
   41MOL   C41345293   3.529   5.132   0.050  0.3773 -0.8437  0.2364
   41MOL   C41445294   3.603   5.201   0.169 -0.0400 -0.2795 -0.0343
   41MOL   N41545295   3.749   5.190   0.155 -0.2446 -0.1069 -0.3382
   41MOL   H41645296   1.871   4.849   7.365  0.5317 -0.9736 -1.5010
   41MOL   H41745297   1.925   4.993   7.319  2.3918 -2.4038  1.7202
   41MOL   H41845298   1.915   4.957   7.075  0.1341 -0.3493  0.7792
   41MOL   H41945299   1.845   4.800   7.095 -0.4684  0.7892 -0.0162
   41MOL   H42045300   2.082   4.782   7.048 -0.6734 -2.2097 -0.1683
   41MOL   H42145301   2.035   4.712   7.212  0.3649  0.6823  0.6396
   41MOL   H42245302   2.113   4.886   7.327 -0.2456 -1.5312 -1.0725
   41MOL   H42345303   2.136   4.987   7.188 -1.6585 -0.0482 -2.0551
   41MOL   H42445304   2.299   4.727   7.227  0.9160 -0.4128  0.1387
   41MOL   H42545305   2.335   4.852   7.110  0.4072  0.4076  0.4579
   41MOL   H42645306   2.369   5.005   7.317 -1.8300 -0.1542  0.4989
   41MOL   H42745307   2.339   4.856   7.401 -1.2576 -2.2660 -1.2194
   41MOL   H42845308   2.524   4.747   7.322  0.4397  0.3390  1.7985
   41MOL   H42945309   2.552   4.859   7.187  0.7876 -1.5473 -0.1918
   41MOL   H43045310   2.599   4.924   7.484  1.1601 -1.5264  0.4801
   41MOL   H43145311   2.729   4.868   7.373  0.5001  1.0729 -0.9011
   41MOL   H43245312   2.557   5.124   7.314  1.2417  0.9148 -1.3511
   41MOL   H43345313   2.708   5.077   7.234  1.1644  0.5593  0.5467
   41MOL   H43445314   2.726   5.252   7.418  2.1804  0.1028  0.5581
   41MOL   H43545315   2.700   5.126   7.534 -2.1632 -0.4065 -0.3063
   41MOL   H43645316   2.887   5.106   7.640  1.6360  0.5440  0.8146
   41MOL   H43745317   3.122   5.058   7.472  0.2862  0.5999  0.8648
   41MOL   H43845318   3.056   4.937   7.580 -0.7519 -0.1620  1.0213
   41MOL   H43945319   3.092   5.068   0.078 -0.3237 -1.6410 -1.0975
   41MOL   H44045320   3.134   5.221   7.679  0.4136 -0.6221  0.0711
   41MOL   H44145321   3.307   4.976   7.684  2.1665  0.4185 -0.4292
   41MOL   H44245322   3.321   5.103   7.560 -4.8910  2.1668 -0.9441
   41MOL   H44345323   3.361   5.270   0.055  1.8159  0.0158  1.5003
   41MOL   H44445324   3.357   5.141   0.166  2.5189  0.7560  1.2184
   41MOL   H44545325   3.543   5.026   0.069  0.2899 -1.0046 -0.5834
   41MOL   H44645326   3.555   5.161   7.640  1.0035  0.7218  0.8220
   41MOL   H44745327   3.568   5.304   0.172  0.8503  0.0036  0.6259
   41MOL   H44845328   3.566   5.160   0.264  2.4646 -4.0609 -0.5651
   41MOL   H44945329   3.787   5.282   0.144 -1.7470  0.5560 -0.2227
   41MOL   C45045330   3.825   5.086   0.162  0.0076 -0.6556 -0.7253
   41MOL   O45145331   3.786   4.974   0.178  0.1160  0.3418  0.2936
   41MOL   C45245332   3.971   5.114   0.161  0.0638 -0.0604  0.0879
   41MOL   C45345333   4.049   5.052   0.045  0.4362 -0.1250  0.0150
   41MOL   C45445334   4.005   5.099   7.595  0.3187 -0.3770  0.0775
   41MOL   C45545335   4.102   5.059   7.478  1.1244 -0.3387 -0.6700
   41MOL   C45645336   4.110   4.901   7.458 -0.1554  0.4042  0.1746
   41MOL   C45745337   4.187   4.862   7.330 -0.6008 -0.1103 -0.7209
   41MOL   C45845338   4.334   4.875   7.350  0.4548 -0.0418  0.3506
   41MOL   C45945339   4.421   4.814   7.248 -0.0690  0.4761  0.2077
   41MOL   C46045340   4.572   4.820   7.282  1.0200  0.4175 -0.8422
   41MOL   C46145341   4.633   4.963   7.288  0.0284 -0.2758 -0.3900
   41MOL   C46245342   4.782   4.967   7.318  0.1300  0.5844 -0.0186
   41MOL   O46345343   4.852   4.866   7.295 -0.2000  0.1772  0.2700
   41MOL   N46445344   4.832   5.089   7.331 -0.4347 -0.4435 -0.1023
   41MOL   C46545345   4.974   5.116   7.356  0.0277 -0.0125 -0.0846
   41MOL   C46645346   5.017   5.066   7.496 -0.0097 -0.1827  0.1386
   41MOL   C46745347   5.172   5.077   7.507  0.1407  0.0573  0.0025
   41MOL   C46845348   5.224   5.019   7.640  0.6769  0.1077  0.3809
   41MOL   C46945349   5.383   5.005   7.641 -0.3609 -0.7610 -0.7079
   41MOL   C47045350   5.450   5.136   7.602 -0.1481  0.1385 -0.0074
   41MOL   N47145351   5.596   5.137   7.618 -0.0881 -0.0617 -0.6122
   41MOL   H47245352   3.991   5.221   0.165 -0.8532  0.1663 -0.8023
   41MOL   H47345353   3.998   5.082   0.261  0.1556  0.3525  0.1928
   41MOL   H47445354   4.043   4.943   0.053  0.4262 -0.0990  0.3674
   41MOL   H47545355   4.154   5.076   0.060  0.0791  2.0495 -0.7869
   41MOL   H47645356   4.004   5.207   7.601  3.4608 -0.2971 -0.0713
   41MOL   H47745357   3.899   5.074   7.584  0.4894 -1.9607  1.7620
   41MOL   H47845358   4.198   5.100   7.508  0.2527 -0.0842  1.9132
   41MOL   H47945359   4.059   5.101   7.387 -1.6752 -0.6978  0.4130
   41MOL   H48045360   4.009   4.859   7.460  0.2206 -0.5823 -1.1206
   41MOL   H48145361   4.158   4.861   7.547  1.0516 -0.4313 -0.8310
   41MOL   H48245362   4.140   4.921   7.252  0.8739  1.5507 -0.3862
   41MOL   H48345363   4.167   4.759   7.303  2.2847 -1.3970  1.6692
   41MOL   H48445364   4.361   4.980   7.367  0.5189 -0.2874  1.8962
   41MOL   H48545365   4.368   4.830   7.444  1.6128 -0.2022 -0.1312
   41MOL   H48645366   4.397   4.712   7.219  3.0882 -0.5267  0.8912
   41MOL   H48745367   4.406   4.859   7.150  0.5654  0.5715  0.1536
   41MOL   H48845368   4.630   4.760   7.211  1.9497 -0.2628  0.4701
   41MOL   H48945369   4.590   4.763   7.373 -4.1623  0.7161  0.5539
   41MOL   H49045370   4.616   5.019   7.197  1.5685  2.6274  1.0563
   41MOL   H49145371   4.585   5.026   7.362  0.8825  1.1178 -1.0016
   41MOL   H49245372   4.768   5.166   7.331 -0.1695 -0.2161  0.9196
   41MOL   H49345373   4.985   5.225   7.359 -0.0808  0.1242 -3.0014
   41MOL   H49445374   5.037   5.068   7.281  0.3127  0.5304 -0.1926
   41MOL   H49545375   4.966   5.132   7.566 -0.0994 -0.4732  0.3469
   41MOL   H49645376   4.992   4.960   7.501 -0.8247  0.0059  0.1220
   41MOL   H49745377   5.203   5.181   7.499  1.1274 -0.0858  1.6355
   41MOL   H49845378   5.215   5.032   7.418  0.2296  0.3703 -0.1135
   41MOL   H49945379   5.176   4.923   7.660 -0.4612  0.3382 -1.1589
   41MOL   H50045380   5.184   5.092   0.018  0.7210  1.1317 -0.6553
   41MOL   H50145381   5.409   4.974   0.050 -1.2196 -0.2380 -0.3106
   41MOL   H50245382   5.403   4.930   7.566 -0.0540 -0.0386 -1.3534
   41MOL   H50345383   5.420   5.158   7.499  1.6770  0.9881 -0.3953
   41MOL   H50445384   5.425   5.220   7.665  0.4367  0.7939 -0.6311
   41MOL   H50545385   5.628   5.045   7.590  0.4679  0.6081 -2.2090
   41MOL   C50645386   5.679   5.213   7.687 -1.1289 -0.3087 -0.1252
   41MOL   O50745387   5.653   5.311   0.055  0.7023  0.0299 -0.1948
   41MOL   C50845388   5.827   5.176   7.666 -0.0899 -0.3821 -0.2933
   41MOL   C50945389   5.908   5.179   0.109 -0.0312 -0.1966  0.2587
   41MOL   C51045390   5.980   5.318   0.133  0.5432 -1.1399 -0.6014
   41MOL   C51145391   6.042   5.334   0.272  0.0030 -0.3516 -0.4225
   41MOL   C51245392   6.134   5.452   0.274 -0.1466  0.8607 -0.5710
   41MOL   C51345393   6.275   5.413   0.205  0.3158  0.7930 -0.3417
   41MOL   C51445394   6.291   5.441   0.048 -0.6635  0.1432  0.2615
   41MOL   C51545395   6.434   5.430   0.002  0.0389 -0.0748  0.5081
   41MOL   C51645396   6.459   5.462   7.540 -0.1677 -0.2701  0.1660
   41MOL   C51745397   6.602   5.413   7.491 -0.4291  0.0309  0.1478
   41MOL   C51845398   6.605   5.426   7.339 -0.1992  0.4244 -0.0553
   41MOL   O51945399   6.602   5.327   7.266  0.1355  0.0562  0.1108
   41MOL   N52045400   6.618   5.549   7.289  0.3581  0.2172 -0.3084
   41MOL   C52145401   6.599   5.581   7.142 -0.2499  0.0272  0.1194
   41MOL   C52245402   6.536   5.722   7.129  0.2431  0.0351  0.4242
   41MOL   C52345403   6.483   5.755   6.990  0.3070 -0.3764  0.0937
   41MOL   C52445404   6.431   5.902   6.986 -0.2347 -0.6326  0.4724
   41MOL   C52545405   6.360   5.946   6.854  0.0075 -0.0510  0.1907
   41MOL   C52645406   6.221   5.893   6.835  0.0080 -0.0153 -0.8071
   41MOL   N52745407   6.181   5.908   6.696  0.3029  0.2898 -0.6221
   41MOL   H52845408   5.865   5.243   7.589 -0.3614  0.4618  0.3048
   41MOL   H52945409   5.845   5.077   7.624  1.1523  0.3143 -1.4276
   41MOL   H53045410   5.978   5.096   0.098  0.0347 -0.0336 -0.5493
   41MOL   H53145411   5.849   5.142   0.193 -2.1614 -0.9261 -1.5227
   41MOL   H53245412   5.902   5.394   0.126  1.4670 -0.0608  0.7029
   41MOL   H53345413   6.041   5.347   0.047 -0.5788  1.4724 -0.5833
   41MOL   H53445414   5.959   5.342   0.342  1.8461  0.3648  1.7590
   41MOL   H53545415   6.096   5.243   0.298 -1.6861 -0.9378  1.1484
   41MOL   H53645416   6.085   5.544   0.242 -3.4999 -0.2607  1.1602
   41MOL   H53745417   6.140   5.483   0.379 -3.6209  1.2626 -0.4118
   41MOL   H53845418   6.345   5.479   0.256 -0.6197  1.4302  0.1481
   41MOL   H53945419   6.315   5.318   0.241  1.7708  1.4230 -0.2637
   41MOL   H54045420   6.244   5.369   7.672 -1.3744  0.3324  0.5474
   41MOL   H54145421   6.253   5.541   0.029  1.0006  0.5260 -1.1254
   41MOL   H54245422   6.503   5.493   0.058 -0.2660 -0.1211  0.9416
   41MOL   H54345423   6.468   5.327   0.013  1.7433 -0.0422 -3.4872
   41MOL   H54445424   6.442   5.569   7.534  1.0832 -0.1592 -1.9839
   41MOL   H54545425   6.386   5.415   7.474  1.7488  0.3063 -2.4864
   41MOL   H54645426   6.684   5.474   7.530 -0.9309  0.5482  0.4203
   41MOL   H54745427   6.621   5.315   7.534 -1.9554  0.4009  1.7547
   41MOL   H54845428   6.622   5.622   7.358 -1.0017  0.8936 -0.9383
   41MOL   H54945429   6.528   5.509   7.101 -2.1466  0.0931  3.1487
   41MOL   H55045430   6.693   5.590   7.088  0.4422 -1.6360  1.0097
   41MOL   H55145431   6.608   5.802   7.145 -0.7561  0.8997  0.6392
   41MOL   H55245432   6.458   5.749   7.200  1.2495  2.8085  0.5490
   41MOL   H55345433   6.392   5.698   6.975 -1.1967  1.2080  2.7502
   41MOL   H55445434   6.559   5.730   6.916  0.7657 -2.1086  1.1370
   41MOL   H55545435   6.513   5.971   7.004 -1.6078  0.4315  2.9288
   41MOL   H55645436   6.368   5.930   7.071 -0.1246  0.5716  0.1634
   41MOL   H55745437   6.347   6.054   6.858 -0.7191 -0.1812  1.5335
   41MOL   H55845438   6.428   5.937   6.769  1.6365  0.7603  1.3809
   41MOL   H55945439   6.209   5.790   6.870  0.5189  0.0815 -0.3531
   41MOL   H56045440   6.164   5.954   6.905  1.4760  0.7850 -0.2877
   41MOL   H56145441   6.140   5.994   6.663 -0.6294  0.2641  0.4609
   41MOL   C56245442   6.192   5.808   6.608 -0.6518 -0.0506  0.5398
   41MOL   O56345443   6.238   5.698   6.642 -0.0323  0.2899 -0.0746
   41MOL   C56445444   6.140   5.827   6.463  0.0080 -0.1807 -0.2359
   41MOL   C56545445   6.183   5.715   6.368  0.0900 -0.0906  0.2650
   41MOL   C56645446   6.144   5.746   6.226 -0.1854  0.0173 -0.0450
   41MOL   C56745447   6.206   5.647   6.131  0.4020 -0.4732 -0.1026
   41MOL   C56845448   6.148   5.506   6.137 -0.0775 -0.3715  0.1177
   41MOL   C56945449   6.220   5.404   6.047 -0.1556 -0.2983  0.2484
   41MOL   C57045450   6.159   5.266   6.064  0.2431 -0.1266  0.5166
   41MOL   C57145451   6.216   5.165   5.959 -0.3060 -0.0214 -0.0919
   41MOL   C57245452   6.195   5.017   5.999  0.4926 -1.0074  0.2707
   41MOL   C57345453   6.044   4.992   6.005  0.4003  0.1289  0.4575
   41MOL   C57445454   6.017   4.839   6.008 -0.3401 -0.1024 -0.0389
   41MOL   O57545455   6.017   4.781   5.902  0.3758  0.3092  0.3825
   41MOL   N57645456   5.979   4.787   6.126 -0.6234  0.1484  0.1347
   41MOL   C57745457   5.940   4.647   6.146 -0.2348 -0.5921  0.5909
   41MOL   C57845458   6.061   4.558   6.136 -0.3856 -0.7754  0.5566
   41MOL   C57945459   6.042   4.414   6.192  0.0217 -0.2240 -0.5154
   41MOL   C58045460   6.154   4.312   6.171 -0.1069  0.2085 -0.2220
   41MOL   C58145461   6.169   4.263   6.028 -0.0983  0.6845 -0.8995
   41MOL   C58245462   6.295   4.177   6.013  0.6836  1.0698 -0.8961
   41MOL   N58345463   6.290   4.104   5.892 -0.4196  0.0078  0.4679
   41MOL   H58445464   6.034   5.853   6.457 -0.2375 -1.2621 -0.7029
   41MOL   H58545465   6.176   5.923   6.426 -3.7097  1.4640  0.1082
   41MOL   H58645466   6.292   5.708   6.371  0.0265 -3.2922 -1.6804
   41MOL   H58745467   6.137   5.622   6.402  0.9006 -0.3327  0.7141
   41MOL   H58845468   6.175   5.846   6.196  0.3227  0.0205  0.4899
   41MOL   H58945469   6.035   5.743   6.221 -0.1783 -1.3824  0.3442
   41MOL   H59045470   6.182   5.670   6.027 -0.6084  0.3579  0.3045
   41MOL   H59145471   6.313   5.659   6.146  0.4172 -2.0003  1.1587
   41MOL   H59245472   6.143   5.472   6.240  2.1119  0.4056  0.4878
   41MOL   H59345473   6.043   5.503   6.105 -0.6047  0.1012  1.7914
   41MOL   H59445474   6.214   5.429   5.941  1.1008  0.3684  0.3261
   41MOL   H59545475   6.327   5.397   6.064  0.3213 -1.0839 -2.7369
   41MOL   H59645476   6.194   5.245   6.165 -0.8812  2.0687  1.3847
   41MOL   H59745477   6.050   5.267   6.061  0.1988 -3.3913 -0.9676
   41MOL   H59845478   6.322   5.186   5.942  0.0523 -0.5755  1.3550
   41MOL   H59945479   6.179   5.190   5.860 -0.7017  0.3891  0.1574
   41MOL   H60045480   6.234   5.012   6.101 -0.4373  0.9176  0.7574
   41MOL   H60145481   6.238   4.950   5.925  1.0788 -0.4733  0.1247
   41MOL   H60245482   6.010   5.044   6.095  0.4096  2.0174 -0.6063
   41MOL   H60345483   6.000   5.038   5.917 -0.3703  1.8038  1.6685
   41MOL   H60445484   5.988   4.845   6.208 -0.2748 -0.1401  0.3026
   41MOL   H60545485   5.866   4.604   6.079  1.2925 -3.5890  0.7549
   41MOL   H60645486   5.903   4.640   6.248 -1.9061 -4.5847 -0.2069
   41MOL   H60745487   6.148   4.595   6.190 -0.0807  1.4378 -1.3479
   41MOL   H60845488   6.090   4.570   6.031  1.8000  0.4511  1.2797
   41MOL   H60945489   5.959   4.360   6.147  1.6163 -2.9222 -0.3319
   41MOL   H61045490   6.010   4.414   6.297  2.6323  0.7201  0.3273
   41MOL   H61145491   6.248   4.353   6.209  0.6235 -1.7669  0.1760
   41MOL   H61245492   6.126   4.230   6.237 -1.4698  1.2387  0.4990
   41MOL   H61345493   6.162   4.341   5.953 -0.3226  0.5600 -1.0088
   41MOL   H61445494   6.079   4.203   6.011  0.3412  0.1306 -1.2878
   41MOL   H61545495   6.389   4.233   6.011  2.3539 -1.5959 -0.2567
   41MOL   H61645496   6.292   4.105   6.095 -1.1294  3.2852  1.0507
   41MOL   H61745497   6.261   4.153   5.808  0.2968 -0.0301  0.1915
   41MOL   C61845498   6.306   3.975   5.876  0.0081 -0.2650  0.1618
   41MOL   O61945499   6.330   3.902   5.966 -0.0316 -0.4950 -0.2022
   41MOL   C62045500   6.295   3.918   5.737  0.2940  0.1885 -0.7633
   41MOL   C62145501   6.429   3.850   5.696  0.5612 -0.1485 -0.1297
   41MOL   C62245502   6.425   3.694   5.723 -0.1811 -0.5252  0.6663
   41MOL   C62345503   6.549   3.622   5.676  0.2449 -0.1773 -0.3393
   41MOL   C62445504   6.658   3.614   5.779 -0.7492  0.3443  0.2578
   41MOL   C62545505   6.789   3.547   5.735  0.4703 -0.2086  0.3966
   41MOL   C62645506   6.887   3.559   5.848  0.1928 -0.1620  0.7409
   41MOL   C62745507   7.033   3.570   5.799  0.1967  0.3236  0.0657
   41MOL   C62845508   7.090   3.438   5.738 -0.7821  0.1509 -0.6036
   41MOL   C62945509   7.245   3.445   5.701 -0.4985 -0.7771  0.3451
   41MOL   C63045510   7.335   3.413   5.816 -0.1930  0.1663 -0.8256
   41MOL   O63145511   7.385   3.501   5.884 -0.3929  0.2203 -0.0256
   41MOL   N63245512   7.359   3.281   5.837 -0.1771 -0.5645  0.0991
   41MOL   C63345513   7.458   3.222   5.923 -0.4342  0.1817  0.3812
   41MOL   C63445514   7.602   3.279   5.889  0.8579  0.1691 -0.2111
   41MOL   C63545515   0.025   3.204   5.948  0.0294 -0.1699 -0.0104
   41MOL   C63645516   0.159   3.245   5.901 -0.4761 -0.3243 -0.1975
   41MOL   C63745517   0.271   3.164   5.972  0.1216 -0.7132  0.2885
   41MOL   C63845518   0.411   3.225   5.950 -0.2304 -0.0843  0.0744
   41MOL   N63945519   0.442   3.266   5.812  0.3296  0.3419  0.2556
   41MOL   H64045520   6.268   4.003   5.675  1.1918  2.0664  1.3259
   41MOL   H64145521   6.217   3.842   5.727  0.4265 -0.4895  2.6200
   41MOL   H64245522   6.501   3.905   5.758  0.8158  1.9845 -2.2277
   41MOL   H64345523   6.445   3.875   5.591  2.5381  2.9302  0.8184
   41MOL   H64445524   6.341   3.651   5.669 -0.1660 -0.6302  0.7248
   41MOL   H64545525   6.408   3.669   5.828 -1.0245  2.3067  1.2460
   41MOL   H64645526   6.500   3.528   5.652  0.0691 -0.1569 -0.0609
   41MOL   H64745527   6.586   3.644   5.575  1.5744 -2.2573 -0.3296
   41MOL   H64845528   6.677   3.717   5.810  1.8785  0.0469 -0.2981
   41MOL   H64945529   6.611   3.556   5.859 -0.1396 -0.6999 -0.1358
   41MOL   H65045530   6.818   3.616   5.656 -0.1643 -0.6447 -0.2311
   41MOL   H65145531   6.782   3.450   5.686 -1.3522  0.7350 -1.2905
   41MOL   H65245532   6.862   3.646   5.908  1.4836  0.3427  0.5403
   41MOL   H65345533   6.874   3.466   5.904  0.4087 -0.8507 -0.3356
   41MOL   H65445534   7.045   3.652   5.729 -0.9514 -0.0067 -0.5392
   41MOL   H65545535   7.090   3.612   5.882 -1.0551 -1.4215  1.8672
   41MOL   H65645536   7.036   3.414   5.646  1.3049 -4.2333 -0.8110
   41MOL   H65745537   7.074   3.355   5.807  1.0956 -0.1128 -0.4474
   41MOL   H65845538   7.262   3.365   5.629  0.2620 -2.3621  2.2545
   41MOL   H65945539   7.264   3.547   5.668 -2.3313  0.5883  3.2856
   41MOL   H66045540   7.303   3.218   5.782  2.0613 -0.8501 -1.9661
   41MOL   H66145541   7.440   3.227   6.030  0.4111  0.2701  0.5241
   41MOL   H66245542   7.460   3.116   5.897  0.5621  0.1899  0.4108
   41MOL   H66345543   7.592   3.383   5.921 -0.7858 -0.3268  0.9288
   41MOL   H66445544   7.626   3.289   5.784  0.4302  5.1609  0.0572
   41MOL   H66545545   0.027   3.216   6.057 -0.2780  0.0588 -0.0287
   41MOL   H66645546   0.008   3.098   5.927 -0.1005 -0.8204  3.0931
   41MOL   H66745547   0.163   3.349   5.933  2.1841 -0.9856  1.8451
   41MOL   H66845548   0.173   3.234   5.794 -3.9112 -1.9874 -0.5394
   41MOL   H66945549   0.253   3.169   6.079 -0.9573  2.5075  0.0138
   41MOL   H67045550   0.288   3.061   5.940 -1.5307 -0.8487 -0.2065
   41MOL   H67145551   0.410   3.319   6.006  1.7917  0.9609 -1.5923
   41MOL   H67245552   0.486   3.161   5.997 -1.0169 -0.0168  1.4371
   41MOL   H67345553   0.428   3.362   5.781 -3.3531  0.0512  0.8055
   41MOL   C67445554   0.464   3.178   5.713 -0.6887  0.7668 -0.0819
   41MOL   O67545555   0.470   3.056   5.736  0.0044 -0.2161  0.4695
   41MOL   C67645556   0.468   3.232   5.571  0.5006 -0.4860  0.4641
   41MOL   C67745557   0.506   3.131   5.466  0.3393 -0.7073  0.4800
   41MOL   C67845558   0.471   3.189   5.323  0.2249 -0.1439 -0.4977
   41MOL   C67945559   0.569   3.298   5.270 -0.5835  0.0269 -0.2249
   41MOL   C68045560   0.512   3.375   5.152  0.8008 -0.2442  0.5563
   41MOL   C68145561   0.549   3.314   5.007 -0.2529 -0.0858  0.1980
   41MOL   C68245562   0.464   3.374   4.891 -0.8566  0.4460  0.4477
   41MOL   C68345563   0.467   3.299   4.752  0.3924 -0.3878 -0.0782
   41MOL   C68445564   0.592   3.337   4.670 -0.4344  0.6674 -0.2495
   41MOL   C68545565   0.620   3.217   4.573 -0.4065  0.4867 -0.2529
   41MOL   C68645566   0.739   3.237   4.481  0.3342  0.1072  0.0773
   41MOL   O68745567   0.830   3.313   4.512 -0.1747 -0.0819 -0.4623
   41MOL   N68845568   0.737   3.175   4.360  0.8480  0.2344 -0.5221
   41MOL   C68945569   0.830   3.216   4.253 -0.2457  0.2925 -0.0612
   41MOL   C69045570   0.794   3.342   4.174  0.3652 -0.0032  0.0842
   41MOL   C69145571   0.892   3.379   4.064 -0.4129  0.2086 -0.1477
   41MOL   C69245572   0.873   3.513   4.002 -0.1523  0.3034  0.3986
   41MOL   C69345573   0.961   3.533   3.877  0.5788  1.0799 -0.0948
   41MOL   C69445574   0.915   3.654   3.800  0.2289  0.0514 -0.4302
   41MOL   N69545575   0.957   3.648   3.665 -0.2111  0.0853  0.6143
   41MOL   H69645576   0.534   3.319   5.571 -0.2362  0.0841  0.7249
   41MOL   H69745577   0.371   3.276   5.549  0.8640  1.3832  2.4048
   41MOL   H69845578   0.439   3.046   5.478  0.2796 -0.4251  2.2259
   41MOL   H69945579   0.610   3.106   5.490  1.5686  2.1238 -1.4949
   41MOL   H70045580   0.476   3.106   5.253  0.8117 -1.5845  1.2177
   41MOL   H70145581   0.367   3.222   5.316  0.9660  2.2082 -0.8190
   41MOL   H70245582   0.670   3.262   5.248 -0.4749  1.2487 -1.8052
   41MOL   H70345583   0.567   3.380   5.342  0.2990  1.6210 -1.9702
   41MOL   H70445584   0.542   3.480   5.151 -1.3033  0.3875 -0.1911
   41MOL   H70545585   0.404   3.383   5.166  1.2787  1.6390  3.6804
   41MOL   H70645586   0.652   3.343   4.983 -1.2375  2.1262 -1.5308
   41MOL   H70745587   0.537   3.206   5.001  1.6435 -0.3601  0.7230
   41MOL   H70845588   0.365   3.392   4.933 -1.2174 -0.3202 -0.0656
   41MOL   H70945589   0.490   3.478   4.876 -1.1640  0.4621  0.0041
   41MOL   H71045590   0.458   3.191   4.769  0.9789 -0.3241  0.6116
   41MOL   H71145591   0.386   3.336   4.688 -1.1882 -1.6041  1.1758
   41MOL   H71245592   0.681   3.368   4.725 -0.7866  0.4033  0.4703
   41MOL   H71345593   0.566   3.424   4.610 -2.5725  0.6131  0.5588
   41MOL   H71445594   0.645   3.130   4.633  0.8312  0.3019 -1.0373
   41MOL   H71545595   0.522   3.202   4.527  0.7911 -0.1457 -2.6276
   41MOL   H71645596   0.660   3.113   4.338  0.3332  0.2138  1.2348
   41MOL   H71745597   0.924   3.234   4.305 -1.0052  0.8629  1.1390
   41MOL   H71845598   0.836   3.136   4.180  1.3380  1.1068 -0.8391
   41MOL   H71945599   0.786   3.412   4.257 -0.6586 -0.1887  0.1406
   41MOL   H72045600   0.696   3.334   4.127  0.5904 -1.9429 -0.0745
   41MOL   H72145601   0.990   3.387   4.110 -0.1947 -1.9867 -0.1400
   41MOL   H72245602   0.895   3.308   3.982  0.0223  1.7165 -1.4399
   41MOL   H72345603   0.877   3.605   4.061 -0.0844 -0.4735  1.5951
   41MOL   H72445604   0.773   3.530   3.963  0.1893  0.0122 -0.6388
   41MOL   H72545605   0.953   3.449   3.809 -4.4091  0.9498  0.4973
   41MOL   H72645606   1.067   3.536   3.904  1.0120  0.7183 -1.7013
   41MOL   H72745607   0.808   3.674   3.808  0.3506  0.6539 -0.2993
   41MOL   H72845608   0.970   3.742   3.831 -0.6517  1.0392 -1.6458
   41MOL   H72945609   1.043   3.597   3.649 -2.0407 -2.9579  0.0677
   41MOL   C73045610   0.890   3.689   3.557  0.7193  0.3260 -0.5108
   41MOL   O73145611   0.774   3.735   3.556  0.2904  0.3054  0.0370
   41MOL   C73245612   0.961   3.682   3.424 -0.1116  0.3969 -0.5308
   41MOL   C73345613   0.885   3.599   3.313 -0.0598 -0.0420 -0.2892
   41MOL   C73445614   0.918   3.449   3.329  0.3399  0.6180  0.4783
   41MOL   C73545615   0.820   3.365   3.244  0.0413 -0.1491 -0.1162
   41MOL   C73645616   0.855   3.218   3.273 -0.1832 -0.9710 -0.8339
   41MOL   C73745617   0.808   3.139   3.146  0.1727  0.8160  0.2069
   41MOL   C73845618   0.785   2.992   3.177  0.3600 -0.2665 -0.2505
   41MOL   C73945619   0.762   2.908   3.049 -0.8892  1.1316 -0.6035
   41MOL   C74045620   0.776   2.755   3.063  0.1478  0.1240 -0.0472
   41MOL   C74145621   0.640   2.693   3.088  0.2040 -0.0729  0.2118
   41MOL   C74245622   0.647   2.541   3.111 -0.1162 -0.3599 -0.0465
   41MOL   O74345623   0.679   2.473   3.012 -0.3270 -0.3274 -0.1927
   41MOL   N74445624   0.619   2.489   3.231  0.3464 -0.0840  0.3489
   41MOL   C74545625   0.596   2.349   3.267  0.2417 -0.4199  0.4401
   41MOL   C74645626   0.650   2.318   3.407  0.2254  0.1169 -0.2634
   41MOL   C74745627   0.805   2.317   3.423  0.3908 -0.0284 -0.1808
   41MOL   C74845628   0.868   2.451   3.454  0.8413 -0.1316  0.3089
   41MOL   C74945629   1.019   2.459   3.485 -0.9306  0.2593 -0.2639
   41MOL   C75045630   1.056   2.584   3.560 -0.5868 -0.5372 -0.1279
   41MOL   N75145631   0.997   2.589   3.694  0.6570 -0.1195  0.5750
   41MOL   H75245632   1.061   3.641   3.437 -0.5169 -0.9386 -1.4876
   41MOL   H75345633   0.969   3.782   3.382 -1.0025  1.2764  1.3440
   41MOL   H75445634   0.911   3.625   3.210  1.1797  0.5068  0.1579
   41MOL   H75545635   0.779   3.622   3.318  0.1663  0.5090  2.8013
   41MOL   H75645636   0.914   3.411   3.431 -1.5363 -0.5714 -0.0038
   41MOL   H75745637   1.021   3.433   3.299  0.4664  3.1679 -0.5816
   41MOL   H75845638   0.829   3.389   3.138  3.3169 -0.4832  0.0366
   41MOL   H75945639   0.717   3.394   3.264 -0.1005  0.9633 -2.3543
   41MOL   H76045640   0.797   3.197   3.362  0.5351  0.3411 -0.0564
   41MOL   H76145641   0.962   3.196   3.284 -0.2048 -2.7022 -3.4044
   41MOL   H76245642   0.720   3.187   3.102 -0.6808 -1.4310 -0.6398
   41MOL   H76345643   0.888   3.160   3.075 -0.0328 -3.0832 -1.3344
   41MOL   H76445644   0.870   2.951   3.232  0.0554 -1.1723 -0.4532
   41MOL   H76545645   0.694   2.984   3.235  0.1372 -1.0072 -0.6947
   41MOL   H76645646   0.663   2.922   3.005 -0.3604 -0.2569 -2.2812
   41MOL   H76745647   0.831   2.943   2.972 -1.3585  2.9318 -0.2286
   41MOL   H76845648   0.842   2.731   3.147  1.6265  2.9012 -0.3487
   41MOL   H76945649   0.822   2.710   2.975 -0.6650  0.9207 -0.8805
   41MOL   H77045650   0.597   2.731   3.181 -0.0988  0.7973 -0.2805
   41MOL   H77145651   0.563   2.724   3.018  0.1682  0.4388  0.4750
   41MOL   H77245652   0.573   2.551   3.295 -0.9054 -0.9909  0.3431
   41MOL   H77345653   0.651   2.296   3.188 -0.6123 -0.0686 -0.3920
   41MOL   H77445654   0.492   2.320   3.279  0.4120 -1.4272 -0.4024
   41MOL   H77545655   0.614   2.218   3.432 -1.4294  0.7338 -0.0714
   41MOL   H77645656   0.595   2.383   3.475 -1.6913 -0.4236 -1.2607
   41MOL   H77745657   0.856   2.262   3.344 -1.9366  0.9363 -2.4239
   41MOL   H77845658   0.823   2.242   3.500 -0.0513  0.0006 -0.0423
   41MOL   H77945659   0.842   2.532   3.387 -2.8673 -1.8137 -0.3944
   41MOL   H78045660   0.808   2.482   3.540 -1.5837  0.8948 -1.7036
   41MOL   H78145661   1.079   2.460   3.394 -1.0063 -0.9854 -0.3389
   41MOL   H78245662   1.066   2.369   3.527 -0.1156 -0.2526 -2.2193
   41MOL   H78345663   1.164   2.596   3.547 -0.9911  0.1575 -3.1111
   41MOL   H78445664   1.021   2.677   3.516 -0.6603 -0.1241  0.7950
   41MOL   H78545665   0.945   2.674   3.711  1.9723  1.3014 -2.1671
   41MOL   C78645666   0.997   2.502   3.793 -0.2642 -0.2384  0.8890
   41MOL   O78745667   1.053   2.393   3.777 -0.3402 -0.3024  0.0047
   41MOL   C78845668   0.930   2.536   3.924  0.3666  0.2358 -0.1818
   41MOL   C78945669   0.891   2.421   4.019  0.5388 -0.1843  1.1226
   41MOL   C79045670   0.740   2.398   4.009  0.5186  0.0100  0.0814
   41MOL   C79145671   0.679   2.294   4.102  0.0671 -0.9848  0.1643
   41MOL   C79245672   0.526   2.290   4.101  0.2550  0.5667  0.0911
   41MOL   C79345673   0.467   2.169   4.156  0.4768 -0.3331 -0.2791
   41MOL   C79445674   0.314   2.146   4.142 -0.7129  0.1388 -0.8399
   41MOL   C79545675   0.277   2.008   4.193  0.1248  0.2542  0.4743
   41MOL   C79645676   0.121   1.985   4.170 -0.2154 -0.5829  0.2625
   41MOL   C79745677   0.078   1.847   4.231 -0.2475  0.0302 -0.0247
   41MOL   C79845678   0.144   1.727   4.168 -0.0265  0.8297 -0.6857
   41MOL   O79945679   0.096   1.695   4.064 -0.0057  0.4168  0.8852
   41MOL   N80045680   0.227   1.657   4.242  0.2718 -0.4299  0.2797
   41MOL   C80145681   0.308   1.543   4.194 -0.1617 -0.0112 -0.1562
   41MOL   C80245682   0.414   1.596   4.103  0.1954  0.3300  0.1215
   41MOL   C80345683   0.514   1.483   4.057  0.5046 -0.6705 -0.4332
   41MOL   C80445684   0.464   1.395   3.940  0.1782  0.1418  0.6178
   41MOL   C80545685   0.449   1.456   3.806 -0.2392  0.0345  0.1972
   41MOL   C80645686   0.414   1.357   3.687 -0.4017  0.1113 -0.0630
   41MOL   N80745687   0.418   1.408   3.556  0.3058 -0.1091  0.4134
   41MOL   H80845688   0.844   2.599   3.903  0.3786 -0.8642 -3.9400
   41MOL   H80945689   0.997   2.600   3.981  1.9217  0.0475 -1.7572
   41MOL   H81045690   0.946   2.332   3.992  0.8681  1.1492 -2.9458
   41MOL   H81145691   0.927   2.431   4.122  2.0075  0.2187  0.5829
   41MOL   H81245692   0.716   2.369   3.907  1.2156  0.7832 -0.3107
   41MOL   H81345693   0.691   2.493   4.032  0.0989  0.0688 -1.0563
   41MOL   H81445694   0.726   2.206   4.059  0.5216 -1.4582  1.5993
   41MOL   H81545695   0.714   2.305   4.205 -3.0521  1.2693  1.0564
   41MOL   H81645696   0.489   2.377   4.156  0.7407  0.5579  0.4423
   41MOL   H81745697   0.486   2.292   4.000  0.3634  1.1726  0.0600
   41MOL   H81845698   0.516   2.084   4.109 -0.4022 -1.8957  1.5860
   41MOL   H81945699   0.489   2.164   4.263 -0.0897 -1.4787 -0.2059
   41MOL   H82045700   0.268   2.219   4.209 -1.2980 -2.5927  1.7954
   41MOL   H82145701   0.283   2.159   4.038 -1.4464  2.5857 -0.3658
   41MOL   H82245702   0.334   1.935   4.135 -0.2903  0.5446 -0.3070
   41MOL   H82345703   0.292   1.990   4.300 -0.9107  0.3921  0.6468
   41MOL   H82445704   0.109   1.988   4.061  2.7589  0.3992 -0.0782
   41MOL   H82545705   0.057   2.062   4.214 -1.7320 -0.9964 -1.1576
   41MOL   H82645706   0.106   1.844   4.336  0.3080 -0.2558 -0.1804
   41MOL   H82745707   7.662   1.831   4.234 -0.4427  1.0647 -1.1569
   41MOL   H82845708   0.266   1.696   4.326  0.3697  0.2303 -0.0676
   41MOL   H82945709   0.244   1.477   4.135  1.2754 -1.3730 -0.2360
   41MOL   H83045710   0.345   1.483   4.277  0.4806  0.5550 -0.0319
   41MOL   H83145711   0.476   1.665   4.161  0.6572  0.0124  0.0117
   41MOL   H83245712   0.378   1.652   4.017  0.8076 -1.0850 -1.0716
   41MOL   H83345713   0.610   1.528   4.033 -0.8175  2.9093  0.7452
   41MOL   H83445714   0.537   1.423   4.145  2.9604  0.6937 -0.0993
   41MOL   H83545715   0.376   1.342   3.975 -1.3568  0.9600 -1.8161
   41MOL   H83645716   0.550   1.329   3.929  0.2344  0.4175 -0.8123
   41MOL   H83745717   0.541   1.509   3.779 -2.3797  2.7494 -2.1156
   41MOL   H83845718   0.367   1.528   3.808  0.0621  0.3889 -0.0113
   41MOL   H83945719   0.318   1.308   3.703 -0.5337 -0.0297 -1.2478
   41MOL   H84045720   0.490   1.279   3.697 -1.3466 -0.6712  1.0974
   41MOL   H84145721   0.510   1.421   3.518  0.9358 -1.6574  1.3684
   41MOL   C84245722   0.316   1.450   3.478  0.3991 -0.7065  0.5725
   41MOL   O84345723   0.201   1.448   3.524  0.0666 -0.4902 -0.2244
   41MOL   C84445724   0.345   1.510   3.349  0.2475 -0.4503 -0.4597
   41MOL   C84545725   0.288   1.654   3.333 -0.8220  0.4754 -0.2861
   41MOL   C84645726   0.348   1.713   3.206  0.2320  0.8403  0.4184
   41MOL   C84745727   0.306   1.861   3.172  0.2399  0.4777 -0.1082
   41MOL   C84845728   0.158   1.870   3.145  0.0511 -0.1214  0.3235
   41MOL   C84945729   0.113   1.822   3.004 -0.4272 -0.4576 -0.2706
   41MOL   C85045730   7.651   1.827   2.998  0.3658 -0.3211  0.3675
   41MOL   C85145731   7.595   1.792   2.858  0.4297 -0.4216 -0.8210
   41MOL   C85245732   7.450   1.830   2.831 -0.0238 -0.1009  0.3370
   41MOL   C85345733   7.345   1.731   2.890 -0.2443  0.2685  0.1398
   41MOL   C85445734   7.224   1.793   2.954  0.1949  0.0529  0.1613
   41MOL   O85545735   7.146   1.868   2.893 -0.3011  0.3809 -1.0237
   41MOL   N85645736   7.213   1.755   3.077 -0.5274 -0.2722 -0.3756
   41MOL   C85745737   7.108   1.809   3.170 -1.0888  0.6518  0.1183
   41MOL   C85845738   7.157   1.921   3.256 -0.5622  0.3717 -0.3494
   41MOL   C85945739   7.257   1.875   3.356 -0.2239  0.1498 -0.4331
   41MOL   C86045740   7.365   1.974   3.385  0.6103 -0.3683  0.0433
   41MOL   C86145741   7.462   2.011   3.273 -0.2008  0.3292 -0.9402
   41MOL   C86245742   7.523   2.145   3.289 -0.1510 -1.0331 -1.2204
   41MOL   N86345743   7.608   2.160   3.410  0.5960  0.8174 -0.2369
   41MOL   H86445744   0.309   1.455   3.262  0.8982  1.0690 -1.7197
   41MOL   H86545745   0.453   1.528   3.353  0.4990 -2.0797  0.3750
   41MOL   H86645746   0.325   1.715   3.416  1.4566 -0.4944 -0.5467
   41MOL   H86745747   0.180   1.642   3.322 -0.6105 -0.7296 -1.0742
   41MOL   H86845748   0.454   1.689   3.196 -0.0914 -0.4329 -0.0885
   41MOL   H86945749   0.320   1.662   3.114  0.0048  0.0971  0.9009
   41MOL   H87045750   0.366   1.900   3.090 -0.6780  0.4324 -0.8109
   41MOL   H87145751   0.328   1.935   3.249  0.6749 -0.1344  0.3598
   41MOL   H87245752   0.099   1.826   3.225 -0.8449  0.2671 -0.1192
   41MOL   H87345753   0.130   1.975   3.155 -1.2502 -0.2217 -1.8767
   41MOL   H87445754   0.161   1.891   2.935  0.1996 -0.7979 -0.1713
   41MOL   H87545755   0.147   1.720   2.990 -0.4133 -0.4082 -0.6202
   41MOL   H87645756   7.614   1.767   3.080 -0.9470  1.0833  0.8123
   41MOL   H87745757   7.625   1.930   3.024 -1.0121 -0.3877 -0.6975
   41MOL   H87845758   7.614   1.686   2.841 -0.4193 -0.8017  0.4848
   41MOL   H87945759   7.653   1.849   2.786 -2.3398  1.5838 -1.5497
   41MOL   H88045760   7.444   1.843   2.723  0.3401 -0.8196  0.2330
   41MOL   H88145761   7.426   1.930   2.870  0.0603  0.7936 -1.8294
   41MOL   H88245762   7.325   1.648   2.823  1.1569  0.6899 -0.8425
   41MOL   H88345763   7.393   1.665   2.963 -1.0299  1.2984  1.6038
   41MOL   H88445764   7.273   1.683   3.116  2.1190  0.2154 -3.3569
   41MOL   H88545765   7.063   1.730   3.230  2.3165 -1.2026  0.3457
   41MOL   H88645766   7.024   1.845   3.110 -0.0738  1.2692 -0.9461
   41MOL   H88745767   7.077   1.962   3.318  0.3507  0.3764  0.8304
   41MOL   H88845768   7.203   2.000   3.196  1.1860  0.3402  0.9253
   41MOL   H88945769   7.316   1.786   3.332  3.0670  1.8274  1.1270
   41MOL   H89045770   7.192   1.860   3.442  0.2636  2.0087  0.2781
   41MOL   H89145771   7.420   1.938   3.471 -1.4385 -2.0109  0.7204
   41MOL   H89245772   7.315   2.066   3.416  1.5370  1.1827 -2.8502
   41MOL   H89345773   7.547   1.943   3.277 -1.1678 -0.9224 -1.1049
   41MOL   H89445774   7.410   2.011   3.178 -2.0259 -0.4176  0.0315
   41MOL   H89545775   7.575   2.169   3.197  0.6704  0.9937 -0.2662
   41MOL   H89645776   7.444   2.220   3.287 -0.2146 -0.9590  1.3323
   41MOL   H89745777   7.564   2.187   3.496  1.5970  0.9449  0.2378
   41MOL   C89845778   0.042   2.187   3.408  0.1375 -0.1502  0.4843
   41MOL   O89945779   0.102   2.196   3.299  0.0725 -0.2174  0.3192
   41MOL   C90045780   0.109   2.202   3.536 -0.1798  0.0523 -0.1169
   41MOL   C90145781   0.172   2.339   3.553  0.7307  0.1478  0.4418
   41MOL   C90245782   0.274   2.351   3.671  0.0907 -0.3702 -0.0546
   41MOL   C90345783   0.256   2.493   3.727 -0.4599  0.1876 -0.6703
   41MOL   C90445784   0.339   2.511   3.858  0.4434 -0.2098  0.4043
   41MOL   C90545785   0.361   2.659   3.892  0.5009  0.6493 -0.4545
   41MOL   C90645786   0.431   2.743   3.801 -0.3439  0.6567 -0.5300
   41MOL   C90745787   0.581   2.707   3.788  0.4827 -0.1036  1.0787
   41MOL   C90845788   0.628   2.696   3.642  0.8717  0.2053 -0.3643
   41MOL   C90945789   0.628   2.826   3.557 -0.2271  0.2071  1.0919
   41MOL   C91045790   0.723   2.940   3.601 -0.6188 -0.7628  0.1865
   41MOL   O91145791   0.835   2.906   3.633 -0.3951  0.1087 -0.0438
   41MOL   N91245792   0.682   3.067   3.610 -0.2948 -0.2237 -0.6903
   41MOL   C91345793   0.751   3.171   3.684 -0.6154 -0.1238  0.5817
   41MOL   C91445794   0.666   3.294   3.731  0.7164 -0.1501  0.4000
   41MOL   C91545795   0.636   3.390   3.613  0.0071 -0.5413 -0.5412
   41MOL   C91645796   0.540   3.490   3.654 -0.4215 -0.3665  0.2197
   41MOL   C91745797   0.470   3.557   3.532  0.6714 -0.0274 -0.7678
   41MOL   C91845798   0.418   3.696   3.565  0.1014 -0.1299 -0.2563
   41MOL   N91945799   0.321   3.683   3.680 -0.4880  0.1199  0.1423
   41MOL   H92045800   0.032   2.186   3.611 -1.1278 -2.1742 -1.5193
   41MOL   H92145801   0.183   2.122   3.531 -1.8299 -1.4196 -1.7210
   41MOL   H92245802   0.092   2.410   3.570  1.1347 -0.0417  3.6140
   41MOL   H92345803   0.222   2.370   3.462  0.7043  0.3133  0.4845
   41MOL   H92445804   0.375   2.334   3.635  0.6225 -1.4139  1.8372
   41MOL   H92545805   0.254   2.280   3.751 -1.7692  0.8528  0.6039
   41MOL   H92645806   0.283   2.560   3.645 -1.8197  1.8162  0.1728
   41MOL   H92745807   0.156   2.506   3.769  0.9964  0.1961  2.9598
   41MOL   H92845808   0.439   2.472   3.840 -0.3357 -0.7542 -3.0623
   41MOL   H92945809   0.286   2.450   3.931 -0.6527  1.2543  0.8573
   41MOL   H93045810   0.258   2.694   3.896  0.1546 -0.3687 -0.1910
   41MOL   H93145811   0.397   2.664   3.994 -1.6481  1.9100  0.2829
   41MOL   H93245812   0.432   2.850   3.823  2.6080  0.4412  0.6546
   41MOL   H93345813   0.376   2.736   3.707 -1.4205  1.3015  0.0346
   41MOL   H93445814   0.624   2.634   3.856 -0.4116 -2.3213 -0.6812
   41MOL   H93545815   0.634   2.794   3.828 -1.1266  2.3232 -1.8442
   41MOL   H93645816   0.734   2.669   3.633  0.2280 -2.0229 -1.5020
   41MOL   H93745817   0.570   2.617   3.595 -1.0285  1.0472  0.5265
   41MOL   H93845818   0.640   2.800   3.451  1.1589 -0.8275  1.4882
   41MOL   H93945819   0.528   2.869   3.551 -0.2089 -0.1167 -2.7993
   41MOL   H94045820   0.594   3.090   3.565  0.2604  1.9581 -0.7442
   41MOL   H94145821   0.833   3.217   3.629 -0.6190 -1.2376 -0.3648
   41MOL   H94245822   0.798   3.119   3.767  2.3255 -0.5620 -1.2698
   41MOL   H94345823   0.570   3.270   3.777 -1.2452  1.3248 -2.7979
   41MOL   H94445824   0.717   3.345   3.813 -1.2651  0.4885  1.2854
   41MOL   H94545825   0.725   3.419   3.558  0.0076  0.6303  0.0820
   41MOL   H94645826   0.570   3.332   3.547 -0.8831 -0.0925 -0.0601
   41MOL   H94745827   0.582   3.576   3.706  0.0452 -0.4791  0.0334
   41MOL   H94845828   0.465   3.453   3.724  0.5078 -1.2305  0.7675
   41MOL   H94945829   0.548   3.568   3.457 -0.1800  1.4122 -1.4827
   41MOL   H95045830   0.400   3.488   3.485  0.9535  0.2288 -1.5701
   41MOL   H95145831   0.370   3.746   3.481 -1.1681  0.6777  0.9081
   41MOL   H95245832   0.500   3.765   3.585 -0.0619 -0.0311  0.1011
   41MOL   H95345833   0.363   3.653   3.768 -1.3952 -2.3534 -0.2412
   41MOL   C95445834   0.189   3.674   3.668  1.0653 -0.1483  0.1564
   41MOL   O95545835   0.129   3.691   3.562  0.1139 -0.1591  0.4360
   41MOL   C95645836   0.112   3.640   3.801  0.0248 -0.4049 -0.2233
   41MOL   C95745837   0.114   3.749   3.908  0.0547  0.4146 -0.3767
   41MOL   C95845838   0.050   3.883   3.864  0.3480  0.5533 -0.0744
   41MOL   C95945839   0.068   4.008   3.947  0.3077  0.1184  0.2659
   41MOL   C96045840   0.037   4.134   3.869 -0.1474  0.1375  0.0469
   41MOL   C96145841   0.059   4.254   3.952  0.4851 -0.8409  0.3706
   41MOL   C96245842   0.065   4.384   3.875  0.2987 -0.0964 -0.0961
   41MOL   C96345843   7.628   4.440   3.818  0.1795  0.1325  0.0235
   41MOL   C96445844   7.657   4.573   3.732 -1.1681 -0.0841  0.1534
   41MOL   C96545845   7.662   4.537   3.582 -0.3203  0.0678  0.5112
   41MOL   C96645846   0.098   4.462   3.532 -0.0790 -0.3837  0.0313
   41MOL   O96745847   0.206   4.516   3.518  0.2268 -0.1662  0.4847
   41MOL   N96845848   0.079   4.336   3.505 -0.1318  0.3845  0.0601
   41MOL   C96945849   0.181   4.249   3.445  0.0409  0.1758  0.0072
   41MOL   C97045850   0.165   4.111   3.499  0.7090  0.4742  0.2738
   41MOL   C97145851   0.034   4.035   3.443 -0.4383  0.2798 -0.0817
   41MOL   C97245852   7.609   4.036   3.545 -0.7031 -0.6546 -0.7338
   41MOL   C97345853   7.483   3.962   3.509  1.3423  0.5882  0.4936
   41MOL   C97445854   7.490   3.810   3.504 -0.2206 -0.7206 -0.7609
   41MOL   N97545855   7.566   3.742   3.398 -0.1228  0.1524 -0.0279
   41MOL   H97645856   0.011   3.624   3.764 -1.3756 -1.4375  3.7686
   41MOL   H97745857   0.140   3.543   3.842  2.2914 -0.6192 -2.1664
   41MOL   H97845858   0.216   3.758   3.946 -0.8839 -0.0122  2.2945
   41MOL   H97945859   0.061   3.707   3.993 -1.7469 -0.0939 -1.7111
   41MOL   H98045860   0.083   3.881   3.760  1.6520 -1.1838  0.3476
   41MOL   H98145861   7.636   3.857   3.857  0.3804  0.3750  0.0943
   41MOL   H98245862   7.691   4.008   4.031 -0.9177  0.4780 -0.7290
   41MOL   H98345863   0.165   4.006   3.997 -0.0246 -1.5464  0.8919
   41MOL   H98445864   0.103   4.129   3.783 -1.6638  1.9683 -1.2682
   41MOL   H98545865   7.629   4.146   3.827 -1.0139 -0.3850  1.9274
   41MOL   H98645866   7.673   4.257   4.029  0.9926  2.5499  0.8164
   41MOL   H98745867   0.156   4.238   4.000  0.6490  1.1530  0.7521
   41MOL   H98845868   0.119   4.453   3.939  0.6390 -1.8206  1.5104
   41MOL   H98945869   0.135   4.368   3.793  0.1711  1.5212 -0.5269
   41MOL   H99045870   7.573   4.364   3.761  0.9079 -0.9125  0.6978
   41MOL   H99145871   7.554   4.465   3.894 -0.8576 -0.8461 -0.6439
   41MOL   H99245872   0.050   4.630   3.771 -0.2377 -2.4989  1.8285
   41MOL   H99345873   7.563   4.627   3.733  1.0764  3.9894  1.3091
   41MOL   H99445874   7.577   4.469   3.575  1.2915 -2.1064  1.4706
   41MOL   H99545875   7.652   4.633   3.530  2.9655 -0.6858 -1.6697
   41MOL   H99645876   7.687   4.287   3.530 -0.2507  1.0747  1.0189
   41MOL   H99745877   0.282   4.273   3.475 -0.4493  1.1453  0.9028
   41MOL   H99845878   0.171   4.255   3.336 -1.2480  0.6536  0.1430
   41MOL   H99945879   0.200   4.102   3.602  1.8460  2.1922  0.0461
   41MOL     H145880   0.253   4.060   3.459 -0.9888 -2.4093  0.0644
   41MOL     H245881   0.061   3.930   3.433  0.0432  0.2659  1.3024
   41MOL     H345882   0.004   4.062   3.342 -3.1617  0.7168  0.8024
   41MOL     H445883   7.647   4.009   3.644  0.4715 -0.7405 -1.2000
   41MOL     H545884   7.580   4.140   3.560  1.1970 -0.0977 -0.8220
   41MOL     H645885   7.439   3.985   3.412  1.5032 -1.9893 -0.2334
   41MOL     H745886   7.413   3.980   3.591  1.6456  2.9850  0.2635
   41MOL     H845887   7.534   3.783   3.600 -1.4633  0.2957  0.1173
   41MOL     H945888   7.395   3.755   3.506 -1.2805  1.1024 -0.0689
   41MOL    H1045889   7.654   3.701   3.423 -0.9324 -0.6507  1.6413
   41MOL    C1145890   7.530   3.732   3.271  0.6293  0.2619 -0.0294
   41MOL    O1245891   7.430   3.787   3.230 -0.1583  0.1767  0.0546
   41MOL    C1345892   7.613   3.631   3.184 -0.1804 -0.3074 -0.8916
   41MOL    C1445893   7.647   3.677   3.041 -0.6056  0.4144  0.7998
   41MOL    C1545894   0.014   3.821   3.029  0.2891 -0.2237 -0.1427
   41MOL    C1645895   0.124   3.856   3.130  0.4282  0.3573 -0.3194
   41MOL    C1745896   0.256   3.790   3.114 -0.1897 -0.0513  0.5637
   41MOL    C1845897   0.374   3.847   3.198  0.3997 -0.4785 -0.2392
   41MOL    C1945898   0.506   3.769   3.184  0.2927  0.2638  0.3966
   41MOL    C2045899   0.583   3.808   3.062  0.2082  0.1313  0.3646
   41MOL    C2145900   0.716   3.726   3.046  0.1451 -0.3484 -0.5778
   41MOL    C2245901   0.778   3.736   2.905 -0.0300  0.6930  0.3746
   41MOL    C2345902   0.825   3.881   2.870  1.1562 -0.2639  0.1461
   41MOL    O2445903   0.918   3.927   2.934  0.1512 -0.7122  0.4002
   41MOL    N2545904   0.760   3.941   2.770 -0.0586  0.0864  0.1077
   41MOL    C2645905   0.796   4.065   2.708 -0.5081  0.1054 -0.4667
   41MOL    C2745906   0.709   4.082   2.584 -0.6361  0.9220  0.2239
   41MOL    C2845907   0.742   4.208   2.503 -0.3262  0.6723  0.4833
   41MOL    C2945908   0.669   4.220   2.369  0.3004  0.2761  0.0456
   41MOL    C3045909   0.517   4.268   2.373  0.7418  0.4228  0.0670
   41MOL    C3145910   0.465   4.290   2.230 -0.5782 -0.3961 -0.0847
   41MOL    N3245911   0.332   4.355   2.249 -0.5620  0.4441  0.7430
   41MOL    H3345912   7.560   3.537   3.191 -0.9221  0.1785  0.2892
   41MOL    H3445913   0.019   3.622   3.231 -1.1092  2.4044  1.7461
   41MOL    H3545914   7.558   3.664   2.979 -0.2192  1.4436  0.0140
   41MOL    H3645915   0.010   3.602   2.984 -1.2302 -0.7999  1.7784
   41MOL    H3745916   7.628   3.897   3.036  2.4052  1.8702  1.2797
   41MOL    H3845917   0.053   3.840   2.929  1.0597  0.2459  0.2497
   41MOL    H3945918   0.138   3.964   3.128  0.9309  0.3525  1.7670
   41MOL    H4045919   0.103   3.826   3.233 -2.7976 -1.8181 -1.5200
   41MOL    H4145920   0.249   3.682   3.128  0.4177 -0.0779  0.7117
   41MOL    H4245921   0.291   3.790   3.011  1.5333 -1.5459  1.1243
   41MOL    H4345922   0.378   3.954   3.175 -0.6898 -0.0110  1.6871
   41MOL    H4445923   0.337   3.840   3.300 -1.0157  0.3851 -0.6749
   41MOL    H4545924   0.575   3.786   3.267 -1.4120  1.3648  1.6011
   41MOL    H4645925   0.493   3.661   3.187 -1.2448  0.4095 -0.3680
   41MOL    H4745926   0.521   3.787   2.975  0.6931 -3.3071  0.7984
   41MOL    H4845927   0.602   3.915   3.058  1.1282 -0.0769 -1.5608
   41MOL    H4945928   0.710   3.623   3.080  2.7422 -1.0089 -1.9829
   41MOL    H5045929   0.787   3.778   3.111 -0.2996  0.6152 -0.8612
   41MOL    H5145930   0.863   3.668   2.905 -1.8588 -1.6832  0.4024
   41MOL    H5245931   0.704   3.695   2.836  2.2407 -2.6016 -0.2138
   41MOL    H5345932   0.680   3.889   2.737  0.0985  0.4525 -0.8474
   41MOL    H5445933   0.902   4.064   2.684  0.0081  1.5270  1.5811
   41MOL    H5545934   0.776   4.146   2.779 -2.6611 -0.1426 -0.7459
   41MOL    H5645935   0.605   4.083   2.617 -0.2153 -1.7300  1.7307
   41MOL    H5745936   0.718   3.998   2.515 -1.5152 -0.2739  1.5462
   41MOL    H5845937   0.848   4.205   2.480 -1.0762  0.9911 -3.3522
   41MOL    H5945938   0.735   4.302   2.558  3.1979  1.1856  0.1827
   41MOL    H6045939   0.672   4.126   2.314  1.9648  1.1224 -1.3842
   41MOL    H6145940   0.726   4.292   2.310 -0.0462 -0.2652 -0.9718
   41MOL    H6245941   0.508   4.360   2.431 -1.2235  0.8531 -0.9131
   41MOL    H6345942   0.449   4.202   2.428  1.9762  0.4958  1.7397
   41MOL    H6445943   0.461   4.200   2.168  2.2231 -0.6092 -0.0101
   41MOL    H6545944   0.524   4.368   2.182 -1.1645 -0.5023 -0.9771
   41MOL    H6645945   0.261   4.308   2.303  0.2645 -0.8553  0.7212
   41MOL    C6745946   0.309   4.485   2.224 -0.2685  0.8198 -0.0907
   41MOL    O6845947   0.399   4.572   2.210 -0.0522 -0.8855 -0.3272
   41MOL    C6945948   0.162   4.532   2.221 -0.3139  0.3581 -0.0738
   41MOL    C7045949   0.132   4.658   2.301 -0.0222 -0.7025 -0.4800
   41MOL    C7145950   0.116   4.788   2.224  0.1110 -0.2819  0.0926
   41MOL    C7245951   0.075   4.902   2.324  0.0100 -0.6213 -0.2909
   41MOL    C7345952   0.031   5.036   2.257  0.1333  0.1634 -0.3379
   41MOL    C7445953   0.125   5.077   2.140  0.0714  0.3162  0.3759
   41MOL    C7545954   0.064   5.207   2.082 -0.1089 -0.3531 -0.0555
   41MOL    C7645955   0.116   5.230   1.946 -0.1337  0.0562 -0.5311
   41MOL    C7745956   0.051   5.351   1.881 -0.3955  1.0088 -0.0066
   41MOL    C7845957   0.057   5.490   1.955 -0.0221  0.2123  0.1186
   41MOL    C7945958   0.198   5.560   1.954 -0.1609  0.0953 -0.5365
   41MOL    O8045959   0.284   5.525   1.878  0.0048  0.2810  0.2426
   41MOL    N8145960   0.206   5.664   2.033 -0.6270 -0.0927 -0.0096
   41MOL    C8245961   0.317   5.747   2.049  0.0009  0.0775 -0.0298
   41MOL    C8345962   0.315   5.801   2.191  0.4350  0.5688  0.3146
   41MOL    C8445963   0.441   5.881   2.220  0.2692  0.9243 -0.2896
   41MOL    C8545964   0.456   5.906   2.376 -1.4153 -0.1794 -0.5914
   41MOL    C8645965   0.555   6.017   2.421  0.0908  0.0680  0.6564
   41MOL    C8745966   0.587   6.006   2.572 -0.1909  0.5626  0.1000
   41MOL    N8845967   0.463   6.042   2.641 -0.7840 -0.0061 -0.1568
   41MOL    H8945968   0.124   4.443   2.270  2.0773  0.1980  1.5753
   41MOL    H9045969   0.122   4.527   2.119 -0.2228  0.7022 -0.1299
   41MOL    H9145970   0.036   4.639   2.348 -1.1992  0.8827 -2.1204
   41MOL    H9245971   0.210   4.679   2.374  1.2441 -0.5010 -1.8531
   41MOL    H9345972   0.207   4.824   2.175  0.0364  0.1434  0.2587
   41MOL    H9445973   0.037   4.769   2.152 -0.9839  0.0697  1.1704
   41MOL    H9545974   7.689   4.871   2.395 -2.2615  0.7481 -2.0965
   41MOL    H9645975   0.161   4.925   2.387  1.1927  0.2270 -2.1666
   41MOL    H9745976   7.621   5.018   2.220  0.9465  2.2007 -3.7672
   41MOL    H9845977   0.013   5.109   2.336  0.1884 -1.1465  0.9067
   41MOL    H9945978   0.226   5.083   2.180 -0.5154 -0.7931  2.0923
   41MOL   H10045979   0.131   5.002   2.062  3.1247 -0.0700  0.9259
   41MOL   H10145980   0.070   5.292   2.150  3.4437 -1.4455  1.1040
   41MOL   H10245981   7.649   5.183   2.075  0.0530 -1.1229  0.1065
   41MOL   H10345982   0.221   5.258   1.944  0.3078 -1.5542 -0.3401
   41MOL   H10445983   0.109   5.144   1.880 -0.9938 -0.1847 -0.1332
   41MOL   H10545984   7.638   5.324   1.869 -0.5468  1.3106  0.6117
   41MOL   H10645985   0.095   5.358   1.781  1.4680 -0.1423  0.7061
   41MOL   H10745986   7.692   5.562   1.897  1.1631  2.6826  1.9098
   41MOL   H10845987   0.009   5.485   2.052 -1.1386 -0.7752 -0.4796
   41MOL   H10945988   0.119   5.682   2.082  1.0119  3.1164  1.8877
   41MOL   H11045989   0.330   5.825   1.973  0.9329 -1.5860 -1.6186
   41MOL   H11145990   0.403   5.682   2.036  1.9503  2.5337  0.0230
   41MOL   H11245991   0.290   5.722   2.263  1.9232  1.0628  1.3915
   41MOL   H11345992   0.227   5.866   2.199  0.3617  0.3141  1.7867
   41MOL   H11445993   0.418   5.976   2.170 -2.0465  0.8597  0.5979
   41MOL   H11545994   0.530   5.841   2.172  0.5908 -2.7949  3.1878
   41MOL   H11645995   0.359   5.932   2.419 -0.5360  1.6587  0.3518
   41MOL   H11745996   0.491   5.812   2.418 -0.2537 -0.0741 -1.3017
   41MOL   H11845997   0.644   6.015   2.358 -0.7334 -1.1753 -0.5130
   41MOL   H11945998   0.521   6.116   2.391 -0.2693 -0.6614 -1.3836
   41MOL   H12045999   0.602   5.903   2.604  0.0132  0.5391 -0.0678
   41MOL   H12146000   0.665   6.076   2.601  0.0791  1.5514 -2.7835
   41MOL   H12246001   0.401   5.965   2.660 -1.6735  0.2592 -1.8344
   41MOL   H12346002   0.489   6.081   2.731 -0.4423  0.0412 -0.2758
   42MOL     C146003   5.384   4.743   5.484 -0.1458 -0.3253 -0.2714
   42MOL     O246004   5.346   4.791   5.375 -0.4740  0.0232  0.0190
   42MOL     C346005   5.377   4.834   5.608 -0.1164 -0.8272  0.1146
   42MOL     C446006   5.319   4.975   5.594  0.5705 -0.0573  0.4656
   42MOL     C546007   5.166   4.979   5.571  0.4208 -0.3881  0.2051
   42MOL     C646008   5.103   5.119   5.578 -0.3113 -0.0127  0.5643
   42MOL     C746009   4.955   5.133   5.547  0.2603 -0.2016  0.6021
   42MOL     C846010   4.900   5.271   5.508 -0.1600 -0.1431 -0.4011
   42MOL     C946011   4.907   5.371   5.617 -0.2683  0.1384 -0.2998
   42MOL    C1046012   4.790   5.362   5.714 -0.7423  0.7067  0.0799
   42MOL    C1146013   4.789   5.467   5.824  0.3064  0.0685 -0.8427
   42MOL    C1246014   4.645   5.483   5.883 -0.0320  0.2028  0.1965
   42MOL    C1346015   4.591   5.362   5.958  0.4668  0.2136  0.5611
   42MOL    O1446016   4.666   5.280   6.017 -0.2908 -0.2140  0.4514
   42MOL    N1546017   4.453   5.349   5.964 -0.1462 -1.2703  0.4311
   42MOL    C1646018   4.393   5.242   6.042  0.6726  0.6029  0.5215
   42MOL    C1746019   4.389   5.269   6.193 -0.2408 -0.1955  0.3527
   42MOL    C1846020   4.352   5.147   6.285 -0.2215 -0.0307 -0.2529
   42MOL    C1946021   4.336   5.159   6.434  0.5986  0.2616 -0.7220
   42MOL    C2046022   4.218   5.250   6.469 -0.9760  0.2093 -0.4999
   42MOL    C2146023   4.224   5.293   6.617 -1.1487  0.7468 -0.0708
   42MOL    N2246024   4.112   5.367   6.665 -0.0469 -0.3842 -0.2696
   42MOL    H2346025   5.485   4.849   5.620 -0.1387 -0.3795 -0.2265
   42MOL    H2446026   5.330   4.777   5.688 -0.0202 -0.5941  0.3373
   42MOL    H2546027   5.369   5.030   5.515 -0.1893  0.4958  0.3615
   42MOL    H2646028   5.343   5.036   5.681  2.5344 -1.8612  1.2452
   42MOL    H2746029   5.108   4.926   5.647  0.5284 -0.4093  0.2721
   42MOL    H2846030   5.153   4.945   5.468 -1.7404  0.2486  0.2477
   42MOL    H2946031   5.119   5.160   5.677 -2.1731  2.2358 -0.0264
   42MOL    H3046032   5.167   5.183   5.517  0.5959  1.5769  3.1521
   42MOL    H3146033   4.887   5.101   5.626  0.0615  0.1387  0.5693
   42MOL    H3246034   4.931   5.069   5.463  0.3063 -2.7451  2.4682
   42MOL    H3346035   4.953   5.307   5.419 -0.5986 -2.3918 -1.5997
   42MOL    H3446036   4.797   5.258   5.475 -0.5403  2.1601 -0.2651
   42MOL    H3546037   5.004   5.354   5.663  0.0395 -2.5588 -1.8623
   42MOL    H3646038   4.895   5.467   5.566 -2.1596 -1.6608 -3.3525
   42MOL    H3746039   4.699   5.373   5.655 -1.8116  2.2400  1.9561
   42MOL    H3846040   4.776   5.260   5.749 -1.1329  0.0542 -1.8850
   42MOL    H3946041   4.803   5.567   5.784  0.2035  0.5453  0.3212
   42MOL    H4046042   4.866   5.456   5.900 -1.0661 -1.3909  0.3715
   42MOL    H4146043   4.649   5.574   5.943  0.3779  0.6106 -0.4414
   42MOL    H4246044   4.571   5.513   5.809  1.4176  0.9636 -0.9544
   42MOL    H4346045   4.395   5.426   5.934  0.4554 -0.5094  1.2262
   42MOL    H4446046   4.458   5.155   6.031  0.8647  0.9394 -1.1755
   42MOL    H4546047   4.292   5.210   6.016  0.4874  1.2360  0.4604
   42MOL    H4646048   4.314   5.347   6.196  2.1798  2.2196  0.6386
   42MOL    H4746049   4.485   5.313   6.224  1.1745 -0.7473 -3.0504
   42MOL    H4846050   4.257   5.109   6.248 -0.4868  0.1098  0.2807
   42MOL    H4946051   4.432   5.074   6.274  1.3096  1.6473 -0.4676
   42MOL    H5046052   4.429   5.188   6.484 -0.3819 -0.4255  1.5672
   42MOL    H5146053   4.327   5.059   6.475  1.6154  0.4639  0.0228
   42MOL    H5246054   4.205   5.341   6.410  0.8180  0.0819 -1.1229
   42MOL    H5346055   4.124   5.199   6.449 -2.3150  2.0159  1.0366
   42MOL    H5446056   4.246   5.212   6.686 -1.6856  1.7854  1.3277
   42MOL    H5546057   4.321   5.341   6.635 -0.4804 -1.1122  1.3767
   42MOL    H5646058   4.026   5.383   6.614 -1.1773 -0.4106  1.5971
   42MOL    H5746059   5.422   4.642   5.496 -0.5673 -0.3926  0.4722
   42MOL    C5846060   4.120   5.433   6.778  0.6174 -0.3168  0.4803
   42MOL    O5946061   4.212   5.433   6.852  0.6653 -0.5090 -0.0025
   42MOL    C6046062   4.001   5.517   6.825 -0.3509 -0.0449  0.1142
   42MOL    C6146063   4.001   5.663   6.770  0.2838  0.3394 -0.1102
   42MOL    C6246064   4.081   5.768   6.858  0.3479 -0.5547 -0.1065
   42MOL    C6346065   4.052   5.908   6.799  0.7994 -1.0987 -0.1088
   42MOL    C6446066   4.146   5.935   6.673 -0.4773  0.1660 -0.6307
   42MOL    C6546067   4.099   6.051   6.582 -0.2843  0.0221 -0.1921
   42MOL    C6646068   4.189   6.041   6.461 -0.4869  0.4366 -0.1249
   42MOL    C6746069   4.154   6.151   6.369 -0.1574  0.4249 -0.0422
   42MOL    C6846070   4.267   6.174   6.261 -0.0032 -0.2692  0.1130
   42MOL    C6946071   4.236   6.247   6.125  0.0736  0.6225 -0.6859
   42MOL    C7046072   4.176   6.149   6.022  0.2445 -0.3757  0.8875
   42MOL    O7146073   4.164   6.025   6.043  0.9315  0.2565  0.2889
   42MOL    N7246074   4.139   6.212   5.906  0.9018  0.2596 -0.5383
   42MOL    C7346075   4.093   6.157   5.779 -0.6561 -0.5273  0.2330
   42MOL    C7446076   3.945   6.102   5.780 -0.2106 -0.9401 -0.7058
   42MOL    C7546077   3.916   5.970   5.853  0.1082 -0.6592 -0.0688
   42MOL    C7646078   3.780   5.907   5.816  0.2194  0.0290 -0.2098
   42MOL    C7746079   3.760   5.769   5.884  0.0025  0.2102 -0.7649
   42MOL    C7846080   3.618   5.728   5.865  0.1484 -0.2739  0.0302
   42MOL    N7946081   3.598   5.594   5.915 -0.0497  0.2896 -0.5836
   42MOL    H8046082   4.000   5.515   6.934  1.8571  2.0327  0.2012
   42MOL    H8146083   3.907   5.467   6.800 -0.1373 -1.2511  1.6260
   42MOL    H8246084   4.040   5.663   6.668  0.7208 -1.5298  0.0348
   42MOL    H8346085   3.899   5.700   6.760  0.8569  2.1124  0.4818
   42MOL    H8446086   4.186   5.740   6.857  0.1403 -1.3805  0.8889
   42MOL    H8546087   4.056   5.762   6.964 -1.2313  1.1458 -0.3599
   42MOL    H8646088   4.081   5.978   6.877 -0.3449  1.2271 -1.7041
   42MOL    H8746089   3.945   5.927   6.787  1.0277 -0.1365 -0.6080
   42MOL    H8846090   4.244   5.962   6.711 -2.0411  2.8822  1.6813
   42MOL    H8946091   4.144   5.841   6.619  0.4375 -0.7689  0.9421
   42MOL    H9046092   4.115   6.141   6.642 -0.2167  1.2349 -2.0105
   42MOL    H9146093   3.996   6.025   6.561 -0.1522 -0.2600 -0.4930
   42MOL    H9246094   4.192   5.940   6.419  3.2766  0.6402 -0.5142
   42MOL    H9346095   4.292   6.053   6.497 -0.8599  2.4667  0.2958
   42MOL    H9446096   4.066   6.121   6.310  1.6592  0.6524 -2.9921
   42MOL    H9546097   4.134   6.239   6.430 -2.4604  0.7259 -1.1584
   42MOL    H9646098   4.336   6.092   6.240 -1.0650 -1.4579  1.1021
   42MOL    H9746099   4.330   6.245   6.315 -0.5004 -0.0664  0.4388
   42MOL    H9846100   4.161   6.324   6.137 -0.0554  0.2617  0.9078
   42MOL    H9946101   4.326   6.293   6.084 -0.4740  0.4107 -2.1530
   42MOL   H10046102   4.140   6.313   5.912  0.3819  0.1595  2.0217
   42MOL   H10146103   4.157   6.076   5.744 -1.7775 -0.2964 -2.4193
   42MOL   H10246104   4.099   6.232   5.701  0.9809  0.5926  1.3869
   42MOL   H10346105   3.879   6.176   5.826 -0.2062 -1.0758 -0.4807
   42MOL   H10446106   3.908   6.101   5.678 -1.2612  1.5509 -0.3733
   42MOL   H10546107   3.926   5.971   5.961 -0.5845  1.0422 -0.0029
   42MOL   H10646108   4.001   5.906   5.829  2.2036  1.9916 -0.1033
   42MOL   H10746109   3.706   5.980   5.847  1.7165  2.4163 -2.0475
   42MOL   H10846110   3.779   5.899   5.707  0.6586  2.3466 -0.4079
   42MOL   H10946111   3.776   5.784   5.991  0.3125  0.2697 -0.8182
   42MOL   H11046112   3.835   5.694   5.860  0.8727  0.3997  1.2306
   42MOL   H11146113   3.599   5.728   5.757 -1.4685 -0.8265  0.2982
   42MOL   H11246114   3.552   5.792   5.924 -0.2702 -0.9705  0.3278
   42MOL   H11346115   3.590   5.523   5.845 -2.4685 -0.8451  0.7827
   42MOL   C11446116   3.569   5.553   6.038  0.2755 -0.0487 -1.1712
   42MOL   O11546117   3.568   5.635   6.127 -0.2754 -0.1140 -0.0502
   42MOL   C11646118   3.529   5.408   6.068  0.3230 -0.4671 -0.0191
   42MOL   C11746119   3.651   5.312   6.091 -0.3013  0.2807  0.2580
   42MOL   C11846120   3.631   5.168   6.137  0.3576 -0.1961  0.4196
   42MOL   C11946121   3.764   5.102   6.175  0.0957 -0.3907  0.3274
   42MOL   C12046122   3.740   4.954   6.190  0.3869 -0.3152  0.5193
   42MOL   C12146123   3.860   4.882   6.246  0.1081  0.1614  1.2525
   42MOL   C12246124   3.840   4.733   6.257  0.0139 -0.5092  0.0697
   42MOL   C12346125   3.968   4.654   6.303  0.7248  0.1968 -0.6731
   42MOL   C12446126   3.946   4.508   6.336 -0.3027  0.0559 -0.1342
   42MOL   C12546127   3.913   4.420   6.211  0.0068 -0.4484  0.4998
   42MOL   C12646128   4.047   4.366   6.142 -0.0935  0.1118  0.3341
   42MOL   O12746129   4.089   4.418   6.039 -0.0417 -0.4119 -0.2573
   42MOL   N12846130   4.102   4.265   6.199 -0.1797  0.7265 -0.6091
   42MOL   C12946131   4.230   4.201   6.153 -0.3828 -0.4092  0.2144
   42MOL   C13046132   4.208   4.097   6.037 -0.4545  0.2174  0.0831
   42MOL   C13146133   4.337   4.042   5.979  0.3519  0.2469 -0.3201
   42MOL   C13246134   4.321   3.951   5.852 -0.5216 -0.1643  0.1622
   42MOL   C13346135   4.461   3.901   5.810 -0.3860 -0.6786 -0.0627
   42MOL   C13446136   4.457   3.818   5.680 -0.4570  0.6663  0.6779
   42MOL   N13546137   4.584   3.756   5.656 -0.1456 -0.2485 -0.0976
   42MOL   H13646138   3.480   5.412   6.165  1.6923 -0.4940  0.6878
   42MOL   H13746139   3.456   5.376   5.993  0.8759  1.2691 -1.3305
   42MOL   H13846140   3.713   5.350   6.172  0.1945  0.3640 -0.1597
   42MOL   H13946141   3.695   5.295   5.993 -1.3814  0.8677 -0.3373
   42MOL   H14046142   3.567   5.176   6.225 -1.3788 -0.4446 -0.7784
   42MOL   H14146143   3.575   5.108   6.064 -1.0403  0.9523  0.5272
   42MOL   H14246144   3.842   5.121   6.102  1.7586 -1.3645  1.7989
   42MOL   H14346145   3.809   5.136   6.269  0.0127  0.5633  0.0351
   42MOL   H14446146   3.652   4.943   6.253  0.8238  0.7957  1.3310
   42MOL   H14546147   3.707   4.907   6.097 -0.3112 -1.9872  1.5815
   42MOL   H14646148   3.881   4.920   6.346  2.3552  3.2536 -0.3149
   42MOL   H14746149   3.940   4.913   6.178  0.9272 -0.2414  2.0314
   42MOL   H14846150   3.752   4.724   6.322 -0.3180 -0.4104 -0.3653
   42MOL   H14946151   3.804   4.684   6.167 -0.7207  1.7700 -0.9188
   42MOL   H15046152   4.010   4.717   6.382 -0.7288  1.4312 -0.8572
   42MOL   H15146153   4.044   4.657   6.225  1.0579  0.0082 -0.3580
   42MOL   H15246154   3.865   4.505   6.409 -0.8986 -2.1009 -0.8378
   42MOL   H15346155   4.034   4.470   6.388 -1.0067 -0.3580  0.7748
   42MOL   H15446156   3.857   4.465   6.130 -0.7767 -2.5529 -0.1665
   42MOL   H15546157   3.851   4.335   6.241 -1.4119  0.5707  0.4942
   42MOL   H15646158   4.053   4.214   6.271  2.0186 -2.7088 -1.3949
   42MOL   H15746159   4.275   4.155   6.241 -2.2240  1.0309  1.9583
   42MOL   H15846160   4.303   4.270   6.111  1.7950 -1.9503  1.3065
   42MOL   H15946161   4.165   4.162   5.961 -1.3290  0.2489  0.6060
   42MOL   H16046162   4.139   4.015   6.057 -0.7888  0.4299 -0.2086
   42MOL   H16146163   4.400   4.129   5.959  0.5412 -0.2105 -1.7259
   42MOL   H16246164   4.377   3.987   6.065  0.3387  0.2769 -0.2950
   42MOL   H16346165   4.251   3.870   5.872  0.9155 -2.0725 -2.2364
   42MOL   H16446166   4.259   3.997   5.775  0.2248 -0.8702 -0.8742
   42MOL   H16546167   4.505   3.844   5.891 -0.4051 -1.2655 -0.4607
   42MOL   H16646168   4.535   3.978   5.790  0.5411 -1.9881 -1.9165
   42MOL   H16746169   4.396   3.729   5.695  0.6402 -0.4805 -1.4550
   42MOL   H16846170   4.426   3.869   5.590 -0.1825 -0.4480 -0.0619
   42MOL   H16946171   4.591   3.655   5.659  0.5702 -0.2241 -0.6339
   42MOL   C17046172   4.687   3.816   5.596 -0.2343 -0.4048 -0.9215
   42MOL   O17146173   4.701   3.938   5.594  0.5470  0.3045  0.5378
   42MOL   C17246174   4.797   3.728   5.539 -0.2776  0.6502  0.0951
   42MOL   C17346175   4.878   3.804   5.431  0.0164  0.1162 -0.2471
   42MOL   C17446176   4.958   3.703   5.351 -0.2827 -0.7422  0.2972
   42MOL   C17546177   5.034   3.761   5.233  0.1907  0.6929  0.8562
   42MOL   C17646178   5.135   3.670   5.164  0.6671 -0.3110  0.3868
   42MOL   C17746179   5.238   3.618   5.262  0.0745  0.1203  0.2763
   42MOL   C17846180   5.366   3.573   5.196  0.4834 -0.7427  0.9407
   42MOL   C17946181   5.490   3.584   5.284  0.5715  0.8823 -0.8189
   42MOL   C18046182   5.622   3.554   5.195 -0.6995 -0.0893  1.2362
   42MOL   C18146183   5.669   3.660   5.101  0.1665 -0.2489  0.5430
   42MOL   C18246184   5.683   3.792   5.178  0.4629 -0.2654 -0.1057
   42MOL   O18346185   5.773   3.805   5.258 -0.0370  0.2403 -0.1023
   42MOL   N18446186   5.593   3.890   5.158  0.0405 -0.2081 -0.1117
   42MOL   C18546187   5.576   4.022   5.230 -0.9796  0.5465 -0.0782
   42MOL   C18646188   5.429   4.045   5.261 -0.6695  0.0914  0.1250
   42MOL   C18746189   5.406   4.192   5.303  0.1403 -0.5112  0.1235
   42MOL   C18846190   5.262   4.210   5.353 -0.4246 -0.5430 -0.2260
   42MOL   C18946191   5.210   4.122   5.472  0.5175  0.4790 -0.2578
   42MOL   C19046192   5.083   4.178   5.532  0.4264  0.7540  0.8631
   42MOL   N19146193   5.037   4.088   5.635  0.6689 -0.1165 -0.1510
   42MOL   H19246194   4.862   3.701   5.621  0.3196  0.4803 -0.4308
   42MOL   H19346195   4.754   3.631   5.513  0.0507  0.7043 -0.6661
   42MOL   H19446196   4.943   3.885   5.466 -1.7967  1.2125  0.6231
   42MOL   H19546197   4.806   3.862   5.373 -1.0741  0.0707  1.0487
   42MOL   H19646198   4.901   3.611   5.337  0.9311 -1.8089  2.1591
   42MOL   H19746199   5.032   3.661   5.420  1.7826 -0.6106 -1.7907
   42MOL   H19846200   4.961   3.792   5.158  0.0786  3.0850  1.9212
   42MOL   H19946201   5.088   3.849   5.268 -1.0110  1.7057  0.2190
   42MOL   H20046202   5.080   3.594   5.108  0.7860 -1.7351  2.1679
   42MOL   H20146203   5.193   3.721   5.087 -0.6264 -0.2213 -0.5611
   42MOL   H20246204   5.194   3.539   5.323  0.2315 -0.5928 -0.5261
   42MOL   H20346205   5.262   3.694   5.337  0.0254  0.1851  0.2267
   42MOL   H20446206   5.351   3.479   5.142 -0.5858 -0.6219  1.0166
   42MOL   H20546207   5.383   3.636   5.110 -0.4140 -1.1551  0.4537
   42MOL   H20646208   5.500   3.672   5.347  1.3224 -0.5618  1.1297
   42MOL   H20746209   5.490   3.505   5.359  0.2101  1.1205 -0.5676
   42MOL   H20846210   5.593   3.474   5.127 -0.6589  1.1921 -0.3123
   42MOL   H20946211   5.696   3.513   5.264 -1.4882 -0.0556  2.1193
   42MOL   H21046212   5.764   3.621   5.063  0.2082 -1.0839  1.4842
   42MOL   H21146213   5.602   3.677   5.016  0.8163  1.9802  0.4441
   42MOL   H21246214   5.515   3.881   5.095 -0.9079  1.6091  0.7416
   42MOL   H21346215   5.640   4.099   5.186  1.9957 -1.8248 -0.0346
   42MOL   H21446216   5.623   4.006   5.327  1.8326  1.2271 -1.2672
   42MOL   H21546217   5.355   4.016   5.187  0.4458 -0.4536 -0.7856
   42MOL   H21646218   5.412   3.994   5.356 -0.8832 -0.7904 -0.3859
   42MOL   H21746219   5.478   4.222   5.379 -1.0417 -1.5705  1.6828
   42MOL   H21846220   5.407   4.254   5.213  0.9266 -1.8597 -0.8215
   42MOL   H21946221   5.190   4.207   5.272  0.4410 -0.3105 -1.0106
   42MOL   H22046222   5.270   4.316   5.379  1.8778 -0.3286 -1.6467
   42MOL   H22146223   5.278   4.128   5.557  0.1395 -2.0728  0.2748
   42MOL   H22246224   5.187   4.019   5.445  0.2825  0.3846  0.2969
   42MOL   H22346225   5.007   4.193   5.456  0.3767  2.1589  1.1779
   42MOL   H22446226   5.106   4.281   5.562  0.3187  1.9717 -2.9704
   42MOL   H22546227   4.984   4.007   5.605 -0.1519  0.4384 -0.2316
   42MOL   C22646228   5.025   4.114   5.765 -0.7908 -0.4035 -0.2525
   42MOL   O22746229   5.076   4.218   5.809 -0.0912 -0.0133 -0.1759
   42MOL   C22846230   4.959   4.012   5.854  0.3943  0.1373  0.1701
   42MOL   C22946231   4.843   4.072   5.932  0.1224 -0.0596  0.2071
   42MOL   C23046232   4.762   3.985   6.018  0.4411 -0.5305 -0.6618
   42MOL   C23146233   4.666   4.069   6.104 -0.3762 -0.6328  0.2522
   42MOL   C23246234   4.716   4.184   6.193 -0.1327  0.6092 -0.1679
   42MOL   C23346235   4.599   4.259   6.253  0.3104 -1.2190 -0.0160
   42MOL   C23446236   4.661   4.373   6.341  0.7813  0.4967 -0.4618
   42MOL   C23546237   4.736   4.305   6.461  0.8851  0.0379 -0.0218
   42MOL   C23646238   4.767   4.397   6.577 -0.3059  0.5143 -0.6601
   42MOL   C23746239   4.795   4.310   6.708 -0.7733 -0.6761  0.0739
   42MOL   C23846240   4.922   4.224   6.699 -0.2649 -0.0170  0.0812
   42MOL   O23946241   5.030   4.277   6.682  0.4669  0.5378 -0.3485
   42MOL   N24046242   4.903   4.094   6.707 -0.4635  0.2776 -0.4927
   42MOL   C24146243   5.014   4.002   6.685 -0.2359  0.7485 -1.3078
   42MOL   C24246244   4.981   3.863   6.738 -0.9050 -0.2277  0.2916
   42MOL   C24346245   5.090   3.754   6.725 -0.3479  0.1898  0.1561
   42MOL   C24446246   5.051   3.617   6.777 -0.7731 -0.1687  0.3872
   42MOL   C24546247   5.060   3.609   6.926 -0.9670 -0.3264  0.8488
   42MOL   C24646248   5.005   3.474   6.980 -0.2703 -0.0619 -0.5247
   42MOL   N24746249   5.040   3.476   7.120 -0.0593  0.2155 -0.2688
   42MOL   H24846250   5.033   3.950   5.904  3.3095  1.8146 -1.8763
   42MOL   H24946251   4.906   3.952   5.780 -0.9039  2.1142 -0.5589
   42MOL   H25046252   4.880   4.156   5.992  5.0777 -0.3028 -2.2735
   42MOL   H25146253   4.784   4.127   5.859 -0.2880  1.3500  1.5667
   42MOL   H25246254   4.713   3.904   5.965 -1.3461 -0.2737  0.5377
   42MOL   H25346255   4.836   3.937   6.082 -0.1840  1.4157  1.6048
   42MOL   H25446256   4.601   3.998   6.156 -1.2340 -1.2013 -1.5302
   42MOL   H25546257   4.615   4.121   6.024  1.5112 -0.2615 -0.7395
   42MOL   H25646258   4.780   4.253   6.138 -1.4753  0.5379 -1.8578
   42MOL   H25746259   4.767   4.132   6.275 -2.7403 -1.5391  0.1333
   42MOL   H25846260   4.551   4.293   6.162 -1.6614 -1.2399  0.9947
   42MOL   H25946261   4.529   4.194   6.306 -0.2974 -0.6960 -0.1697
   42MOL   H26046262   4.575   4.436   6.366  1.9986  1.6685  0.8631
   42MOL   H26146263   4.729   4.431   6.279  1.3716 -0.0056 -0.2884
   42MOL   H26246264   4.672   4.224   6.496 -0.0338  0.0881 -1.5495
   42MOL   H26346265   4.835   4.283   6.422  1.7027  3.3011  0.0051
   42MOL   H26446266   4.851   4.454   6.538  1.6401 -2.1553 -0.5704
   42MOL   H26546267   4.683   4.461   6.603 -0.8792 -0.4209 -0.1649
   42MOL   H26646268   4.806   4.377   6.793 -0.5001  0.4253 -0.8292
   42MOL   H26746269   4.714   4.245   6.741 -2.0722  2.1572  2.7011
   42MOL   H26846270   4.809   4.063   6.728  0.5092 -2.0464  0.6340
   42MOL   H26946271   5.102   4.034   6.742  0.3369  1.1984 -2.4237
   42MOL   H27046272   5.029   3.995   6.577  0.6259 -2.7509 -1.0182
   42MOL   H27146273   4.892   3.822   6.689 -0.1511 -0.4459 -0.8902
   42MOL   H27246274   4.941   3.870   6.839 -0.0446  1.3544  0.5315
   42MOL   H27346275   5.120   3.751   6.620 -0.4356  0.6592  0.1164
   42MOL   H27446276   5.181   3.795   6.771 -1.7106  2.2878  1.0566
   42MOL   H27546277   5.120   3.547   6.731 -0.5517  0.7329 -0.6581
   42MOL   H27646278   4.948   3.597   6.748 -0.4067  2.0336 -2.5815
   42MOL   H27746279   5.008   3.687   6.981  2.3738  0.8070  2.5660
   42MOL   H27846280   5.166   3.617   6.949 -0.8884 -1.4245  0.8960
   42MOL   H27946281   5.061   3.391   6.937  0.1615  0.0427 -0.1560
   42MOL   H28046282   4.903   3.445   6.954  0.0108 -2.4464  0.8482
   42MOL   H28146283   5.104   3.548   7.149 -0.5334  0.6243 -0.2409
   42MOL   C28246284   5.006   3.380   7.204  0.4129  0.0808 -0.0972
   42MOL   O28346285   4.924   3.291   7.172  0.0687  0.2901  0.7930
   42MOL   C28446286   5.060   3.376   7.351  0.7064  0.4622 -0.7825
   42MOL   C28546287   5.149   3.251   7.377  0.0591  0.0512 -0.4055
   42MOL   C28646288   5.270   3.245   7.281 -0.5320  0.2340 -0.7681
   42MOL   C28746289   5.383   3.344   7.310 -0.6749  0.0114  0.4482
   42MOL   C28846290   5.493   3.336   7.201  0.0107 -0.2761  0.2969
   42MOL   C28946291   5.462   3.410   7.066 -0.2576  0.0383 -0.2155
   42MOL   C29046292   5.542   3.351   6.957 -0.1989 -0.2495  0.6592
   42MOL   C29146293   5.508   3.395   6.815  0.0423  0.2237  0.1299
   42MOL   C29246294   5.382   3.335   6.749 -0.1614 -0.2144 -0.2688
   42MOL   C29346295   5.360   3.388   6.607  0.7522 -0.4419 -0.8855
   42MOL   C29446296   5.247   3.306   6.536 -0.2299 -0.2422 -0.6268
   42MOL   O29546297   5.180   3.225   6.595  0.3140  0.5362  0.0760
   42MOL   N29646298   5.236   3.342   6.405  0.1336 -0.1751  0.3087
   42MOL   C29746299   5.126   3.314   6.317  0.0055  0.6405 -1.1701
   42MOL   C29846300   5.164   3.347   6.180  0.6712 -0.3800  0.2360
   42MOL   C29946301   5.038   3.366   6.094 -0.7164 -0.2287  0.1451
   42MOL   C30046302   5.068   3.361   5.948  0.1733 -0.6392  0.2197
   42MOL   C30146303   5.134   3.496   5.899 -0.1352 -0.1004 -0.1512
   42MOL   C30246304   5.117   3.501   5.743  0.3005 -0.1008 -0.1604
   42MOL   N30346305   5.218   3.583   5.685 -0.2507  0.1855 -0.1624
   42MOL   H30446306   5.121   3.464   7.369 -1.9288  1.6498  3.0538
   42MOL   H30546307   4.981   3.385   7.426  1.2358  0.7407 -0.2555
   42MOL   H30646308   5.088   3.163   7.355  0.5438 -0.2691 -0.4993
   42MOL   H30746309   5.184   3.228   7.478  0.3720 -0.8334 -0.7096
   42MOL   H30846310   5.302   3.141   7.279 -0.8923  0.1318 -2.2010
   42MOL   H30946311   5.228   3.252   7.181 -5.1125  0.3460  1.0391
   42MOL   H31046312   5.427   3.319   7.406 -0.6597  1.7408  0.8888
   42MOL   H31146313   5.344   3.445   7.321 -1.4035 -0.2652  0.5083
   42MOL   H31246314   5.593   3.356   7.239 -0.2089 -1.3407  1.4592
   42MOL   H31346315   5.502   3.229   7.180  0.7937 -0.5986  2.2027
   42MOL   H31446316   5.358   3.406   7.036 -0.5678  1.9301  0.4705
   42MOL   H31546317   5.483   3.517   7.079  2.3363 -0.3069 -1.1773
   42MOL   H31646318   5.530   3.242   6.955 -0.8938 -0.1972 -3.9147
   42MOL   H31746319   5.648   3.372   6.966 -0.3947  2.0333 -1.8388
   42MOL   H31846320   5.583   3.374   6.738 -0.7458 -2.2135 -0.0020
   42MOL   H31946321   5.514   3.504   6.808  1.0470  0.1440 -0.3961
   42MOL   H32046322   5.395   3.227   6.742 -1.7736 -0.4021 -0.6721
   42MOL   H32146323   5.289   3.358   6.801 -0.8532 -0.7618 -1.2518
   42MOL   H32246324   5.324   3.489   6.622 -0.7424 -1.3668  2.0886
   42MOL   H32346325   5.453   3.386   6.550  1.6590 -2.6417  0.5884
   42MOL   H32446326   5.280   3.430   6.380 -0.4070  0.0302  0.0767
   42MOL   H32546327   5.038   3.365   6.357 -1.6977 -2.2235 -1.1665
   42MOL   H32646328   5.096   3.210   6.328  2.6983  0.0223  0.9436
   42MOL   H32746329   5.215   3.265   6.129  0.2825 -0.7164  0.3786
   42MOL   H32846330   5.235   3.426   6.158  0.4246 -0.1244  0.3649
   42MOL   H32946331   4.992   3.461   6.118 -0.6706 -0.4252  1.0354
   42MOL   H33046332   4.973   3.283   6.124 -0.8507  0.3386  1.4595
   42MOL   H33146333   5.122   3.269   5.925 -3.1748 -3.4604  3.0970
   42MOL   H33246334   4.970   3.347   5.901  0.3106  1.5695 -0.7707
   42MOL   H33346335   5.234   3.506   5.942 -0.3067 -1.2083  0.5099
   42MOL   H33446336   5.081   3.585   5.933  0.9487  0.6395 -0.3591
   42MOL   H33546337   5.126   3.405   5.692  0.7069 -0.7558  1.1261
   42MOL   H33646338   5.020   3.531   5.702  0.2609 -1.2951 -0.9522
   42MOL   H33746339   5.301   3.526   5.692 -0.0014  0.7249  1.6220
   42MOL   C33846340   5.220   3.717   5.674 -0.8106  0.2878  0.4584
   42MOL   O33946341   5.126   3.788   5.697  0.1212  0.1992  0.6306
   42MOL   C34046342   5.361   3.772   5.642  0.0471 -0.4713  0.6270
   42MOL   C34146343   5.404   3.882   5.739  0.0715 -0.2429  0.6616
   42MOL   C34246344   5.419   3.844   5.887 -0.3633 -0.3773  0.5453
   42MOL   C34346345   5.530   3.737   5.912  0.1294  0.3073  0.6915
   42MOL   C34446346   5.515   3.641   6.036  0.1647  0.2083 -0.4535
   42MOL   C34546347   5.640   3.549   6.041  0.2856 -0.2573 -0.6210
   42MOL   C34646348   5.652   3.471   6.174 -0.0605  0.7159 -0.1177
   42MOL   C34746349   5.777   3.376   6.181  0.0810  1.0071  0.2307
   42MOL   C34846350   5.918   3.435   6.188  0.1267 -0.3224  0.8116
   42MOL   C34946351   6.029   3.331   6.194  0.4618 -0.0935  0.3097
   42MOL   C35046352   6.014   3.249   6.327  0.0742 -0.0497  0.2379
   42MOL   O35146353   5.962   3.142   6.333 -0.9109  0.2085 -0.2665
   42MOL   N35246354   6.078   3.306   6.429  0.2423  0.1539  0.0784
   42MOL   C35346355   6.111   3.239   6.548  0.1793 -0.4377 -0.0016
   42MOL   C35446356   5.994   3.260   6.648  0.7494 -0.2202  0.4738
   42MOL   C35546357   6.025   3.180   6.777 -0.0850 -0.6618 -0.2593
   42MOL   C35646358   5.909   3.201   6.874 -0.1107  1.0028 -0.2674
   42MOL   C35746359   5.934   3.126   7.004 -0.1337 -0.1825  0.1794
   42MOL   C35846360   5.824   3.160   7.113 -0.2125 -0.0864 -0.3098
   42MOL   N35946361   5.822   3.059   7.222 -0.3851  0.4367  0.0886
   42MOL   H36046362   5.353   3.815   5.543 -2.5047 -0.3986  0.8556
   42MOL   H36146363   5.434   3.693   5.619  0.5633 -0.1524  1.1371
   42MOL   H36246364   5.497   3.916   5.693 -1.4292  1.1077 -1.4317
   42MOL   H36346365   5.320   3.951   5.734 -0.6601 -0.8171  3.6506
   42MOL   H36446366   5.319   3.816   5.920 -0.3216 -2.7479 -1.1573
   42MOL   H36546367   5.446   3.929   5.948 -1.3836  0.1372  0.2905
   42MOL   H36646368   5.531   3.671   5.825 -1.1876  0.6739  0.3866
   42MOL   H36746369   5.625   3.788   5.928 -0.1340  2.0935 -2.9059
   42MOL   H36846370   5.519   3.696   6.130  1.6400  0.4122 -0.6316
   42MOL   H36946371   5.425   3.580   6.032 -0.7436  1.3976  1.3154
   42MOL   H37046372   5.634   3.474   5.962 -1.0911 -0.7715 -0.0476
   42MOL   H37146373   5.735   3.599   6.023  0.4474  0.0679  1.1161
   42MOL   H37246374   5.640   3.536   6.260 -0.0399 -1.7736  1.8285
   42MOL   H37346375   5.571   3.399   6.186  1.4906 -1.1809 -0.6503
   42MOL   H37446376   5.769   3.312   6.269  2.3316 -1.0432 -0.9905
   42MOL   H37546377   5.777   3.308   6.096  0.5286  2.0554 -0.6240
   42MOL   H37646378   5.917   3.506   6.271  0.1397  1.2159 -0.4816
   42MOL   H37746379   5.934   3.495   6.098 -0.4200  2.7000  2.6685
   42MOL   H37846380   6.020   3.274   6.102  0.8603  0.3060  0.0183
   42MOL   H37946381   6.122   3.387   6.185 -1.3696  2.8353 -1.3074
   42MOL   H38046382   6.130   3.389   6.404 -0.1822 -0.1075 -1.7087
   42MOL   H38146383   6.195   3.283   6.603 -0.7882  1.3531  0.0652
   42MOL   H38246384   6.139   3.136   6.522 -1.1860 -0.3010 -2.1164
   42MOL   H38346385   5.895   3.234   6.609  0.3279  1.2974  0.4871
   42MOL   H38446386   5.983   3.367   6.664 -1.3037 -0.3106 -0.1099
   42MOL   H38546387   6.046   3.074   6.760 -1.1122 -1.0127  0.6042
   42MOL   H38646388   6.109   3.234   6.822  0.0661 -0.8384 -0.3264
   42MOL   H38746389   5.890   3.305   6.900 -1.4439  0.8056 -0.4403
   42MOL   H38846390   5.821   3.155   6.830  0.3732 -0.3060  0.1100
   42MOL   H38946391   6.030   3.140   7.053 -0.2137 -1.7760  0.8079
   42MOL   H39046392   5.940   3.026   6.963 -0.3100  0.0148 -0.3283
   42MOL   H39146393   5.828   3.261   7.154  2.2103 -1.2847  2.6243
   42MOL   H39246394   5.727   3.143   7.066 -0.4937 -0.9020  0.5369
   42MOL   H39346395   5.857   2.972   7.186 -1.5746 -0.1055  0.2168
   42MOL   C39446396   5.770   3.067   7.339  0.5478  0.4358 -0.5063
   42MOL   O39546397   5.740   3.170   7.394 -0.1901 -0.5263 -0.1145
   42MOL   C39646398   5.743   2.933   7.413  0.3669  0.0691 -0.2856
   42MOL   C39746399   5.598   2.894   7.460 -0.3913 -0.0018  0.2068
   42MOL   C39846400   5.524   3.003   7.542 -0.1214 -0.1882  0.7249
   42MOL   C39946401   5.391   2.950   7.584  0.0909  0.5067  0.4326
   42MOL   C40046402   5.324   3.033   0.003  0.2976  0.6384 -0.0961
   42MOL   C40146403   5.192   2.983   0.053  0.1346  0.1910  0.7540
   42MOL   C40246404   5.099   2.939   7.625 -0.0509 -0.7847  0.4213
   42MOL   C40346405   4.954   2.914   7.667 -1.0201 -0.4057  0.2057
   42MOL   C40446406   4.863   3.040   7.659  0.2419 -0.4493  0.5317
   42MOL   C40546407   4.793   3.063   7.527  0.2237 -0.1294  0.6082
   42MOL   C40646408   4.680   3.173   7.546  0.1717  0.2715 -0.2650
   42MOL   O40746409   4.563   3.145   7.578 -0.4188 -0.4616  1.0396
   42MOL   N40846410   4.714   3.295   7.511  0.2733  0.9208 -0.1439
   42MOL   C40946411   4.632   3.414   7.495 -0.7033  0.1248  0.2610
   42MOL   C41046412   4.684   3.509   7.384  0.4720  0.2606  0.4809
   42MOL   C41146413   4.589   3.612   7.338 -0.2761  0.0485 -0.4126
   42MOL   C41246414   4.643   3.716   7.244 -0.5217 -0.3293  0.6411
   42MOL   C41346415   4.682   3.657   7.104  0.4636 -0.3698 -0.2199
   42MOL   C41446416   4.705   3.773   7.008 -0.5458 -0.8890  0.2203
   42MOL   N41546417   4.584   3.842   6.979 -0.2789 -0.2117  0.1633
   42MOL   H41646418   5.797   2.934   7.508  1.0519 -3.5907 -0.5807
   42MOL   H41746419   5.780   2.852   7.351  1.5202  0.1388  0.3011
   42MOL   H41846420   5.615   2.810   7.527 -1.1751 -0.7098 -0.4634
   42MOL   H41946421   5.539   2.856   7.376 -0.3074 -0.5590  0.3988
   42MOL   H42046422   5.507   3.089   7.477 -1.0999 -0.9789 -0.0767
   42MOL   H42146423   5.584   3.038   7.626 -2.3688 -0.2414  2.4092
   42MOL   H42246424   5.411   2.853   7.630  1.8020  1.2052  1.1878
   42MOL   H42346425   5.320   2.933   7.503  0.3696 -0.7260  0.4368
   42MOL   H42446426   5.393   3.028   0.087  0.6004 -0.3319 -0.4082
   42MOL   H42546427   5.316   3.137   7.661 -2.2263  0.3969 -0.3430
   42MOL   H42646428   5.211   2.902   0.124  0.7106  0.3792  0.8180
   42MOL   H42746429   5.141   3.068   0.098 -0.9524  0.8646 -1.6704
   42MOL   H42846430   5.097   3.009   7.541 -2.8553 -2.0932 -0.6437
   42MOL   H42946431   5.134   2.844   7.586 -2.2702 -1.0391 -1.0120
   42MOL   H43046432   4.915   2.832   7.607  1.9268 -1.7967  0.1042
   42MOL   H43146433   4.954   2.875   0.077  1.1727 -1.7966 -0.2787
   42MOL   H43246434   4.926   3.127   7.674 -0.1522  0.3211 -2.0960
   42MOL   H43346435   4.790   3.034   0.049 -1.7746  3.4144 -0.8433
   42MOL   H43446436   4.856   3.095   7.444 -0.7258  0.5996  0.1641
   42MOL   H43546437   4.743   2.970   7.497 -2.0225  1.0243  0.6587
   42MOL   H43646438   4.813   3.310   7.501  0.0031  2.8646 -0.1196
   42MOL   H43746439   4.629   3.475   7.585 -1.6229 -1.1546  1.1182
   42MOL   H43846440   4.531   3.378   7.475 -0.2745 -0.5236 -0.8132
   42MOL   H43946441   4.711   3.447   7.298  2.1692  1.0355  0.4367
   42MOL   H44046442   4.772   3.563   7.418  0.1416  1.4639 -0.5356
   42MOL   H44146443   4.497   3.561   7.308 -0.5254 -0.5524  1.2712
   42MOL   H44246444   4.555   3.663   7.428  0.1816 -0.5649  0.1155
   42MOL   H44346445   4.575   3.801   7.240 -1.1764 -0.6501  3.8099
   42MOL   H44446446   4.739   3.756   7.278 -2.6343  3.6909  2.1939
   42MOL   H44546447   4.780   3.615   7.127 -0.7348 -2.1371  1.8375
   42MOL   H44646448   4.610   3.581   7.073 -0.0607 -0.5170  1.2879
   42MOL   H44746449   4.777   3.837   7.059  0.6861 -1.1836 -1.1137
   42MOL   H44846450   4.749   3.733   6.916 -2.3752 -4.6422  0.8567
   42MOL   H44946451   4.490   3.805   6.985 -1.1677  1.7526 -1.1097
   42MOL   C45046452   4.585   3.962   6.914  0.3394  0.0949 -0.1132
   42MOL   O45146453   4.691   4.003   6.865 -0.1950 -0.6978 -0.1970
   42MOL   C45246454   4.461   4.058   6.922 -0.2811  0.4908  0.1453
   42MOL   C45346455   4.428   4.108   6.783 -0.7613 -0.1576 -0.5673
   42MOL   C45446456   4.315   4.214   6.789  0.0084  0.5121 -0.0739
   42MOL   C45546457   4.290   4.295   6.660 -0.2895  0.0704  0.5088
   42MOL   C45646458   4.188   4.407   6.657  0.0331 -0.0367  0.0089
   42MOL   C45746459   4.040   4.373   6.688 -0.6297  0.1950  0.5821
   42MOL   C45846460   3.972   4.255   6.612 -0.4786  0.4592 -0.1831
   42MOL   C45946461   3.819   4.246   6.624 -0.8555  0.4551  0.6073
   42MOL   C46046462   3.750   4.144   6.530  0.1454 -0.0510 -0.3021
   42MOL   C46146463   3.602   4.161   6.501 -0.0844 -0.2239 -0.0892
   42MOL   C46246464   3.576   4.281   6.410 -0.0132 -0.8998 -0.3725
   42MOL   O46346465   3.575   4.278   6.286 -0.6807  0.3768 -0.0118
   42MOL   N46446466   3.541   4.389   6.477 -0.2154 -0.4307  0.2127
   42MOL   C46546467   3.537   4.526   6.418 -0.3374  0.1791  0.9098
   42MOL   C46646468   3.581   4.637   6.514 -0.4974  0.4886  0.3663
   42MOL   C46746469   3.496   4.651   6.639  0.2258 -0.3985 -0.3817
   42MOL   C46846470   3.506   4.784   6.717  0.6052  0.3669 -0.0129
   42MOL   C46946471   3.395   4.807   6.827  0.9611  0.4589  0.4956
   42MOL   C47046472   3.410   4.933   6.909 -0.4489  0.5766  0.1712
   42MOL   N47146473   3.524   4.921   6.997  0.8741 -0.2584 -0.0307
   42MOL   H47246474   4.379   3.999   6.963  1.2704 -1.5461  0.3716
   42MOL   H47346475   4.494   4.140   6.985 -0.3834  1.3446 -0.8922
   42MOL   H47446476   4.383   4.030   6.722  0.5388 -0.9517 -0.5131
   42MOL   H47546477   4.515   4.141   6.727 -0.3615  0.8195  0.6183
   42MOL   H47646478   4.349   4.284   6.864 -0.3136 -0.0716  0.6252
   42MOL   H47746479   4.217   4.175   6.817 -0.0290 -0.8349 -1.9491
   42MOL   H47846480   4.263   4.227   6.579 -0.2516  2.6516 -1.7444
   42MOL   H47946481   4.385   4.339   6.628  1.0607 -2.4614  0.8730
   42MOL   H48046482   4.194   4.444   6.555  2.6063  2.8557  1.1112
   42MOL   H48146483   4.207   4.487   6.730  0.1195  0.5123 -0.6085
   42MOL   H48246484   3.990   4.469   6.679  0.2758  0.3682 -3.0406
   42MOL   H48346485   4.014   4.343   6.790 -0.7128  1.6005  0.9734
   42MOL   H48446486   4.005   4.252   6.508 -0.2688  0.3814 -0.1159
   42MOL   H48546487   4.005   4.157   6.648 -2.0246 -0.6623 -1.7014
   42MOL   H48646488   3.785   4.221   6.724  1.1522 -1.5743  0.8173
   42MOL   H48746489   3.778   4.344   6.596  0.4899  0.6787 -0.6732
   42MOL   H48846490   3.766   4.044   6.570 -1.8173 -0.7219 -1.1217
   42MOL   H48946491   3.795   4.149   6.431  0.7914  0.4507  0.0106
   42MOL   H49046492   3.553   4.074   6.458  0.4161 -1.2997  1.4823
   42MOL   H49146493   3.554   4.180   6.597 -2.5207 -2.4566 -0.8008
   42MOL   H49246494   3.561   4.377   6.575  0.0917 -1.3206  0.0480
   42MOL   H49346495   3.438   4.540   6.376 -0.3805 -1.6527  0.3454
   42MOL   H49446496   3.604   4.532   6.332 -0.9199 -0.5900  0.3930
   42MOL   H49546497   3.683   4.622   6.549 -0.4145  0.6971  0.2170
   42MOL   H49646498   3.578   4.731   6.459  0.5521 -0.1732 -0.8452
   42MOL   H49746499   3.525   4.565   6.700 -0.6509 -0.0723  0.4942
   42MOL   H49846500   3.395   4.633   6.605  1.2963 -0.9936 -3.4011
   42MOL   H49946501   3.499   4.873   6.654 -0.1837  0.5836  0.3800
   42MOL   H50046502   3.605   4.798   6.759  0.4602 -0.0920  0.4748
   42MOL   H50146503   3.294   4.811   6.785  2.2431 -0.6336 -2.9115
   42MOL   H50246504   3.385   4.717   6.888 -0.6335  0.4750  0.2931
   42MOL   H50346505   3.444   5.011   6.840  1.2257 -0.0353  0.2912
   42MOL   H50446506   3.322   4.976   6.957 -0.8079  1.1563 -0.9802
   42MOL   H50546507   3.552   4.827   7.022  1.2014  0.4134  2.2000
   42MOL   C50646508   3.586   5.029   7.049 -0.4312  0.4799  0.0038
   42MOL   O50746509   3.556   5.143   7.025  0.0734 -0.5103 -0.0497
   42MOL   C50846510   3.709   4.990   7.141  0.1393 -0.7637 -0.4664
   42MOL   C50946511   3.814   5.103   7.161  0.2924 -0.6793 -0.2638
   42MOL   C51046512   3.878   5.172   7.038 -0.1115 -0.5464 -0.1021
   42MOL   C51146513   4.022   5.218   7.077 -0.4658  0.9020 -0.2656
   42MOL   C51246514   4.025   5.331   7.183 -0.5688  0.4010 -0.5293
   42MOL   C51346515   4.161   5.401   7.209  0.3982  0.5285 -0.1236
   42MOL   C51446516   4.157   5.530   7.296  0.5668  0.1413 -0.1967
   42MOL   C51546517   4.064   5.642   7.241  0.2244 -0.4451 -0.4657
   42MOL   C51646518   4.082   5.789   7.309  0.0712 -0.0972  0.8389
   42MOL   C51746519   3.998   5.907   7.253  0.7874  0.3013 -0.1699
   42MOL   C51846520   3.847   5.892   7.263 -0.2748 -0.4116 -0.2218
   42MOL   O51946521   3.796   5.837   7.364  0.0724 -0.3807 -0.1766
   42MOL   N52046522   3.775   5.936   7.157 -0.2365 -0.0833 -0.0894
   42MOL   C52146523   3.629   5.933   7.152 -0.2878  0.7037  0.1250
   42MOL   C52246524   3.573   5.850   7.037 -0.1636  0.4568  0.5269
   42MOL   C52346525   3.597   5.699   7.043 -0.1557  0.3035  0.6850
   42MOL   C52446526   3.581   5.635   6.904  0.4947  0.4316 -0.0338
   42MOL   C52546527   3.617   5.485   6.898 -0.0813  0.4991  1.2663
   42MOL   C52646528   3.567   5.415   6.766  0.1387  0.1578 -0.8274
   42MOL   N52746529   3.613   5.283   6.757  0.1019  0.3755  0.4818
   42MOL   H52846530   3.761   4.908   7.092  1.8889 -0.0405  0.1514
   42MOL   H52946531   3.680   4.961   7.242 -1.3632  1.4866 -0.1991
   42MOL   H53046532   3.891   5.060   7.225 -0.1764 -1.8397 -0.4719
   42MOL   H53146533   3.785   5.178   7.234  1.2052 -1.9857  1.4767
   42MOL   H53246534   3.822   5.251   6.987  0.2660 -1.5108 -2.0718
   42MOL   H53346535   3.880   5.096   6.960 -2.7988 -1.2962  0.5242
   42MOL   H53446536   4.082   5.138   7.121 -0.9193  2.0737  2.5386
   42MOL   H53546537   4.069   5.267   6.992  0.3031  1.5033  0.5039
   42MOL   H53646538   3.943   5.397   7.153 -0.7143  0.4438 -0.0398
   42MOL   H53746539   3.993   5.293   7.280  0.6586  1.5873  0.3669
   42MOL   H53846540   4.233   5.327   7.245 -0.9870 -0.7397  0.0886
   42MOL   H53946541   4.193   5.428   7.108 -1.2245 -0.3099 -0.8848
   42MOL   H54046542   4.149   5.498   7.400  0.4673 -0.2634 -0.3277
   42MOL   H54146543   4.258   5.572   7.295  0.8514 -0.5747 -1.7094
   42MOL   H54246544   4.090   5.639   7.135  1.6948  0.6825 -0.1488
   42MOL   H54346545   3.958   5.619   7.248 -0.1334  0.8225 -1.6041
   42MOL   H54446546   4.188   5.815   7.305  0.6466 -2.6345 -3.3096
   42MOL   H54546547   4.050   5.790   7.413 -0.1681  1.2781  0.7635
   42MOL   H54646548   4.033   5.983   7.323  2.8910 -1.6445  0.9956
   42MOL   H54746549   4.039   5.933   7.155  0.1365  1.1933 -0.2109
   42MOL   H54846550   3.826   5.994   7.092 -0.6869  1.4384  0.8749
   42MOL   H54946551   3.578   6.029   7.156  0.5774  1.1448  0.5972
   42MOL   H55046552   3.596   5.893   7.248 -0.3120 -0.4003 -0.3362
   42MOL   H55146553   3.624   5.885   6.948  0.1808  0.8174  0.8692
   42MOL   H55246554   3.468   5.878   7.025  0.1517  0.9045 -1.3762
   42MOL   H55346555   3.532   5.640   7.107  0.0560 -2.0361 -1.2035
   42MOL   H55446556   3.698   5.693   7.082 -0.2196  1.4840  1.0734
   42MOL   H55546557   3.646   5.688   6.834  1.3123  1.7049  1.6677
   42MOL   H55646558   3.477   5.652   6.876  0.2878 -0.5222  0.1306
   42MOL   H55746559   3.726   5.487   6.906  0.0054  1.7555  0.0589
   42MOL   H55846560   3.577   5.432   6.984 -0.0963 -1.8201 -0.1230
   42MOL   H55946561   3.462   5.427   6.741  0.5689  0.6904 -2.4518
   42MOL   H56046562   3.608   5.471   6.682 -2.6499  0.4751 -2.0482
   42MOL   H56146563   3.582   5.220   6.830  0.0900  0.3586  0.4618
   42MOL   C56246564   3.710   5.241   6.678 -0.6601  0.5193  0.3249
   42MOL   O56346565   3.776   5.319   6.611  0.2993 -0.3370  0.2457
   42MOL   C56446566   3.752   5.092   6.688  0.6985 -0.2653 -0.3806
   42MOL   C56546567   3.903   5.069   6.652 -0.0162 -0.3575 -0.4931
   42MOL   C56646568   3.953   4.932   6.679  0.5141 -0.0233  0.4583
   42MOL   C56746569   4.092   4.905   6.600 -0.2055 -0.4722  0.3199
   42MOL   C56846570   4.154   4.766   6.636 -0.3584 -0.4264  0.2045
   42MOL   C56946571   4.297   4.752   6.588  0.5588  0.7015 -0.3627
   42MOL   C57046572   4.297   4.736   6.439 -0.5002  0.3064 -0.1852
   42MOL   C57146573   4.446   4.729   6.387  0.5001 -0.5388  0.0477
   42MOL   C57246574   4.475   4.730   6.231  0.2888 -0.1245  0.3742
   42MOL   C57346575   4.367   4.645   6.156 -0.0113  0.0953 -0.2114
   42MOL   C57446576   4.388   4.647   6.005 -0.5115 -0.1559  0.9275
   42MOL   O57546577   4.366   4.743   5.934 -0.3142 -0.5563  0.1652
   42MOL   N57646578   4.434   4.535   5.958 -0.2755  0.5335 -0.1037
   42MOL   C57746579   4.482   4.492   5.823  0.0440 -0.3937  0.5053
   42MOL   C57846580   4.619   4.420   5.837 -0.2460 -0.2330 -0.1261
   42MOL   C57946581   4.731   4.517   5.874  0.4794  0.2209 -0.4083
   42MOL   C58046582   4.867   4.456   5.884 -0.2199  0.1882 -0.0974
   42MOL   C58146583   4.969   4.568   5.920 -0.0824  0.0238  0.3392
   42MOL   C58246584   5.120   4.528   5.900 -0.1369 -0.0963  0.0036
   42MOL   N58346585   5.209   4.642   5.929 -0.4519  0.3338 -0.3687
   42MOL   H58446586   3.720   5.041   6.779  1.3987  0.0958  0.0747
   42MOL   H58546587   3.697   5.036   6.612  1.5348 -0.2440 -1.0174
   42MOL   H58646588   3.927   5.101   6.551  0.5662  2.0141  0.3653
   42MOL   H58746589   3.961   5.134   6.718  2.0636 -4.0290  1.4754
   42MOL   H58846590   3.893   4.850   6.640  3.1573 -1.2148 -1.2166
   42MOL   H58946591   3.964   4.901   6.782  0.1570  3.1530  1.5167
   42MOL   H59046592   4.069   4.905   6.493  0.1387  0.7161  0.2319
   42MOL   H59146593   4.161   4.990   6.610  0.7814 -1.4459  2.0592
   42MOL   H59246594   4.151   4.763   6.745  0.5832 -0.1023  0.2447
   42MOL   H59346595   4.082   4.694   6.597  0.2472 -0.9502  0.0497
   42MOL   H59446596   4.339   4.848   6.616 -0.8232  0.5035  2.6333
   42MOL   H59546597   4.336   4.664   6.639 -1.4305  0.9777  1.7180
   42MOL   H59646598   4.247   4.643   6.412  2.2926 -1.2454 -0.1900
   42MOL   H59746599   4.248   4.824   6.396  0.5292  0.6849 -0.6033
   42MOL   H59846600   4.487   4.638   6.430  0.1003 -0.4794  0.5615
   42MOL   H59946601   4.500   4.816   6.426  1.4839 -1.9770  1.9705
   42MOL   H60046602   4.577   4.706   6.199  0.5266  0.0505  1.0082
   42MOL   H60146603   4.466   4.835   6.203 -1.6292  0.1083  1.7915
   42MOL   H60246604   4.365   4.543   6.194  1.1815  1.0924  2.6902
   42MOL   H60346605   4.269   4.691   6.172  0.4635  1.4954 -1.2095
   42MOL   H60446606   4.433   4.457   6.022  0.4277 -0.3043 -1.0973
   42MOL   H60546607   4.480   4.568   5.745  1.8429  0.1022  0.9225
   42MOL   H60646608   4.411   4.417   5.788 -0.1663 -0.8734  1.9023
   42MOL   H60746609   4.644   4.360   5.749 -0.2200  0.7151 -0.7744
   42MOL   H60846610   4.632   4.347   5.916  2.1011 -1.5320 -1.6537
   42MOL   H60946611   4.703   4.550   5.974 -0.4088  1.3244 -1.0173
   42MOL   H61046612   4.734   4.608   5.815  1.1819  1.9386  2.2166
   42MOL   H61146613   4.865   4.392   5.972  3.3741  0.8372  0.5355
   42MOL   H61246614   4.889   4.397   5.795  1.8767  0.4535  0.2177
   42MOL   H61346615   4.957   4.608   6.021  0.7357 -1.2196  0.9549
   42MOL   H61446616   4.949   4.651   5.853  1.9826 -0.4318 -0.8986
   42MOL   H61546617   5.140   4.434   5.951  1.0032 -0.0355 -0.3097
   42MOL   H61646618   5.124   4.495   5.796 -1.1001  2.5513 -0.9085
   42MOL   H61746619   5.184   4.738   5.914 -0.4536  0.1365 -1.6690
   42MOL   C61846620   5.336   4.619   5.971 -0.5461 -0.0158  0.3958
   42MOL   O61946621   5.377   4.504   5.987 -0.3489  0.3603 -0.0399
   42MOL   C62046622   5.414   4.740   6.016 -0.1590 -0.2245  1.0236
   42MOL   C62146623   5.569   4.727   6.024 -0.6608  0.1849 -0.0133
   42MOL   C62246624   5.636   4.726   5.886  0.3566 -0.3822 -0.3651
   42MOL   C62346625   5.668   4.869   5.836  0.1379 -0.6138  0.0391
   42MOL   C62446626   5.753   4.872   5.711 -0.6405 -0.1473  0.0711
   42MOL   C62546627   5.769   5.001   5.636  0.2100 -0.1585 -0.0466
   42MOL   C62646628   5.862   4.994   5.517 -0.1650  0.6818  0.5559
   42MOL   C62746629   5.932   5.130   5.502 -0.8947  0.0170 -0.7546
   42MOL   C62846630   6.045   5.132   5.403  0.8531  0.0906  0.1002
   42MOL   C62946631   6.097   5.270   5.373  0.2845 -0.0545 -0.3068
   42MOL   C63046632   6.182   5.339   5.480  0.1479 -0.9675  0.0870
   42MOL   O63146633   6.158   5.328   5.598 -0.3514  0.2400  0.5851
   42MOL   N63246634   6.277   5.419   5.428 -0.3888 -0.6196  0.6229
   42MOL   C63346635   6.362   5.512   5.497  0.0596  1.0251  0.2928
   42MOL   C63446636   6.505   5.443   5.508 -0.2786 -0.1114  0.1476
   42MOL   C63546637   6.504   5.294   5.548 -0.0098 -0.0073  0.1044
   42MOL   C63646638   6.641   5.225   5.559  0.5317 -0.2210 -0.1865
   42MOL   C63746639   6.645   5.075   5.593 -0.6707 -0.9935 -0.1888
   42MOL   C63846640   6.647   4.995   5.464  0.2851 -0.5878  0.3180
   42MOL   N63946641   6.674   4.853   5.501  0.3053 -0.2733 -0.1405
   42MOL   H64046642   5.373   4.788   6.105 -0.2432  0.9106  0.3787
   42MOL   H64146643   5.393   4.819   5.945  1.9677 -0.6302 -0.1113
   42MOL   H64246644   5.591   4.631   6.071 -3.1580  1.0020  2.9505
   42MOL   H64346645   5.616   4.810   6.077 -0.3148 -1.0644  1.6976
   42MOL   H64446646   5.595   4.667   5.803 -0.0624  0.3108 -0.6587
   42MOL   H64546647   5.727   4.672   5.910  1.1803  0.8290 -0.7388
   42MOL   H64646648   5.581   4.933   5.825  0.5277  0.1733  1.4400
   42MOL   H64746649   5.736   4.903   5.914 -0.3619  1.5950 -0.4568
   42MOL   H64846650   5.850   4.823   5.722 -0.3452  0.4376  0.0862
   42MOL   H64946651   5.708   4.802   5.641  0.2208  0.5253 -1.1606
   42MOL   H65046652   5.812   5.081   5.697 -0.8938  0.2741  0.1642
   42MOL   H65146653   5.673   5.044   5.606  0.9071  1.4329 -0.0824
   42MOL   H65246654   5.942   4.926   5.547  0.4190  0.3617 -1.6265
   42MOL   H65346655   5.824   4.949   5.426  0.7786  0.9021  0.0466
   42MOL   H65446656   5.856   5.200   5.470 -0.2319  1.0480 -0.1385
   42MOL   H65546657   5.965   5.163   5.601 -0.4495 -2.3065 -0.0809
   42MOL   H65646658   6.008   5.084   5.312 -1.7621  1.8358  0.1792
   42MOL   H65746659   6.128   5.074   5.443 -0.3605 -0.4920  1.8119
   42MOL   H65846660   6.159   5.269   5.284 -0.9950 -0.1943 -1.2145
   42MOL   H65946661   6.012   5.332   5.342 -0.2077  0.3005  1.6400
   42MOL   H66046662   6.274   5.435   5.328 -0.0734  1.3724  0.9248
   42MOL   H66146663   6.360   5.604   5.439 -2.8866  1.0774  0.3814
   42MOL   H66246664   6.312   5.524   5.593 -2.6326 -1.3589 -0.7399
   42MOL   H66346665   6.574   5.501   5.570 -0.3459 -0.9657  1.0264
   42MOL   H66446666   6.538   5.441   5.404  0.0295  1.4098  0.1947
   42MOL   H66546667   6.447   5.280   5.640 -2.0573 -0.4581 -1.1918
   42MOL   H66646668   6.442   5.234   5.481 -0.3507  0.5343 -0.0680
   42MOL   H66746669   6.705   5.272   5.634 -1.2836  2.2136 -0.1274
   42MOL   H66846670   6.706   5.249   5.475  1.4527  2.6792  1.2772
   42MOL   H66946671   6.737   5.062   5.648 -0.1899  2.9125  0.0646
   42MOL   H67046672   6.565   5.039   5.658 -1.7966 -2.0809 -2.1281
   42MOL   H67146673   6.552   4.999   5.410 -0.0471 -1.9742  0.7730
   42MOL   H67246674   6.725   5.037   5.402 -1.2497  0.9874 -0.5755
   42MOL   H67346675   6.654   4.813   5.592 -1.5488  2.5503  0.7539
   42MOL   C67446676   6.689   4.754   5.414 -0.4046 -0.5670  0.4231
   42MOL   O67546677   6.730   4.647   5.457  0.2002  0.3434  0.1082
   42MOL   C67646678   6.662   4.782   5.267  0.1957  0.5430 -0.5389
   42MOL   C67746679   6.630   4.647   5.191  0.2217  0.1138 -0.5432
   42MOL   C67846680   6.757   4.576   5.146 -0.9048 -0.4029 -0.0479
   42MOL   C67946681   6.802   4.629   5.010 -0.0462 -0.5332 -0.1189
   42MOL   C68046682   6.914   4.546   4.937 -0.2552  0.0909  0.2280
   42MOL   C68146683   6.962   4.611   4.806 -0.5111 -0.4176  0.6144
   42MOL   C68246684   7.035   4.744   4.840 -0.2947  0.4560  0.1881
   42MOL   C68346685   7.076   4.792   4.697  0.7111  0.4851  0.8253
   42MOL   C68446686   7.214   4.733   4.656  0.1335  0.0770 -0.3674
   42MOL   C68546687   7.218   4.733   4.508 -0.1698  0.4870 -0.3828
   42MOL   C68646688   7.154   4.610   4.440  0.4405  0.5901 -0.0116
   42MOL   O68746689   7.204   4.501   4.463  0.3975  0.2273  0.0980
   42MOL   N68846690   7.047   4.629   4.366 -0.3050 -0.1703 -0.1547
   42MOL   C68946691   6.975   4.517   4.302  0.0503  0.3263 -0.0224
   42MOL   C69046692   6.894   4.568   4.179 -0.0681  0.6616 -0.1724
   42MOL   C69146693   6.996   4.625   4.081  0.1938 -0.0814 -0.2950
   42MOL   C69246694   6.920   4.662   3.950  0.6836  0.0012  0.1776
   42MOL   C69346695   7.010   4.735   3.852 -0.2477 -0.4284  0.9069
   42MOL   C69446696   6.949   4.747   3.705 -0.4917  0.1352 -0.3812
   42MOL   N69546697   6.933   4.613   3.645 -0.1502 -0.3502  0.3402
   42MOL   H69646698   6.750   4.829   5.222  0.8581  0.9288  1.1180
   42MOL   H69746699   6.578   4.849   5.245 -1.0979 -0.6648  0.6416
   42MOL   H69846700   6.562   4.670   5.109 -1.8959 -0.5962  0.9793
   42MOL   H69946701   6.576   4.582   5.260 -0.2402 -0.4591 -1.4245
   42MOL   H70046702   6.832   4.586   5.223  0.4763 -2.8218 -1.0303
   42MOL   H70146703   6.746   4.467   5.143 -0.9762 -0.3779 -0.9355
   42MOL   H70246704   6.828   4.734   5.024 -0.8462  0.0301 -2.5515
   42MOL   H70346705   6.723   4.629   4.935  2.3659 -2.7276 -2.8304
   42MOL   H70446706   6.870   4.452   4.904  2.9967 -1.7230  0.8387
   42MOL   H70546707   6.995   4.515   5.003 -1.0197 -0.8813  0.7172
   42MOL   H70646708   7.042   4.552   4.761 -0.5229 -0.6670  0.9129
   42MOL   H70746709   6.879   4.626   4.738 -0.3881  0.2875  0.6234
   42MOL   H70846710   6.973   4.816   4.893 -0.0287 -0.1252  1.3165
   42MOL   H70946711   7.124   4.714   4.894 -0.6387 -1.5476 -0.3106
   42MOL   H71046712   6.998   4.768   4.624  1.9606  0.2967 -0.4743
   42MOL   H71146713   7.077   4.901   4.694  1.7648  0.5140  2.3155
   42MOL   H71246714   7.228   4.630   4.690  1.4525 -0.3562 -2.1018
   42MOL   H71346715   7.300   4.786   4.697  0.4067 -0.7779  0.1998
   42MOL   H71446716   7.189   4.826   4.459  0.8651  0.5637 -0.8615
   42MOL   H71546717   7.322   4.728   4.475  0.9529 -1.1855  3.2111
   42MOL   H71646718   6.997   4.717   4.364  0.2098  0.1868  1.8461
   42MOL   H71746719   7.042   4.436   4.274 -0.9436 -0.2758 -0.6607
   42MOL   H71846720   6.909   4.462   4.369  0.8443 -0.8801 -0.2205
   42MOL   H71946721   6.817   4.642   4.202 -0.0392  0.4757  0.5434
   42MOL   H72046722   6.851   4.478   4.134  0.0913  0.1951  0.6034
   42MOL   H72146723   7.024   4.723   4.121  0.4069 -0.2958  0.0884
   42MOL   H72246724   7.089   4.571   4.062  0.0818 -0.5292  0.3865
   42MOL   H72346725   6.838   4.727   3.979  1.5527  0.4280  1.7296
   42MOL   H72446726   6.877   4.575   3.900  2.5081  0.2287 -1.8549
   42MOL   H72546727   7.112   4.698   3.852 -0.1081 -0.0461  0.3757
   42MOL   H72646728   7.028   4.839   3.878 -0.3452 -0.4331  0.9942
   42MOL   H72746729   6.849   4.789   3.719 -1.1828 -1.4250 -0.4704
   42MOL   H72846730   7.000   4.814   3.636 -2.6674  2.6185  0.3361
   42MOL   H72946731   7.004   4.543   3.663 -3.9484 -4.0623  1.7503
   42MOL   C73046732   6.853   4.574   3.549 -0.6136  0.0169 -0.4116
   42MOL   O73146733   6.765   4.642   3.497 -0.8486 -0.3580  0.0722
   42MOL   C73246734   6.873   4.421   3.524 -0.4823  0.5434 -0.0600
   42MOL   C73346735   6.790   4.325   3.613 -0.1565  0.1053  0.3633
   42MOL   C73446736   6.639   4.330   3.587 -0.4599  0.2889 -0.2039
   42MOL   C73546737   6.612   4.297   3.438  0.8300  0.5060  0.4541
   42MOL   C73646738   6.466   4.313   3.402  0.2577 -0.8972 -0.3368
   42MOL   C73746739   6.421   4.454   3.436  0.0067  0.2654 -0.7556
   42MOL   C73846740   6.301   4.511   3.355 -0.0085 -0.2063 -0.2224
   42MOL   C73946741   6.172   4.440   3.378 -0.3407  0.2055 -0.2203
   42MOL   C74046742   6.054   4.515   3.313  1.0936 -0.3436  0.1879
   42MOL   C74146743   5.908   4.500   3.367 -0.1635 -0.1347 -0.1457
   42MOL   C74246744   5.851   4.362   3.386  0.0510 -0.0635  0.1566
   42MOL   O74346745   5.898   4.263   3.331 -0.1028  0.5477 -0.6992
   42MOL   N74446746   5.746   4.357   3.459 -0.4048  0.4240 -0.1315
   42MOL   C74546747   5.664   4.233   3.491  0.2637 -0.2916  0.8762
   42MOL   C74646748   5.629   4.217   3.641  0.2094 -0.4684 -0.0238
   42MOL   C74746749   5.496   4.144   3.645 -0.0136 -0.0119 -0.1660
   42MOL   C74846750   5.507   3.993   3.618 -0.2150 -0.0302  0.1658
   42MOL   C74946751   5.369   3.916   3.615 -0.7414  0.5022  0.2152
   42MOL   C75046752   5.376   3.763   3.632  0.0354  0.2793  0.4021
   42MOL   N75146753   5.434   3.729   3.759 -0.1389 -0.0776 -0.1835
   42MOL   H75246754   6.978   4.396   3.541 -0.1604  1.4684 -0.6510
   42MOL   H75346755   6.868   4.405   3.416 -1.0224  0.1659  0.0171
   42MOL   H75446756   6.811   4.346   3.718 -0.6955  0.1747  0.4548
   42MOL   H75546757   6.833   4.224   3.609 -0.0916  0.1476 -0.0559
   42MOL   H75646758   6.598   4.429   3.605 -1.5825 -0.1050 -0.5985
   42MOL   H75746759   6.594   4.253   3.649  1.9017 -0.7724  0.2642
   42MOL   H75846760   6.649   4.199   3.409  0.5035  0.2376  0.9541
   42MOL   H75946761   6.664   4.371   3.376 -0.0417  0.5855 -0.1887
   42MOL   H76046762   6.400   4.237   3.442  1.2648 -0.9564  1.2484
   42MOL   H76146763   6.456   4.299   3.294 -0.5527 -1.8353 -0.1395
   42MOL   H76246764   6.398   4.472   3.542  1.0902  1.2050 -0.6683
   42MOL   H76346765   6.502   4.515   3.396  0.3240 -1.1658 -2.3404
   42MOL   H76446766   6.286   4.618   3.375  1.7284  0.0682 -0.3015
   42MOL   H76546767   6.331   4.504   3.251  3.5011  0.1407  0.7160
   42MOL   H76646768   6.182   4.340   3.337 -0.8634  0.2465 -0.4527
   42MOL   H76746769   6.142   4.428   3.482  2.4487 -0.7439  0.5097
   42MOL   H76846770   6.044   4.471   3.214 -0.3830  0.8477 -0.2164
   42MOL   H76946771   6.080   4.618   3.290  0.9077  0.3656  2.9635
   42MOL   H77046772   5.881   4.561   3.453 -0.9308 -0.3873 -0.2055
   42MOL   H77146773   5.844   4.543   3.289  1.2841 -0.5215 -1.5881
   42MOL   H77246774   5.707   4.446   3.486  0.6308  0.9264 -0.2924
   42MOL   H77346775   5.713   4.138   3.468  0.1262 -0.2327  0.3193
   42MOL   H77446776   5.576   4.231   3.427 -1.7647 -0.1313  3.6225
   42MOL   H77546777   5.613   4.312   3.691 -0.5039  0.5827 -2.2294
   42MOL   H77646778   5.705   4.163   3.698 -0.8852 -2.1706 -0.1622
   42MOL   H77746779   5.424   4.192   3.578 -1.6754 -1.9114  0.2228
   42MOL   H77846780   5.457   4.148   3.747 -0.1919  1.7008 -0.2794
   42MOL   H77946781   5.568   3.969   3.531 -1.1872 -1.1669 -0.2218
   42MOL   H78046782   5.579   3.962   3.694 -0.0766 -0.1443 -0.0133
   42MOL   H78146783   5.323   3.934   3.517  3.0181  1.4336 -1.4648
   42MOL   H78246784   5.302   3.952   3.692 -1.4876 -0.8791  0.2299
   42MOL   H78346785   5.278   3.719   3.614 -0.4743  0.9499  1.4482
   42MOL   H78446786   5.423   3.716   3.546 -2.5708  0.8614 -1.4031
   42MOL   H78546787   5.508   3.789   3.793  0.5392 -0.0130 -1.7448
   42MOL   C78646788   5.401   3.612   3.819  0.0880  0.1473 -0.5943
   42MOL   O78746789   5.316   3.536   3.777 -0.1021  0.1349  1.0020
   42MOL   C78846790   5.460   3.587   3.955  0.0392 -0.7244 -0.5066
   42MOL   C78946791   5.530   3.446   3.956  0.1766 -0.5118 -0.4858
   42MOL   C79046792   5.675   3.450   3.902 -0.1952 -1.0811  0.0239
   42MOL   C79146793   5.756   3.321   3.929 -0.6240 -0.7560 -0.2697
   42MOL   C79246794   5.899   3.339   3.884 -0.7740  0.0128 -0.5083
   42MOL   C79346795   5.982   3.222   3.932 -1.0176 -0.2921 -0.3175
   42MOL   C79446796   6.136   3.220   3.903  0.3309  0.7988  0.2717
   42MOL   C79546797   6.216   3.325   3.974 -0.6080 -0.2749  0.5120
   42MOL   C79646798   6.350   3.361   3.906 -0.1202  0.2060 -0.1426
   42MOL   C79746799   6.336   3.439   3.770  0.1734  0.0543 -0.2169
   42MOL   C79846800   6.283   3.579   3.788 -0.3827  0.3666  0.0482
   42MOL   O79946801   6.342   3.666   3.857  0.1203 -0.6438  0.4430
   42MOL   N80046802   6.168   3.614   3.725 -0.0292  0.1809  0.4939
   42MOL   C80146803   6.102   3.741   3.720  0.6795 -0.4386  0.5866
   42MOL   C80246804   5.967   3.738   3.792 -0.0022 -0.6206  0.0588
   42MOL   C80346805   5.889   3.869   3.782 -1.1295  0.4056  0.2013
   42MOL   C80446806   5.764   3.870   3.878 -0.0760 -0.3070 -0.7575
   42MOL   C80546807   5.792   3.876   4.029 -0.2027 -0.0404 -0.2912
   42MOL   C80646808   5.879   3.996   4.076  0.7724 -0.6509  0.9447
   42MOL   N80746809   5.900   3.976   4.218 -0.1955 -0.7783 -0.0271
   42MOL   H80846810   5.382   3.587   4.031  1.4380  1.3203  0.9647
   42MOL   H80946811   5.533   3.656   3.995 -0.2776  0.2798 -1.6412
   42MOL   H81046812   5.536   3.405   4.057  0.8056  0.5527 -0.0877
   42MOL   H81146813   5.489   3.370   3.890  0.7192 -1.9333  0.7899
   42MOL   H81246814   5.727   3.530   3.954  1.9083  0.8585 -4.7422
   42MOL   H81346815   5.684   3.475   3.796 -2.1399 -0.0485  0.0769
   42MOL   H81446816   5.761   3.310   4.038 -0.1569 -0.0594 -0.2153
   42MOL   H81546817   5.714   3.229   3.889  2.5482 -2.9790  1.2693
   42MOL   H81646818   5.895   3.341   3.775 -0.3380 -2.7086 -0.5914
   42MOL   H81746819   5.944   3.431   3.921 -2.2840  0.5564  0.0308
   42MOL   H81846820   5.977   3.219   4.041  4.0985  2.0829  0.1529
   42MOL   H81946821   5.927   3.137   3.893 -0.4924 -0.1802 -1.3240
   42MOL   H82046822   6.187   3.125   3.912 -1.0479 -0.0554 -0.7115
   42MOL   H82146823   6.135   3.242   3.796 -1.4128 -0.2035  0.0533
   42MOL   H82246824   6.146   3.406   3.991  0.0790  0.8231 -1.6477
   42MOL   H82346825   6.244   3.291   4.074  1.2930  1.1905  0.5169
   42MOL   H82446826   6.400   3.268   3.879  0.3160 -0.8947  4.0666
   42MOL   H82546827   6.407   3.419   3.979  0.6036 -0.9238  0.1906
   42MOL   H82646828   6.427   3.440   3.710 -0.5680 -2.9649 -1.4736
   42MOL   H82746829   6.274   3.381   3.702 -1.9206  0.1040  1.5956
   42MOL   H82846830   6.125   3.548   3.663 -1.4239  3.0795 -1.7104
   42MOL   H82946831   6.089   3.765   3.614  1.6990  0.4652  0.6663
   42MOL   H83046832   6.163   3.816   3.771  0.9999 -1.6086  1.9670
   42MOL   H83146833   5.998   3.720   3.895 -0.8276 -0.6669  0.2999
   42MOL   H83246834   5.898   3.656   3.773  0.3085 -1.2583  1.5848
   42MOL   H83346835   5.954   3.956   3.790 -0.2997 -0.1558 -0.4363
   42MOL   H83446836   5.847   3.883   3.682 -1.4009  0.1204  0.2745
   42MOL   H83546837   5.713   3.780   3.845  1.8810 -1.3554 -1.0080
   42MOL   H83646838   5.716   3.965   3.859  0.9119  0.6366  1.2265
   42MOL   H83746839   5.834   3.779   4.056 -0.5318  0.0993  0.7707
   42MOL   H83846840   5.689   3.872   4.063 -0.7777 -2.6169 -2.2347
   42MOL   H83946841   5.821   4.086   4.057  0.6319 -1.3127 -2.0030
   42MOL   H84046842   5.970   3.991   4.016  0.1111 -0.3066 -0.0939
   42MOL   H84146843   5.993   3.960   4.254  1.5450  3.9246 -2.0120
   42MOL   C84246844   5.807   3.988   4.315  0.2028 -0.0547 -0.2040
   42MOL   O84346845   5.691   4.028   4.292 -0.5987  0.1889  0.4911
   42MOL   C84446846   5.845   3.944   4.465 -0.5003 -0.3504  0.2925
   42MOL   C84546847   5.730   3.953   4.568  0.6542 -0.2714  0.5336
   42MOL   C84646848   5.695   4.101   4.614  0.0628  0.2502  0.2963
   42MOL   C84746849   5.549   4.120   4.670  0.2323 -0.0358  0.0667
   42MOL   C84846850   5.511   4.012   4.768  0.2893  0.1362 -1.2798
   42MOL   C84946851   5.368   4.005   4.806 -0.1801  0.0963 -0.2594
   42MOL   C85046852   5.264   3.977   4.701 -0.4435  0.0975  0.3956
   42MOL   C85146853   5.120   3.953   4.745 -0.1634 -0.5114 -0.0489
   42MOL   C85246854   5.022   3.946   4.623  0.3091  0.1180  0.2298
   42MOL   C85346855   4.878   3.936   4.666 -0.1286 -0.9265  0.5737
   42MOL   C85446856   4.859   3.813   4.748  1.1634  0.1247 -0.7998
   42MOL   O85546857   4.868   3.706   4.697 -0.4624 -0.4135  1.0552
   42MOL   N85646858   4.823   3.824   4.873  0.4607  0.5758  0.0451
   42MOL   C85746859   4.789   3.708   4.964 -0.2093  0.2449 -0.2767
   42MOL   C85846860   4.689   3.750   5.069  0.3161  0.2058 -0.3283
   42MOL   C85946861   4.638   3.642   5.156  0.5316  0.0366  0.2565
   42MOL   C86046862   4.550   3.699   5.263 -0.6969  0.0537  0.8515
   42MOL   C86146863   4.478   3.592   5.341  0.2107 -0.1989 -0.0399
   42MOL   C86246864   4.398   3.489   5.259 -0.3104 -0.3514  0.2114
   42MOL   N86346865   4.281   3.557   5.196  0.2159  0.0017 -0.3699
   42MOL   H86446866   5.919   4.010   4.510 -0.3622 -0.8448  0.7881
   42MOL   H86546867   5.881   3.842   4.458 -0.2334 -0.3042  1.0082
   42MOL   H86646868   5.775   3.907   4.656 -1.8110  0.4056  2.1908
   42MOL   H86746869   5.654   3.886   4.529  1.6955  0.0784 -2.1888
   42MOL   H86846870   5.771   4.137   4.683 -1.4311  0.5116  1.8335
   42MOL   H86946871   5.691   4.170   4.529 -1.6012  0.8208  0.8178
   42MOL   H87046872   5.489   4.109   4.579 -3.4606 -3.2342  2.7047
   42MOL   H87146873   5.525   4.211   4.725 -0.5674 -0.8677  1.0977
   42MOL   H87246874   5.515   3.912   4.725  2.6215 -0.8207  1.0455
   42MOL   H87346875   5.581   4.009   4.851  1.0863  0.4745 -1.9355
   42MOL   H87446876   5.355   3.934   4.887 -1.4991 -0.3489 -0.8478
   42MOL   H87546877   5.346   4.102   4.851 -2.2414 -0.8468  0.8058
   42MOL   H87646878   5.253   4.070   4.645 -1.8219 -0.7031 -0.6962
   42MOL   H87746879   5.300   3.893   4.642  1.3959  0.7221  0.5923
   42MOL   H87846880   5.083   4.036   4.805 -1.3815 -0.6413 -0.6092
   42MOL   H87946881   5.119   3.868   4.813 -1.0910  1.3086  2.2974
   42MOL   H88046882   5.046   3.856   4.566 -0.5181 -0.5026  0.8518
   42MOL   H88146883   5.046   4.033   4.562  0.3460  0.8001  1.1996
   42MOL   H88246884   4.839   4.024   4.717  0.4805 -0.4993  0.3121
   42MOL   H88346885   4.811   3.936   4.580 -2.7823  2.9237  2.5418
   42MOL   H88446886   4.818   3.914   4.919  0.5078 -0.3688  1.9760
   42MOL   H88546887   4.879   3.666   5.009 -1.2771 -0.1516  1.5352
   42MOL   H88646888   4.735   3.631   4.909 -2.4645  0.8405  1.0307
   42MOL   H88746889   4.598   3.797   5.032 -0.3361 -0.8311 -0.0594
   42MOL   H88846890   4.740   3.826   5.128  1.5271 -0.9357  0.1458
   42MOL   H88946891   4.726   3.590   5.194  0.8323 -0.0635 -0.5777
   42MOL   H89046892   4.587   3.575   5.086  1.7234 -0.6766  0.0576
   42MOL   H89146893   4.475   3.760   5.213  0.1399  1.5645  1.4330
   42MOL   H89246894   4.609   3.754   5.337  2.5823 -2.7482  0.4670
   42MOL   H89346895   4.550   3.535   5.400 -1.1117  0.1018  1.8975
   42MOL   H89446896   4.415   3.641   5.415  0.3064  1.2913 -0.9341
   42MOL   H89546897   4.470   3.436   5.197 -0.8518 -0.8486  0.0032
   42MOL   H89646898   4.353   3.424   5.334 -1.8132  1.3075  0.7932
   42MOL   H89746899   4.212   3.601   5.256  1.0231  1.1495 -0.2543
   42MOL   C89846900   4.260   3.561   5.062 -0.4854  0.2393 -1.1967
   42MOL   O89946901   4.343   3.513   4.989  0.7907 -0.0004 -0.1690
   42MOL   C90046902   4.116   3.598   5.009  0.0345  0.2666  0.9465
   42MOL   C90146903   4.107   3.730   4.930 -0.8252  0.1118  0.2868
   42MOL   C90246904   4.130   3.856   5.015  0.1107  0.4239  0.2319
   42MOL   C90346905   4.079   3.983   4.948 -0.2482 -0.6307  0.2133
   42MOL   C90446906   4.104   4.114   5.032  0.3060  0.7241  0.4817
   42MOL   C90546907   4.009   4.230   4.998  0.1099 -0.3158  0.3547
   42MOL   C90646908   4.052   4.348   5.075  0.6750 -0.2569 -0.3634
   42MOL   C90746909   4.019   4.362   5.229  0.6629 -0.1743  0.3352
   42MOL   C90846910   3.867   4.355   5.262 -0.6326 -0.3024 -0.4627
   42MOL   C90946911   3.818   4.367   5.413 -0.9716  0.6137 -0.3992
   42MOL   C91046912   3.866   4.246   5.494  0.9516  1.0593 -0.1980
   42MOL   O91146913   3.848   4.131   5.456  0.2522 -0.3453  0.1367
   42MOL   N91246914   3.915   4.279   5.611 -0.1555  0.0322  0.1966
   42MOL   C91346915   3.944   4.182   5.714 -0.5083 -0.9967 -0.4463
   42MOL   C91446916   3.820   4.144   5.787 -0.1024  0.1636  0.6369
   42MOL   C91546917   3.861   4.046   5.897 -0.7416 -0.0843 -0.1446
   42MOL   C91646918   3.747   3.974   5.969 -0.4541 -0.1246  0.6035
   42MOL   C91746919   3.792   3.878   6.074  0.2459  0.3535  0.9050
   42MOL   C91846920   3.839   3.946   6.206  0.2740 -0.0138 -0.0295
   42MOL   N91946921   3.932   3.861   6.284 -0.2792  0.3205  0.6176
   42MOL   H92046922   4.082   3.514   4.948  2.3269  0.1623 -0.2665
   42MOL   H92146923   4.049   3.616   5.093 -0.0769  0.7512  0.7573
   42MOL   H92246924   4.008   3.728   4.884 -1.6798  0.4651  2.0412
   42MOL   H92346925   4.182   3.723   4.852  0.0692  0.1421  1.1381
   42MOL   H92446926   4.236   3.873   5.034 -0.3358  2.2363  1.1601
   42MOL   H92546927   4.085   3.848   5.115 -2.0978  2.2416 -0.5771
   42MOL   H92646928   4.119   4.007   4.849 -0.4374 -0.5186  0.1629
   42MOL   H92746929   3.971   3.987   4.932 -0.3405 -1.6123  0.5720
   42MOL   H92846930   4.209   4.132   5.056  0.6120 -1.4455  0.8651
   42MOL   H92946931   4.062   4.103   5.132  1.2441  3.3396  1.2192
   42MOL   H93046932   4.018   4.247   4.890  0.0395 -2.3124  0.0153
   42MOL   H93146933   3.904   4.205   5.018 -0.2859  1.2718  0.3115
   42MOL   H93246934   3.999   4.430   5.026  2.3354  1.9559  1.4778
   42MOL   H93346935   4.159   4.361   5.060  0.6648  0.0518 -0.1607
   42MOL   H93446936   4.058   4.461   5.248 -0.6380  0.5495 -0.6932
   42MOL   H93546937   4.072   4.293   5.296  1.4122 -0.1162 -0.1985
   42MOL   H93646938   3.819   4.431   5.201  0.7491  0.3707 -0.7210
   42MOL   H93746939   3.810   4.268   5.228 -1.2089 -0.7004  1.4530
   42MOL   H93846940   3.861   4.457   5.456  3.6378 -1.2542 -0.8194
   42MOL   H93946941   3.709   4.369   5.419 -0.9420  1.1768 -0.1233
   42MOL   H94046942   3.916   4.374   5.645  2.2588  0.0888  0.0739
   42MOL   H94146943   4.019   4.223   5.782 -1.3095  0.5948 -0.4997
   42MOL   H94246944   3.986   4.091   5.672  0.3986 -0.7944 -0.0038
   42MOL   H94346945   3.770   4.231   5.831 -0.0608 -0.7440  2.5260
   42MOL   H94446946   3.750   4.093   5.722  2.0275  3.1563 -4.3594
   42MOL   H94546947   3.922   3.972   5.845 -1.5825  1.2627 -3.1668
   42MOL   H94646948   3.927   4.096   5.968 -1.0763 -0.5113  0.4712
   42MOL   H94746949   3.687   3.923   5.893  1.0562  0.5046 -1.0572
   42MOL   H94846950   3.679   4.041   6.020  0.9201  0.2807  1.9326
   42MOL   H94946951   3.712   3.806   6.094  1.6200 -0.9436  1.9273
   42MOL   H95046952   3.873   3.817   6.034 -0.1665 -1.1339  2.2836
   42MOL   H95146953   3.760   3.981   6.272  1.6661  2.4388  0.4252
   42MOL   H95246954   3.890   4.040   6.187 -1.2875  0.5707 -1.4594
   42MOL   H95346955   3.933   3.761   6.274  1.0765  0.2624  1.2167
   42MOL   C95446956   4.013   3.913   6.374 -0.2363  0.2802 -0.7840
   42MOL   O95546957   4.033   4.036   6.374  0.0872  0.3964 -0.6301
   42MOL   C95646958   4.087   3.818   6.470 -0.3525  0.1827 -0.2813
   42MOL   C95746959   4.226   3.867   6.522 -0.4428 -0.2931 -0.3176
   42MOL   C95846960   4.338   3.838   6.419  0.4915 -0.6736 -0.1032
   42MOL   C95946961   4.485   3.862   6.463  0.2577  0.1902 -0.0391
   42MOL   C96046962   4.592   3.782   6.385 -0.2580  0.6431 -0.1559
   42MOL   C96146963   4.739   3.834   6.399 -0.2971 -0.7978 -0.1392
   42MOL   C96246964   4.837   3.739   6.321 -0.2458  0.6173  0.0315
   42MOL   C96346965   4.974   3.805   6.302  0.1638 -0.5970  0.5873
   42MOL   C96446966   5.075   3.716   6.232 -0.4173 -0.4563  0.1409
   42MOL   C96546967   5.215   3.774   6.240  0.1936  0.0021  0.2950
   42MOL   C96646968   5.292   3.735   6.366  0.2367 -0.7855 -0.1111
   42MOL   O96746969   5.277   3.627   6.422  0.2724  0.2016  0.0968
   42MOL   N96846970   5.375   3.835   6.409 -0.1394 -0.0401  0.2793
   42MOL   C96946971   5.467   3.836   6.526  0.0314 -0.1718 -0.2476
   42MOL   C97046972   5.591   3.757   6.490  0.0495  0.0008 -0.1686
   42MOL   C97146973   5.700   3.773   6.612 -0.1959 -0.0051  0.3382
   42MOL   C97246974   5.828   3.686   6.594  0.1693  0.3782 -0.4536
   42MOL   C97346975   5.942   3.712   6.694  0.3989  0.0937 -0.2536
   42MOL   C97446976   6.078   3.668   6.638  0.9030 -0.1464 -0.0513
   42MOL   N97546977   6.179   3.692   6.741 -0.4451 -0.1891  0.0530
   42MOL   H97646978   4.022   3.816   6.557 -0.9481  2.0301 -0.6530
   42MOL   H97746979   4.099   3.718   6.428 -2.2414  0.3386 -1.2609
   42MOL   H97846980   4.256   3.808   6.609 -0.3057 -0.9543 -0.8121
   42MOL   H97946981   4.231   3.972   6.552 -1.5688 -0.9595  2.3185
   42MOL   H98046982   4.330   3.732   6.395  0.5879 -0.9262  0.9598
   42MOL   H98146983   4.320   3.891   6.325 -1.7766 -1.2931 -0.0509
   42MOL   H98246984   4.500   3.968   6.447  0.0345  0.3079  0.5094
   42MOL   H98346985   4.490   3.831   6.568  0.7943 -0.1534 -0.1639
   42MOL   H98446986   4.585   3.681   6.424 -0.5675  0.9481  0.5862
   42MOL   H98546987   4.561   3.786   6.280  0.2700 -2.3951 -0.4525
   42MOL   H98646988   4.756   3.935   6.361  0.8322 -0.8484  0.2306
   42MOL   H98746989   4.758   3.836   6.506  1.1002 -1.2859 -0.3710
   42MOL   H98846990   4.850   3.637   6.357  0.1280  0.2695 -1.0367
   42MOL   H98946991   4.781   3.736   6.227  0.5956  2.7362 -0.5872
   42MOL   H99046992   4.967   3.894   6.239  1.0468 -1.4775 -0.7796
   42MOL   H99146993   5.014   3.830   6.400  2.3143  0.1565 -0.4414
   42MOL   H99246994   5.053   3.696   6.127 -0.9882 -2.0845  0.5667
   42MOL   H99346995   5.077   3.616   6.275 -0.7758 -2.0673 -3.3656
   42MOL   H99446996   5.275   3.732   6.159  0.1874 -1.3113  0.9575
   42MOL   H99546997   5.212   3.882   6.225 -0.9900 -0.4399 -3.1346
   42MOL   H99646998   5.377   3.929   6.372 -0.3787  0.3555  1.2549
   42MOL   H99746999   5.415   3.792   6.611 -0.8339 -0.8883 -1.1364
   42MOL   H99847000   5.495   3.939   6.548  3.0244 -0.6293 -1.6149
   42MOL   H99947001   5.634   3.796   6.398  1.8906  2.8971  1.7976
   42MOL     H147002   5.566   3.652   6.475  0.4385 -0.2712  0.9794
   42MOL     H247003   5.661   3.754   6.712 -2.1202  1.0840 -0.1933
   42MOL     H347004   5.723   3.880   6.619  1.3276 -0.4123  2.0104
   42MOL     H447005   5.809   3.579   6.605 -2.3352  1.0407  2.7353
   42MOL     H547006   5.857   3.712   6.493 -1.3911  0.7407 -0.8226
   42MOL     H647007   5.919   3.653   6.783 -0.2097 -0.6198 -0.8852
   42MOL     H747008   5.937   3.816   6.728  2.0596 -0.6817  2.5713
   42MOL     H847009   6.075   3.567   6.598  2.6649 -0.2616  0.0592
   42MOL     H947010   6.115   3.735   6.560  2.2107 -0.2307  0.4802
   42MOL    H1047011   6.194   3.791   6.754 -0.5172 -0.3276  1.2920
   42MOL    C1147012   6.282   3.613   6.772 -0.1564  0.0898 -0.3486
   42MOL    O1247013   6.292   3.492   6.740  0.0885 -0.6922  0.2382
   42MOL    C1347014   6.396   3.678   6.852 -0.1433 -1.1486  0.4119
   42MOL    C1447015   6.538   3.612   6.843  0.5473  0.1140 -0.0520
   42MOL    C1547016   6.611   3.617   6.707  0.2599  0.1782 -0.0363
   42MOL    C1647017   6.744   3.539   6.715  0.1590 -0.4687 -0.6148
   42MOL    C1747018   6.823   3.502   6.582  0.2734 -0.5034  0.4837
   42MOL    C1847019   6.946   3.405   6.608  0.1368  0.4465  0.0024
   42MOL    C1947020   7.047   3.457   6.703 -0.2464  0.3675 -0.3571
   42MOL    C2047021   7.130   3.578   6.663  0.2744 -0.1451  0.0434
   42MOL    C2147022   7.243   3.615   6.761  0.5927 -0.2085  0.2333
   42MOL    C2247023   7.285   3.759   6.732 -0.5208 -0.6249  0.4069
   42MOL    C2347024   7.420   3.793   6.801 -0.0702  0.4081  0.2190
   42MOL    O2447025   7.525   3.797   6.734 -0.2604 -0.4330  0.6935
   42MOL    N2547026   7.416   3.823   6.938 -0.3416  0.6692  0.7944
   42MOL    C2647027   7.533   3.865   7.026  0.0592 -0.1104  0.4862
   42MOL    C2747028   7.540   3.774   7.152  0.0723  0.0917 -0.0659
   42MOL    C2847029   7.649   3.810   7.258  0.0415  0.0996  0.1132
   42MOL    C2947030   0.093   3.843   7.199 -0.3096 -0.1690 -0.2335
   42MOL    C3047031   0.202   3.875   7.308  0.1816  0.4687 -0.0078
   42MOL    C3147032   0.336   3.892   7.241  0.3138  0.5049  0.8907
   42MOL    N3247033   0.354   4.011   7.157 -0.2178 -0.6281  0.2253
   42MOL    H3347034   6.369   3.668   6.958 -0.5429 -0.6831  0.3518
   42MOL    H3447035   6.403   3.784   6.826  0.8237 -0.5468  2.9508
   42MOL    H3547036   6.541   3.511   6.884 -2.7048 -0.2233 -0.5302
   42MOL    H3647037   6.595   3.669   6.917 -0.8438  0.8559  0.4785
   42MOL    H3747038   6.633   3.722   6.688  0.1952  0.5933  2.0581
   42MOL    H3847039   6.550   3.583   6.623 -0.1401 -0.8616  0.6648
   42MOL    H3947040   6.803   3.598   6.785 -0.4858 -1.0724  0.4533
   42MOL    H4047041   6.724   3.444   6.766  1.3737 -0.1020  0.5966
   42MOL    H4147042   6.770   3.454   6.500  0.0981  0.1955  0.1780
   42MOL    H4247043   6.862   3.595   6.541  0.2688 -0.1828  1.1899
   42MOL    H4347044   6.909   3.307   6.637  0.0892  0.0089 -1.5087
   42MOL    H4447045   6.988   3.377   6.512 -1.4520 -1.8654 -0.0608
   42MOL    H4547046   7.003   3.483   6.800 -1.8701 -0.3188 -0.8982
   42MOL    H4647047   7.117   3.374   6.711  0.0410  0.5816 -0.6639
   42MOL    H4747048   7.167   3.552   6.563  0.3586 -1.5893  0.4375
   42MOL    H4847049   7.070   3.666   6.641  2.2251  1.0389 -0.7526
   42MOL    H4947050   7.327   3.551   6.736  1.5317  1.2109 -0.3064
   42MOL    H5047051   7.217   3.589   6.863  1.1400  0.2821  0.4962
   42MOL    H5147052   7.319   3.779   6.630  3.1810  1.6350  1.9931
   42MOL    H5247053   7.210   3.832   6.761 -0.5910 -0.9078  0.9520
   42MOL    H5347054   7.321   3.821   6.973 -0.6663  0.4345 -0.0772
   42MOL    H5447055   7.521   3.970   7.053  2.5007 -0.3958  2.8481
   42MOL    H5547056   7.627   3.871   6.972  0.2326  0.6333  0.8587
   42MOL    H5647057   7.565   3.671   7.126 -1.3442  0.2192 -2.0024
   42MOL    H5747058   7.439   3.763   7.194  0.6347  0.3095  1.3858
   42MOL    H5847059   7.642   3.731   7.332 -3.1767  0.1220 -0.1008
   42MOL    H5947060   7.622   3.900   7.314 -1.7140 -1.5592  1.9682
   42MOL    H6047061   0.080   3.920   7.123 -0.0891  0.0193 -0.0803
   42MOL    H6147062   0.131   3.762   7.136  4.5097  1.2555  0.6245
   42MOL    H6247063   0.210   3.789   7.375  0.9190  0.3759 -0.2114
   42MOL    H6347064   0.179   3.966   7.363 -0.0777 -0.4351  1.4272
   42MOL    H6447065   0.345   3.795   7.191 -1.4269  1.2304 -0.9071
   42MOL    H6547066   0.414   3.884   7.317  1.0217 -2.0852 -0.0422
   42MOL    H6647067   0.284   4.047   7.094  0.4210 -1.6542 -1.0794
   42MOL    C6747068   0.461   4.100   7.177 -0.0962  0.3397 -0.0681
   42MOL    O6847069   0.547   4.085   7.266  0.1157 -0.1130  0.1166
   42MOL    C6947070   0.458   4.219   7.089 -0.3115 -0.5531  0.8327
   42MOL    C7047071   0.584   4.297   7.122 -0.3014  0.1103  0.5503
   42MOL    C7147072   0.602   4.413   7.022  0.2719  0.2129  0.6538
   42MOL    C7247073   0.691   4.387   6.893 -0.0794  0.2276  1.0726
   42MOL    C7347074   0.698   4.512   6.794  0.8650 -0.1131 -0.0902
   42MOL    C7447075   0.784   4.624   6.859  0.2300  0.2733  0.2117
   42MOL    C7547076   0.788   4.740   6.763 -0.8429  0.2139 -0.0692
   42MOL    C7647077   0.663   4.827   6.782 -0.0853  0.5309 -0.2711
   42MOL    C7747078   0.658   4.965   6.716 -0.1988 -0.1454  0.5739
   42MOL    C7847079   0.513   5.021   6.726 -0.0088 -0.6571 -0.0004
   42MOL    C7947080   0.464   5.059   6.864 -0.3720  0.2786 -0.0588
   42MOL    O8047081   0.371   5.000   6.909  0.1044 -0.3879 -0.7720
   42MOL    N8147082   0.534   5.150   6.933  0.0856  0.2622 -0.4515
   42MOL    C8247083   0.514   5.179   7.073  0.3035 -0.0775 -0.9273
   42MOL    C8347084   0.647   5.223   7.137  0.6207  0.1488  0.8014
   42MOL    C8447085   0.632   5.258   7.284  0.0145  0.5735 -0.3637
   42MOL    C8547086   0.763   5.316   7.330 -0.2231  0.2120  0.0527
   42MOL    C8647087   0.763   5.365   7.472  0.2330  0.0718 -0.7314
   42MOL    C8747088   0.896   5.442   7.503 -0.0763  0.0481  0.1977
   42MOL    N8847089   0.920   5.473   7.637  0.1099  0.7046 -0.6291
   42MOL    H8947090   0.368   4.279   7.101 -0.5373 -0.3149 -1.6745
   42MOL    H9047091   0.469   4.171   6.992 -1.4517  0.6922  0.0621
   42MOL    H9147092   0.575   4.340   7.221  0.8003  0.3089  0.5692
   42MOL    H9247093   0.668   4.228   7.109  0.8543  1.6809 -0.5430
   42MOL    H9347094   0.503   4.448   6.992  0.0832 -1.6725 -1.0138
   42MOL    H9447095   0.637   4.507   7.066  2.3263  0.0768 -0.6289
   42MOL    H9547096   0.791   4.353   6.918 -0.0060  0.7023  1.4278
   42MOL    H9647097   0.636   4.308   6.841  2.0665  0.6489 -1.9006
   42MOL    H9747098   0.739   4.477   6.699  1.4838  2.6104 -0.8719
   42MOL    H9847099   0.596   4.543   6.775  0.6658 -2.2859 -3.0262
   42MOL    H9947100   0.735   4.662   6.948 -1.9761 -4.7035  1.3203
   42MOL   H10047101   0.882   4.589   6.892 -0.8083 -0.7868  2.2214
   42MOL   H10147102   0.797   4.700   6.662  0.7575 -0.3795  0.3033
   42MOL   H10247103   0.878   4.797   6.784 -0.3933 -0.3757 -0.3655
   42MOL   H10347104   0.572   4.768   6.771 -1.4727  2.6823 -0.6055
   42MOL   H10447105   0.658   4.850   6.888  0.3071  0.6812 -0.2840
   42MOL   H10547106   0.680   4.940   6.612 -0.5001  2.3762 -0.1276
   42MOL   H10647107   0.732   5.034   6.757  0.9905  1.0037 -3.3011
   42MOL   H10747108   0.496   5.095   6.648 -1.0217 -0.3340  0.5101
   42MOL   H10847109   0.444   4.945   6.689  0.4298 -0.3948 -1.3800
   42MOL   H10947110   0.595   5.216   6.887 -0.3642  1.0528  0.0827
   42MOL   H11047111   0.470   5.092   7.121  2.8724  0.4666  2.6683
   42MOL   H11147112   0.447   5.262   7.097 -0.4897 -0.1799 -2.6923
   42MOL   H11247113   0.685   5.309   7.082  0.4398 -0.8020 -0.8286
   42MOL   H11347114   0.705   5.132   7.125 -0.5310 -0.4092 -0.6883
   42MOL   H11447115   0.607   5.166   7.338 -0.8218  0.4543 -0.9393
   42MOL   H11547116   0.549   5.326   7.302  0.4076  1.1256 -0.6319
   42MOL   H11647117   0.841   5.241   7.326  0.6542  1.0789  0.6516
   42MOL   H11747118   0.810   5.387   7.262  1.4877  2.0159  3.0079
   42MOL   H11847119   0.671   5.420   7.490 -1.9013 -3.6014 -0.1030
   42MOL   H11947120   0.750   5.273   7.529 -1.0491  0.3953 -0.4777
   42MOL   H12047121   0.985   5.389   7.468  0.5569 -0.1864  2.1034
   42MOL   H12147122   0.899   5.539   7.454  1.5983 -0.3911 -0.5884
   42MOL   H12247123   0.936   5.388   7.690  1.3073  1.4555  0.2411
   42MOL   H12347124   0.841   5.519   7.680  1.8221  1.1758  2.1242
   43MOL     C147125   5.856   5.554   7.132 -0.2366  0.5721  0.9594
   43MOL     O247126   5.972   5.521   7.155  0.1905  0.0081 -0.0441
   43MOL     C347127   5.748   5.446   7.144  0.0419  0.2252 -0.2076
   43MOL     C447128   5.728   5.402   7.292  0.7315 -0.2296 -0.0138
   43MOL     C547129   5.721   5.513   7.403  0.5704 -0.2257 -0.8700
   43MOL     C647130   5.856   5.531   7.486 -0.2338  0.1990  0.0686
   43MOL     C747131   5.843   5.654   7.576 -0.0180 -0.2063 -0.3338
   43MOL     C847132   5.963   5.695   7.663  0.5888  0.0441  0.3858
   43MOL     C947133   5.938   5.824   0.062 -0.4546 -0.6466 -0.0565
   43MOL    C1047134   6.077   5.896   0.096  0.4910  0.2198 -0.2401
   43MOL    C1147135   6.055   6.044   0.136  0.5809 -0.1295  0.4397
   43MOL    C1247136   6.167   6.135   0.168  0.7182  0.7308 -0.2983
   43MOL    C1347137   6.253   6.179   0.052 -0.4136 -0.3479 -0.3270
   43MOL    O1447138   6.357   6.114   0.023 -0.3379  0.0620  0.4205
   43MOL    N1547139   6.216   6.285   7.672  0.4423 -0.4706  0.3770
   43MOL    C1647140   6.287   6.331   7.555  0.2115  0.1885  0.4705
   43MOL    C1747141   6.253   6.481   7.530 -0.4754  0.3417  0.0890
   43MOL    C1847142   6.319   6.544   7.402  0.2142 -0.1835  0.1146
   43MOL    C1947143   6.289   6.692   7.356 -1.0903 -0.6863  0.2819
   43MOL    C2047144   6.360   6.732   7.224  0.0006 -0.3325  0.8733
   43MOL    C2147145   6.383   6.883   7.208  0.6077  0.3369  0.6118
   43MOL    N2247146   6.464   6.908   7.087  0.9540 -0.7224 -0.1032
   43MOL    H2347147   5.779   5.363   7.080 -0.0073 -0.5437  0.7616
   43MOL    H2447148   5.663   5.493   7.094 -0.0499 -0.8925 -1.1276
   43MOL    H2547149   5.794   5.320   7.319  1.8608  0.7468  0.2275
   43MOL    H2647150   5.632   5.351   7.291  1.3401 -1.4232  1.2515
   43MOL    H2747151   5.652   5.477   7.479  0.7418 -0.2995 -0.7480
   43MOL    H2847152   5.696   5.610   7.361  0.2815  0.2290  0.3258
   43MOL    H2947153   5.869   5.437   7.540 -2.7356 -0.6921 -0.7662
   43MOL    H3047154   5.937   5.549   7.416 -0.7451 -1.4976 -0.9962
   43MOL    H3147155   5.754   5.637   7.637  1.1718  1.7239  1.9914
   43MOL    H3247156   5.811   5.739   7.516 -1.8683 -0.2800  0.5117
   43MOL    H3347157   6.009   5.614   0.026  0.6039 -0.3572 -0.2190
   43MOL    H3447158   6.045   5.724   7.596 -0.3069 -0.5755 -1.0102
   43MOL    H3547159   5.861   5.890   0.022  0.3972 -0.3992 -1.3232
   43MOL    H3647160   5.903   5.792   0.160  0.5884 -1.5699  0.0243
   43MOL    H3747161   6.134   5.840   0.169 -1.7272 -2.9478 -0.8504
   43MOL    H3847162   6.134   5.904   0.003 -0.5699 -0.5634 -0.9670
   43MOL    H3947163   5.985   6.057   0.219  1.8666 -0.6839  1.6236
   43MOL    H4047164   6.004   6.092   0.052  2.9176 -1.9360 -2.0839
   43MOL    H4147165   6.120   6.224   0.208  2.2948  1.9785 -1.1501
   43MOL    H4247166   6.229   6.086   0.243 -0.3482  0.2753  0.2972
   43MOL    H4347167   6.127   6.331   7.686  0.8465  0.6582 -0.6075
   43MOL    H4447168   6.246   6.274   7.472 -0.1766 -0.7524  1.3044
   43MOL    H4547169   6.393   6.309   7.559  0.0604 -1.3723 -2.4167
   43MOL    H4647170   6.297   6.534   7.614  0.0456  0.1557 -0.0630
   43MOL    H4747171   6.145   6.496   7.527 -0.6169 -0.3966  1.4922
   43MOL    H4847172   6.422   6.522   7.429 -0.1894 -1.3332  0.7171
   43MOL    H4947173   6.276   6.479   7.326 -3.8787  1.8934  0.4718
   43MOL    H5047174   6.321   6.753   7.440  0.9629 -1.7527  0.3162
   43MOL    H5147175   6.180   6.698   7.351 -1.1103 -0.2638  1.1187
   43MOL    H5247176   6.462   6.697   7.211  1.0722  2.9308 -0.0015
   43MOL    H5347177   6.315   6.682   7.139  1.0575  0.3761 -0.1051
   43MOL    H5447178   6.285   6.928   7.195 -0.0874 -0.6546  2.3053
   43MOL    H5547179   6.423   6.935   7.295 -1.1077  1.7717  0.5695
   43MOL    H5647180   6.436   6.847   7.012 -0.4971  0.0191 -0.1848
   43MOL    H5747181   5.823   5.653   7.101  4.0473  2.1136  1.0270
   43MOL    C5847182   6.552   7.007   7.076 -0.7889 -0.8799  0.4469
   43MOL    O5947183   6.593   7.062   7.175 -0.0364 -0.9991 -0.0049
   43MOL    C6047184   6.621   7.038   6.942 -0.4633 -0.5617 -0.0611
   43MOL    C6147185   6.776   7.035   6.946 -0.6873 -0.1651 -0.0637
   43MOL    C6247186   6.835   6.899   6.923 -0.2921  0.0559  0.9195
   43MOL    C6347187   6.986   6.890   6.921 -0.4261 -0.9374  0.0826
   43MOL    C6447188   7.053   6.932   7.050 -0.0363 -0.1514  0.3679
   43MOL    C6547189   7.198   6.903   7.065  0.3599  0.3317 -0.1293
   43MOL    C6647190   7.251   6.963   7.191 -0.2981  0.1270 -0.1671
   43MOL    C6747191   7.304   7.103   7.176 -0.2905 -0.6411  0.2681
   43MOL    C6847192   7.422   7.144   7.257 -0.5616  0.2788 -0.2691
   43MOL    C6947193   7.392   7.151   7.410  0.5284  0.0358  0.3745
   43MOL    C7047194   7.500   7.189   7.509  0.7339 -0.0309  0.5589
   43MOL    O7147195   7.590   7.267   7.478 -0.0677  0.2349  0.3590
   43MOL    N7247196   7.515   7.117   7.617 -0.5312  0.6495 -0.0666
   43MOL    C7347197   7.619   7.125   0.026 -0.8197 -0.0119  0.0056
   43MOL    C7447198   7.627   6.995   0.105  0.1078 -0.1607 -0.0348
   43MOL    C7547199   0.042   7.013   0.209  0.2596  0.0386  0.5465
   43MOL    C7647200   0.078   6.875   0.275  0.1721  0.4707 -0.1671
   43MOL    C7747201   0.213   6.891   0.344  0.5580 -0.6885  0.2036
   43MOL    C7847202   0.243   6.770   0.428  0.3057 -0.3476  1.0854
   43MOL    N7947203   0.345   6.788   0.532  0.0944  0.2648  0.1874
   43MOL    H8047204   6.588   7.140   6.922  1.6046 -0.3963 -2.9796
   43MOL    H8147205   6.583   6.972   6.863  0.9264 -0.8020 -0.5325
   43MOL    H8247206   6.811   7.095   6.862 -3.2823 -0.6304 -1.5404
   43MOL    H8347207   6.821   7.076   7.036  0.6617 -0.1308 -0.7430
   43MOL    H8447208   6.793   6.856   6.832 -0.3092 -1.1532  1.4848
   43MOL    H8547209   6.790   6.826   6.989  1.1639 -3.0108 -1.3208
   43MOL    H8647210   7.012   6.947   6.832  1.4521 -2.8260 -0.6321
   43MOL    H8747211   7.016   6.786   6.905 -3.2412 -1.7919  0.1344
   43MOL    H8847212   7.031   7.038   7.059 -0.5404 -0.1765 -0.4857
   43MOL    H8947213   7.001   6.887   7.136 -2.3014 -1.5517 -1.6534
   43MOL    H9047214   7.252   6.951   6.983  0.1181 -0.6921 -0.8920
   43MOL    H9147215   7.215   6.796   7.055  1.2066  0.5929 -1.6641
   43MOL    H9247216   7.335   6.895   7.207 -0.1197  0.1873 -0.8483
   43MOL    H9347217   7.176   6.953   7.269 -0.8894  0.5777 -0.6772
   43MOL    H9447218   7.342   7.120   7.076  0.4497  3.5168  1.1732
   43MOL    H9547219   7.218   7.170   7.176 -0.2033 -0.5076 -1.4218
   43MOL    H9647220   7.452   7.245   7.228  1.3032  0.3694  1.8072
   43MOL    H9747221   7.509   7.084   7.233  1.3049  3.3075 -1.2979
   43MOL    H9847222   7.313   7.225   7.426  0.7594  0.0867  1.2833
   43MOL    H9947223   7.345   7.060   7.447  2.7525 -1.2215  0.1839
   43MOL   H10047224   7.455   7.036   7.620 -0.5643  0.6459 -0.8884
   43MOL   H10147225   7.613   7.214   0.088  2.2008 -0.2840  0.7673
   43MOL   H10247226   0.017   7.146   7.659  1.1182  0.4554  3.0466
   43MOL   H10347227   7.534   6.960   0.150  1.1184 -1.6799  0.8678
   43MOL   H10447228   7.655   6.917   0.034  1.2496 -0.4168  0.6919
   43MOL   H10547229   0.019   7.093   0.280 -0.5279  1.5534 -1.3707
   43MOL   H10647230   0.128   7.054   0.157 -1.1055  2.2334 -0.0283
   43MOL   H10747231   7.688   6.857   0.345 -0.5428  1.5106 -0.7222
   43MOL   H10847232   0.074   6.789   0.208  1.5886 -0.0623  0.4174
   43MOL   H10947233   0.197   6.984   0.397 -1.2463  0.0413 -1.5596
   43MOL   H11047234   0.296   6.911   0.275  0.3695  0.5026  0.3203
   43MOL   H11147235   0.271   6.682   0.371 -1.1697  0.6912 -1.3272
   43MOL   H11247236   0.155   6.736   0.482 -0.5216  0.0739  0.0257
   43MOL   H11347237   0.430   6.738   0.508 -1.5361 -2.0145 -1.1302
   43MOL   C11447238   0.329   6.860   0.640 -0.8242 -0.6311 -0.5249
   43MOL   O11547239   0.228   6.929   0.659 -0.4674 -0.1190  0.0017
   43MOL   C11647240   0.439   6.850   0.739  0.2291 -0.6287  0.7647
   43MOL   C11747241   0.434   6.728   0.835  0.5412 -0.3912 -1.0392
   43MOL   C11847242   0.344   6.743   0.958 -0.0532 -0.0067  0.7353
   43MOL   C11947243   0.372   6.630   1.057  0.4451 -0.2299  0.0550
   43MOL   C12047244   0.290   6.644   1.187 -0.4119 -0.1097 -0.4278
   43MOL   C12147245   0.337   6.762   1.275  0.1802 -1.0387 -0.3684
   43MOL   C12247246   0.248   6.775   1.399 -0.1128 -0.2685  0.5504
   43MOL   C12347247   0.304   6.878   1.498 -0.2720  0.0759  0.0796
   43MOL   C12447248   0.232   6.879   1.631 -0.1239 -0.3134  0.5480
   43MOL   C12547249   0.274   7.003   1.714  0.2972  0.6575 -0.1806
   43MOL   C12647250   0.210   7.016   1.845  0.6805 -0.0245 -0.1848
   43MOL   O12747251   0.086   7.022   1.862  0.3873 -0.0704  0.0207
   43MOL   N12847252   0.291   7.019   1.946 -0.1324  0.0038 -0.2816
   43MOL   C12947253   0.253   7.029   2.088  0.0136  0.2442 -0.2189
   43MOL   C13047254   0.296   7.164   2.162 -0.2871  0.2232 -0.3204
   43MOL   C13147255   0.451   7.176   2.167 -0.1581 -0.4432 -1.2939
   43MOL   C13247256   0.503   7.296   2.243 -0.3126 -0.4461 -0.0602
   43MOL   C13347257   0.655   7.315   2.233  0.3572  0.2386  0.2583
   43MOL   C13447258   0.717   7.430   2.313 -0.4277 -0.7099  0.5556
   43MOL   N13547259   0.670   7.554   2.247  0.0161 -0.1216  0.1611
   43MOL   H13647260   0.532   6.844   0.683 -0.5915  0.1214 -0.7040
   43MOL   H13747261   0.443   6.944   0.794  1.1787  1.0798 -2.1094
   43MOL   H13847262   0.535   6.698   0.862  1.1532  2.3852 -0.0409
   43MOL   H13947263   0.398   6.644   0.776  0.2433 -1.1049  0.1506
   43MOL   H14047264   0.378   6.839   0.996 -3.1797  0.9566  1.2162
   43MOL   H14147265   0.237   6.745   0.936 -0.1392 -0.1792  1.1257
   43MOL   H14247266   0.372   6.529   1.017  0.9177 -0.3388  0.3165
   43MOL   H14347267   0.479   6.640   1.079  0.0862 -0.8098  2.2386
   43MOL   H14447268   0.186   6.650   1.157 -0.4915 -0.1719 -0.1724
   43MOL   H14547269   0.308   6.557   1.251 -0.2298 -0.4358 -0.9172
   43MOL   H14647270   0.350   6.854   1.219  1.3307 -0.2894  1.0904
   43MOL   H14747271   0.437   6.742   1.314  0.7357  0.0269 -1.2374
   43MOL   H14847272   0.154   6.800   1.350 -1.1993 -3.0222  1.1440
   43MOL   H14947273   0.232   6.677   1.445  1.7689 -0.5148  0.7309
   43MOL   H15047274   0.299   6.972   1.443 -0.6077  0.3559  0.5739
   43MOL   H15147275   0.408   6.856   1.523 -0.1881 -0.8237 -1.0607
   43MOL   H15247276   0.251   6.789   1.690 -1.3643 -0.1575  1.2056
   43MOL   H15347277   0.123   6.873   1.625 -0.2337  0.6692  1.3108
   43MOL   H15447278   0.252   7.094   1.659  1.0271  1.0951  0.2519
   43MOL   H15547279   0.383   6.998   1.723  0.1726 -1.2711  0.4857
   43MOL   H15647280   0.388   7.016   1.920 -0.1535 -0.7999 -0.2857
   43MOL   H15747281   0.313   6.955   2.140  0.3009  0.0954 -0.7654
   43MOL   H15847282   0.147   7.015   2.110 -0.0445 -2.5753 -2.0922
   43MOL   H15947283   0.247   7.175   2.259 -1.4086  0.8750 -0.9439
   43MOL   H16047284   0.255   7.240   2.096  0.4571  0.8651 -0.0533
   43MOL   H16147285   0.502   7.086   2.201 -1.5843 -1.3424 -1.4627
   43MOL   H16247286   0.474   7.185   2.061 -0.9641  0.4527 -1.3986
   43MOL   H16347287   0.459   7.383   2.195 -0.2582 -1.0912 -1.2963
   43MOL   H16447288   0.465   7.291   2.345 -2.5370 -0.6698 -0.8833
   43MOL   H16547289   0.687   7.327   2.129 -2.0344 -1.6899 -0.7192
   43MOL   H16647290   0.698   7.222   2.270  0.1748  0.4649  1.0494
   43MOL   H16747291   0.687   7.424   2.418 -1.7680 -0.9809  0.1615
   43MOL   H16847292   0.825   7.416   2.311 -0.3101  0.1697  0.3072
   43MOL   H16947293   0.696   7.569   2.150  0.1237  1.3383  0.4106
   43MOL   C17047294   0.586   7.646   2.301  0.7743  0.6209 -0.0151
   43MOL   O17147295   0.560   7.634   2.421 -0.1013  0.3872  0.6205
   43MOL   C17247296   0.536   0.073   2.217 -0.3517 -0.1542 -0.4068
   43MOL   C17347297   0.628   0.197   2.241  0.4342 -0.0692  0.4778
   43MOL   C17447298   0.773   0.183   2.220 -0.5815  0.7006  0.1843
   43MOL   C17547299   0.839   0.311   2.264 -0.4103  0.1834  1.3074
   43MOL   C17647300   0.989   0.310   2.221  0.0412 -0.3152  0.1055
   43MOL   C17747301   1.065   0.431   2.271  0.2159  0.7762 -0.2993
   43MOL   C17847302   1.208   0.432   2.225  0.0108  0.2427  0.4631
   43MOL   C17947303   1.290   0.552   2.267 -0.2194  0.3175  0.3121
   43MOL   C18047304   1.428   0.561   2.202 -0.5377  0.3022 -0.4653
   43MOL   C18147305   1.516   0.675   2.260 -0.1021  0.0916  0.2799
   43MOL   C18247306   1.667   0.640   2.270 -0.3209 -0.2467  0.4596
   43MOL   O18347307   1.712   0.534   2.321 -0.0719  0.0284 -0.0633
   43MOL   N18447308   1.753   0.726   2.215 -0.3717  1.1220  0.0980
   43MOL   C18547309   1.900   0.730   2.236  0.2145  0.1809 -0.2900
   43MOL   C18647310   1.975   0.680   2.111  0.3163 -0.7847  0.6061
   43MOL   C18747311   2.127   0.692   2.122 -0.4974  0.0848  0.6479
   43MOL   C18847312   2.185   0.835   2.145 -0.3292  0.2902 -0.6052
   43MOL   C18947313   2.167   0.922   2.014 -0.5130  0.0845 -0.9885
   43MOL   C19047314   2.241   1.055   2.018 -0.0036 -0.0162 -0.3103
   43MOL   N19147315   2.263   1.126   1.895 -0.1839  0.2410  0.3441
   43MOL   H19247316   0.533   0.030   2.117 -0.9171 -0.8658 -0.0836
   43MOL   H19347317   0.432   0.095   2.240 -0.0190  2.1841 -0.9932
   43MOL   H19447318   0.623   0.231   2.344  2.8063  2.0910 -0.0506
   43MOL   H19547319   0.596   0.281   2.179  0.9798  0.5769  1.0541
   43MOL   H19647320   0.786   0.173   2.113 -0.1870 -0.1862  0.3068
   43MOL   H19747321   0.820   0.095   2.264 -2.2975 -0.6285 -0.5987
   43MOL   H19847322   0.780   0.401   2.250 -0.0292  0.2646  0.1442
   43MOL   H19947323   0.845   0.296   2.371 -1.6521  1.7327  1.6039
   43MOL   H20047324   1.027   0.209   2.234 -0.7578 -0.7338 -0.7660
   43MOL   H20147325   1.001   0.320   2.113  1.1762 -0.0156  0.2512
   43MOL   H20247326   1.064   0.441   2.380 -1.9562  1.5943 -0.3921
   43MOL   H20347327   1.008   0.513   2.228  1.1972  0.6114 -1.9558
   43MOL   H20447328   1.262   0.349   2.270  0.7015  1.2318  1.4681
   43MOL   H20547329   1.225   0.413   2.118  1.2971  0.7178  0.5722
   43MOL   H20647330   1.232   0.640   2.237 -1.5457  0.4848  3.1953
   43MOL   H20747331   1.292   0.549   2.376 -1.8459 -1.0074  0.3247
   43MOL   H20847332   1.423   0.577   2.095 -1.2316 -1.9322 -0.7915
   43MOL   H20947333   1.494   0.475   2.212  0.4866  0.9690 -1.4071
   43MOL   H21047334   1.482   0.766   2.210  0.0699  0.6784  1.2112
   43MOL   H21147335   1.476   0.695   2.360 -2.1975  1.5034 -0.8100
   43MOL   H21247336   1.708   0.809   2.180 -2.5138 -0.4948 -1.0911
   43MOL   H21347337   1.929   0.666   2.319  2.7109  0.7545 -0.6465
   43MOL   H21447338   1.932   0.834   2.251  0.9092 -0.2661  1.3775
   43MOL   H21547339   1.950   0.575   2.096  0.4848 -0.5516 -1.4170
   43MOL   H21647340   1.946   0.727   2.018  0.9439  0.4072  1.0106
   43MOL   H21747341   2.150   0.633   2.211 -0.8393 -2.4612 -0.9359
   43MOL   H21847342   2.169   0.639   2.037  0.6657  1.1867  0.5081
   43MOL   H21947343   2.283   0.839   2.191 -0.9798 -0.3638  0.8645
   43MOL   H22047344   2.131   0.877   2.229 -1.3299 -0.2603 -0.9573
   43MOL   H22147345   2.065   0.952   1.991 -0.5195 -0.6652 -1.9670
   43MOL   H22247346   2.194   0.856   1.931 -2.1132 -1.4289 -0.3212
   43MOL   H22347347   2.340   1.040   2.061  0.3374 -0.2759 -1.1916
   43MOL   H22447348   2.192   1.115   2.095  0.9998  0.2028  0.1667
   43MOL   H22547349   2.352   1.123   1.847  0.6099 -1.4259  1.8577
   43MOL   C22647350   2.176   1.218   1.841 -0.1741  0.1678 -0.3711
   43MOL   O22747351   2.069   1.248   1.893  0.3390 -0.3088  0.1306
   43MOL   C22847352   2.216   1.281   1.707 -0.2487 -0.8858  0.1295
   43MOL   C22947353   2.149   1.415   1.682 -0.4519 -0.2597  0.3817
   43MOL   C23047354   2.196   1.525   1.780  0.2371 -0.7689  0.3272
   43MOL   C23147355   2.156   1.662   1.721  0.1218  0.6761  0.4334
   43MOL   C23247356   2.186   1.770   1.826  0.0025 -0.0374 -0.0318
   43MOL   C23347357   2.186   1.910   1.761 -0.1357 -0.4457 -0.5691
   43MOL   C23447358   2.175   2.023   1.865 -0.5535  0.3623  0.3907
   43MOL   C23547359   2.199   2.162   1.811  0.1469 -0.6683 -0.5269
   43MOL   C23647360   2.345   2.208   1.806  0.2095 -0.5207 -1.2698
   43MOL   C23747361   2.370   2.347   1.738  0.4001  0.2870 -0.5678
   43MOL   C23847362   2.428   2.335   1.598 -0.5478 -0.3644  0.8455
   43MOL   O23947363   2.494   2.426   1.552 -0.0206  0.1612 -0.1092
   43MOL   N24047364   2.398   2.225   1.526  0.0198 -0.1128  0.0234
   43MOL   C24147365   2.421   2.230   1.376  0.2238  0.5214 -0.3352
   43MOL   C24247366   2.420   2.091   1.302 -0.1208 -0.4203 -0.7442
   43MOL   C24347367   2.277   2.035   1.307  0.8339 -0.2665  0.4505
   43MOL   C24447368   2.269   1.880   1.293 -0.1328  0.1234 -0.4307
   43MOL   C24547369   2.187   1.832   1.169  0.2161 -0.0949 -0.1191
   43MOL   C24647370   2.190   1.680   1.150 -0.2275 -0.0032 -0.1389
   43MOL   N24747371   2.091   1.638   1.050 -0.2372 -0.0048 -0.4117
   43MOL   H24847372   2.179   1.211   1.632 -0.1363  1.5732 -2.2738
   43MOL   H24947373   2.321   1.288   1.681 -0.0589 -0.2038  1.0696
   43MOL   H25047374   2.164   1.437   1.576  1.5336 -0.1470  0.6644
   43MOL   H25147375   2.042   1.403   1.691 -0.5167  0.3949  0.5332
   43MOL   H25247376   2.145   1.503   1.874  0.5189 -1.2759  0.3622
   43MOL   H25347377   2.302   1.521   1.802  0.1723  0.4445  0.8632
   43MOL   H25447378   2.057   1.655   1.675 -0.0773 -0.5382  1.0444
   43MOL   H25547379   2.216   1.684   1.633 -1.0028  0.0279 -0.4986
   43MOL   H25647380   2.275   1.750   1.886 -0.1642  0.6162  0.4457
   43MOL   H25747381   2.104   1.747   1.895 -1.2388  0.7373 -1.2082
   43MOL   H25847382   2.279   1.929   1.708 -0.1478 -1.1777 -0.8547
   43MOL   H25947383   2.101   1.926   1.694  1.0582  2.3475 -1.4875
   43MOL   H26047384   2.255   2.020   1.939  1.1517  0.3930 -1.4014
   43MOL   H26147385   2.081   2.004   1.917 -0.5423  0.2395  0.3656
   43MOL   H26247386   2.147   2.161   1.715  0.4646  2.1678 -0.7684
   43MOL   H26347387   2.137   2.240   1.855  0.2397 -0.4012 -0.8786
   43MOL   H26447388   2.371   2.211   1.911  3.5066 -1.3512 -1.9887
   43MOL   H26547389   2.410   2.137   1.753 -0.8762 -0.5310 -2.6236
   43MOL   H26647390   2.277   2.403   1.726  0.0210  0.2279  1.8209
   43MOL   H26747391   2.436   2.410   1.798 -0.8193 -0.4605  1.6492
   43MOL   H26847392   2.338   2.150   1.557  0.4217  0.5133  2.4288
   43MOL   H26947393   2.512   2.283   1.349  0.0059  0.7668 -0.6028
   43MOL   H27047394   2.339   2.296   1.344  0.5114  0.1612 -1.8580
   43MOL   H27147395   2.492   2.030   1.357 -0.3898  1.0931  1.3882
   43MOL   H27247396   2.454   2.101   1.199 -1.1458  0.3570 -1.0165
   43MOL   H27347397   2.231   2.064   1.401  1.1787  0.0233  0.5308
   43MOL   H27447398   2.213   2.084   1.233  0.5460 -1.0561  0.1787
   43MOL   H27547399   2.226   1.853   1.389 -2.1951 -3.5822 -2.2400
   43MOL   H27647400   2.371   1.840   1.288 -0.4074 -0.6404  0.0139
   43MOL   H27747401   2.232   1.873   1.079  0.2893  0.0630 -0.0103
   43MOL   H27847402   2.086   1.873   1.175  0.5745  0.8509 -0.4352
   43MOL   H27947403   2.168   1.634   1.246 -0.6504 -2.2021 -1.2707
   43MOL   H28047404   2.295   1.652   1.141  0.1539  0.6901  1.8287
   43MOL   H28147405   2.006   1.692   1.054 -0.4913 -0.4783  0.6242
   43MOL   C28247406   2.105   1.527   0.978  0.1163  0.1260  0.3754
   43MOL   O28347407   2.205   1.454   0.986 -0.6533  0.2835  0.5841
   43MOL   C28447408   1.985   1.479   0.890 -0.0168  0.1850 -0.7289
   43MOL   C28547409   2.011   1.446   0.741 -0.0819 -0.6688 -0.1294
   43MOL   C28647410   2.076   1.558   0.653  0.4818  0.1944 -0.2774
   43MOL   C28747411   2.009   1.702   0.655  0.6136 -0.1326  0.1129
   43MOL   C28847412   2.080   1.792   0.554  0.0177  0.6185 -0.7837
   43MOL   C28947413   2.059   1.938   0.579  0.4996  1.0924 -0.2928
   43MOL   C29047414   2.140   2.025   0.493 -0.9716 -0.5460  0.5006
   43MOL   C29147415   2.104   2.170   0.496  0.6581  0.1284  0.7753
   43MOL   C29247416   2.208   2.263   0.431  0.0805  0.6384 -0.9345
   43MOL   C29347417   2.353   2.252   0.500  0.1330 -0.0241  0.2733
   43MOL   C29447418   2.443   2.372   0.465  0.1547  0.4369 -1.3369
   43MOL   O29547419   2.436   2.441   0.365 -0.5214 -0.0100  0.2264
   43MOL   N29647420   2.533   2.399   0.562 -0.1657 -0.0031  0.4746
   43MOL   C29747421   2.623   2.516   0.562  0.3365  0.7816 -0.2789
   43MOL   C29847422   2.567   2.648   0.614 -0.7331 -0.6394  0.1412
   43MOL   C29947423   2.671   2.764   0.611 -0.5287  1.2751 -0.0845
   43MOL   C30047424   2.616   2.898   0.663  0.6428 -0.9480 -0.2211
   43MOL   C30147425   2.523   2.976   0.562  0.3696  0.0478 -0.2331
   43MOL   C30247426   2.506   3.123   0.591 -0.1600 -1.1832 -0.0246
   43MOL   N30347427   2.404   3.185   0.504 -0.1335 -0.1907 -0.1742
   43MOL   H30447428   1.930   1.395   0.934  1.6700  0.1462  1.4131
   43MOL   H30547429   1.910   1.557   0.895  0.9077  1.0163  0.5001
   43MOL   H30647430   1.916   1.410   0.702 -1.1991  0.6077  1.3660
   43MOL   H30747431   2.071   1.354   0.739 -0.1636 -0.7574  1.1274
   43MOL   H30847432   2.180   1.573   0.679  1.0503 -2.3257 -0.9311
   43MOL   H30947433   2.083   1.518   0.551  1.5213 -1.8627  0.5675
   43MOL   H31047434   2.010   1.752   0.751 -1.5478 -0.3915  0.2864
   43MOL   H31147435   1.905   1.693   0.626  0.7664  0.2652 -0.5861
   43MOL   H31247436   2.186   1.770   0.557 -0.0001  0.5195 -0.8523
   43MOL   H31347437   2.042   1.764   0.456 -0.1946  0.7225 -0.7324
   43MOL   H31447438   1.951   1.950   0.568 -0.0548  0.1239  3.2783
   43MOL   H31547439   2.071   1.968   0.683 -2.0988 -3.1577  1.4015
   43MOL   H31647440   2.127   1.987   0.392 -0.4617  0.1675  0.1618
   43MOL   H31747441   2.246   2.007   0.514  0.3140  2.6335 -2.7043
   43MOL   H31847442   2.098   2.219   0.593 -2.3558  0.9288  0.2305
   43MOL   H31947443   1.999   2.166   0.468  1.4678 -0.2678 -2.3652
   43MOL   H32047444   2.227   2.234   0.328  2.0060  0.7220 -0.6360
   43MOL   H32147445   2.172   2.365   0.438 -2.4088 -0.2398 -0.4542
   43MOL   H32247446   2.346   2.241   0.608 -1.3365 -1.0306  0.0921
   43MOL   H32347447   2.401   2.161   0.464  0.5685 -0.3415  1.6476
   43MOL   H32447448   2.529   2.348   0.649  1.3879 -0.4008  0.3172
   43MOL   H32547449   2.670   2.540   0.467  2.0451 -1.1164  0.0500
   43MOL   H32647450   2.706   2.505   0.632  0.3478  0.9176 -0.2708
   43MOL   H32747451   2.523   2.636   0.713  2.0458 -1.4655  1.3189
   43MOL   H32847452   2.481   2.675   0.553 -0.8650 -3.6858 -1.1022
   43MOL   H32947453   2.711   2.786   0.512  4.0998  1.5157  1.7301
   43MOL   H33047454   2.766   2.741   0.659  1.1512 -0.4022 -3.9914
   43MOL   H33147455   2.570   2.883   0.760  1.2675 -2.6674 -0.1908
   43MOL   H33247456   2.697   2.971   0.670  0.0872 -0.3323 -0.0825
   43MOL   H33347457   2.428   2.924   0.574  0.3813  0.2403  0.7635
   43MOL   H33447458   2.549   2.969   0.457  0.7110  0.0617 -0.1492
   43MOL   H33547459   2.489   3.137   0.697  0.0913 -1.6852  0.0815
   43MOL   H33647460   2.597   3.180   0.571 -1.6583  1.3285  0.0652
   43MOL   H33747461   2.329   3.122   0.478  1.3288 -1.0409 -2.5560
   43MOL   C33847462   2.420   3.290   0.416 -0.6247 -0.0959 -0.1602
   43MOL   O33947463   2.517   3.366   0.418 -0.0802  0.5079  0.2930
   43MOL   C34047464   2.319   3.304   0.303  0.0972  0.9590  0.8505
   43MOL   C34147465   2.368   3.221   0.178  0.3614  0.1807  0.4549
   43MOL   C34247466   2.267   3.246   0.060  0.5562  0.4236  0.3684
   43MOL   C34347467   2.289   3.153   7.636  0.3616  0.1973  0.6836
   43MOL   C34447468   2.173   3.155   7.532  0.8006  0.3528  0.0529
   43MOL   C34547469   2.174   3.048   7.425  0.5035 -1.0247 -1.2014
   43MOL   C34647470   2.038   3.002   7.374  0.4493 -0.5575 -0.2261
   43MOL   C34747471   2.060   2.911   7.253 -0.2431 -0.3489  0.2109
   43MOL   C34847472   2.057   2.760   7.279  0.8451  0.0138 -0.6425
   43MOL   C34947473   2.130   2.672   7.173  0.6724  0.0973 -0.4241
   43MOL   C35047474   2.058   2.669   7.033 -0.2710 -0.2233  0.0027
   43MOL   O35147475   1.950   2.615   7.019  0.5559  0.2349  0.4707
   43MOL   N35247476   2.123   2.725   6.929 -0.1919  0.5279 -0.3364
   43MOL   C35347477   2.078   2.775   6.801  0.5400  0.1282 -0.4389
   43MOL   C35447478   2.113   2.918   6.771 -0.0884 -0.5051 -1.1067
   43MOL   C35547479   2.054   3.011   6.882 -0.5226 -0.1801  0.3373
   43MOL   C35647480   2.082   3.157   6.850 -0.4514 -0.0305  0.8397
   43MOL   C35747481   2.230   3.187   6.876 -0.1343  1.1038 -0.6155
   43MOL   C35847482   2.269   3.330   6.917  0.2800  0.1829  0.3751
   43MOL   N35947483   2.296   3.414   6.800 -0.1756 -0.2869  0.3245
   43MOL   H36047484   2.310   3.407   0.268  0.0602 -0.3070 -3.1072
   43MOL   H36147485   2.220   3.271   0.333  0.0316 -3.5271 -3.5593
   43MOL   H36247486   2.467   3.254   0.148  0.1426  0.7202  0.3313
   43MOL   H36347487   2.366   3.114   0.202 -0.4916 -0.5975 -2.8434
   43MOL   H36447488   2.269   3.354   0.043 -0.7362 -0.0328 -3.1032
   43MOL   H36547489   2.161   3.249   0.087  0.3883  3.7131 -0.4104
   43MOL   H36647490   2.383   3.185   7.592 -0.0789 -0.1026 -0.5126
   43MOL   H36747491   2.298   3.052   7.675  1.0893  0.6346  1.6377
   43MOL   H36847492   2.079   3.137   7.583  1.9244  2.1321  2.8572
   43MOL   H36947493   2.175   3.251   7.480  0.2841  0.0033 -0.6089
   43MOL   H37047494   2.231   3.085   7.340  0.9463  1.4912  0.1577
   43MOL   H37147495   2.225   2.961   7.467 -1.0021 -0.7656  1.3105
   43MOL   H37247496   1.967   2.964   7.447  1.4142 -2.1619 -0.1111
   43MOL   H37347497   1.989   3.093   7.341  1.0910  0.2741  1.0718
   43MOL   H37447498   1.986   2.925   7.174  0.2503  1.1593 -0.0015
   43MOL   H37547499   2.148   2.944   7.197 -0.6548 -1.0017 -0.8291
   43MOL   H37647500   1.957   2.722   7.298  0.7771  0.9018  0.8657
   43MOL   H37747501   2.108   2.737   7.373 -1.0436  1.2941  0.7161
   43MOL   H37847502   2.233   2.706   7.162  0.7686  0.2534  0.8795
   43MOL   H37947503   2.142   2.566   7.197  2.3982  0.5691  0.8667
   43MOL   H38047504   2.223   2.728   6.942 -0.1540 -0.3672 -0.3860
   43MOL   H38147505   1.971   2.762   6.782  0.1274  0.4053  1.5590
   43MOL   H38247506   2.136   2.725   6.724  0.1550  1.8054 -1.8633
   43MOL   H38347507   2.069   2.945   6.675  0.1766 -1.5317 -1.5257
   43MOL   H38447508   2.221   2.930   6.762 -0.4345  2.3079 -2.0955
   43MOL   H38547509   1.952   2.982   6.906 -0.7556  0.4704  0.1266
   43MOL   H38647510   2.102   2.988   6.978 -0.1764  1.9124  0.6784
   43MOL   H38747511   2.072   3.179   6.744  0.6727  0.7953  0.8927
   43MOL   H38847512   2.015   3.226   6.901  0.0804  0.4660  0.8758
   43MOL   H38947513   2.294   3.158   6.793  1.1037  0.4103  0.5581
   43MOL   H39047514   2.282   3.129   6.953  1.5867  1.3574 -1.5520
   43MOL   H39147515   2.195   3.376   6.982  1.6312  0.5932  1.6521
   43MOL   H39247516   2.358   3.335   6.979  1.5618  1.2692 -1.4956
   43MOL   H39347517   2.382   3.403   6.748 -0.7615  1.1519 -0.9950
   43MOL   C39447518   2.222   3.513   6.763  0.4661 -0.5866 -0.3060
   43MOL   O39547519   2.111   3.541   6.815 -0.2312 -0.0111 -0.1707
   43MOL   C39647520   2.269   3.590   6.646 -0.2415 -0.1151  0.2914
   43MOL   C39747521   2.188   3.568   6.511  0.0193 -0.3551  0.0543
   43MOL   C39847522   2.186   3.422   6.453  0.1599 -0.1877  0.7001
   43MOL   C39947523   2.167   3.407   6.299 -0.5734  0.5778 -0.5788
   43MOL   C40047524   2.195   3.273   6.233 -0.0332  0.2408  0.4962
   43MOL   C40147525   2.132   3.146   6.290  0.6928 -0.2705 -0.5287
   43MOL   C40247526   1.975   3.151   6.293 -0.1141 -0.3785 -0.2127
   43MOL   C40347527   1.911   3.028   6.355 -0.1802  0.0590  0.2175
   43MOL   C40447528   1.943   2.898   6.273 -0.5526  0.3850  0.1710
   43MOL   C40547529   1.881   2.764   6.334  0.0438  0.5711 -0.5992
   43MOL   C40647530   1.974   2.655   6.391  0.4840  0.5536  0.3742
   43MOL   O40747531   2.093   2.671   6.411  0.1265 -0.8186 -0.0774
   43MOL   N40847532   1.906   2.543   6.420 -0.4592  0.5854  0.1918
   43MOL   C40947533   1.959   2.436   6.484  0.6393  0.0092  0.3513
   43MOL   C41047534   1.975   2.453   6.637 -0.1079  0.0470  0.1709
   43MOL   C41147535   2.057   2.344   6.690  0.4815  0.2727 -0.5225
   43MOL   C41247536   2.067   2.348   6.839 -0.6276 -0.2447 -0.2759
   43MOL   C41347537   2.159   2.235   6.905 -0.0488 -0.5144 -0.0074
   43MOL   C41447538   2.138   2.212   7.051 -0.1107  0.3036 -0.2402
   43MOL   N41547539   2.031   2.124   7.084  0.2560  0.5616  1.1249
   43MOL   H41647540   2.374   3.579   6.618  0.1809 -1.2294  2.2487
   43MOL   H41747541   2.254   3.691   6.685 -0.2042  0.6458 -1.6020
   43MOL   H41847542   2.237   3.632   6.438 -0.0168  1.2253  1.4114
   43MOL   H41947543   2.086   3.606   6.517 -0.2696 -1.1432  0.1973
   43MOL   H42047544   2.116   3.353   6.501 -1.2494 -1.8577 -3.4857
   43MOL   H42147545   2.282   3.384   6.488  0.9683  0.8790 -0.3263
   43MOL   H42247546   2.233   3.480   6.253  2.9721 -1.2125  1.4521
   43MOL   H42347547   2.068   3.439   6.266 -0.2612  1.8643 -0.3100
   43MOL   H42447548   2.176   3.279   6.126  3.0858  1.2893 -0.0583
   43MOL   H42547549   2.300   3.246   6.246  0.1886  0.4176 -0.8348
   43MOL   H42647550   2.165   3.053   6.244  2.3197 -0.4557  0.9696
   43MOL   H42747551   2.186   3.143   6.385  0.4186  0.5773 -0.3389
   43MOL   H42847552   1.962   3.242   6.352 -0.1530 -1.0247  0.7912
   43MOL   H42947553   1.941   3.168   6.191 -0.1669  1.5764  0.1263
   43MOL   H43047554   1.963   3.011   6.449  0.4961  1.8480  0.2035
   43MOL   H43147555   1.804   3.033   6.372 -0.4623 -0.2084 -1.3851
   43MOL   H43247556   2.051   2.888   6.267 -0.4655  0.7693  1.0283
   43MOL   H43347557   1.911   2.913   6.170 -1.1118  0.5239  0.3594
   43MOL   H43447558   1.828   2.776   6.429  0.5401  0.1695 -0.2669
   43MOL   H43547559   1.797   2.723   6.277 -1.0009 -1.2205  2.1007
   43MOL   H43647560   1.815   2.530   6.379 -0.0792  0.1548 -0.5443
   43MOL   H43747561   2.057   2.420   6.438  0.3320 -2.5601  0.5290
   43MOL   H43847562   1.899   2.347   6.464 -1.3944  1.0715  1.6481
   43MOL   H43947563   1.876   2.464   6.682  0.3181 -2.8746  1.9201
   43MOL   H44047564   2.025   2.547   6.657 -0.0911  0.7582 -2.9485
   43MOL   H44147565   2.013   2.248   6.662 -0.1996  0.3074  0.4309
   43MOL   H44247566   2.155   2.336   6.642  0.7472 -3.6421  0.4670
   43MOL   H44347567   2.098   2.446   6.877 -1.6924 -0.3476  0.8565
   43MOL   H44447568   1.966   2.356   6.877 -0.2524  1.5141  0.4165
   43MOL   H44547569   2.146   2.145   6.845  1.1117 -0.4073 -0.4162
   43MOL   H44647570   2.265   2.259   6.899  0.2923 -1.2043  2.6453
   43MOL   H44747571   2.232   2.171   7.089 -0.0843  0.0486 -0.5766
   43MOL   H44847572   2.119   2.310   7.095  2.3007  0.0924  1.4046
   43MOL   H44947573   1.949   2.141   7.027  0.1434 -0.7356  0.8890
   43MOL   C45047574   2.042   2.015   7.165 -0.3445  0.4902 -0.0814
   43MOL   O45147575   2.138   1.990   7.232 -0.0387  0.3190  0.1487
   43MOL   C45247576   1.923   1.910   7.165  0.8620  0.3467  0.4811
   43MOL   C45347577   1.860   1.890   7.303 -0.4366  0.8333 -0.1168
   43MOL   C45447578   1.718   1.845   7.293  0.7403 -0.0534 -0.4896
   43MOL   C45547579   1.612   1.959   7.265  0.0658 -0.5764 -0.5433
   43MOL   C45647580   1.463   1.902   7.253 -0.0038 -0.0956  0.1420
   43MOL   C45747581   1.451   1.811   7.128 -0.3337 -0.1665 -0.7425
   43MOL   C45847582   1.315   1.751   7.122  0.3209  0.6981  0.1809
   43MOL   C45947583   1.307   1.638   7.011  0.0453 -0.3655 -0.0314
   43MOL   C46047584   1.191   1.541   7.025  0.7982  0.2959  0.0094
   43MOL   C46147585   1.211   1.422   6.934  0.7031 -0.2632  0.4161
   43MOL   C46247586   1.092   1.315   6.940 -0.2383  0.4696  0.3624
   43MOL   O46347587   1.034   1.299   7.048 -0.5568 -1.0209 -0.4195
   43MOL   N46447588   1.065   1.251   6.830 -0.3467  0.2672  0.1295
   43MOL   C46547589   0.964   1.142   6.817  0.6327 -0.2767  0.0516
   43MOL   C46647590   0.964   1.080   6.674 -0.4543  0.3514  0.9427
   43MOL   C46747591   1.045   0.942   6.685 -0.0646  0.7518  0.3710
   43MOL   C46847592   1.195   0.956   6.715  1.2041 -1.2036  0.4789
   43MOL   C46947593   1.263   0.821   6.709  0.1573  0.6411  0.0422
   43MOL   C47047594   1.398   0.814   6.784  0.1748 -0.0685  0.6290
   43MOL   N47147595   1.471   0.699   6.740  0.2577 -0.1260 -0.0273
   43MOL   H47247596   1.854   1.958   7.096  0.5409 -2.9631 -1.5765
   43MOL   H47347597   1.956   1.818   7.117  0.9914  0.5100  0.2568
   43MOL   H47447598   1.848   1.987   7.351  1.9715  0.8650  0.4945
   43MOL   H47547599   1.912   1.825   7.373 -0.5251 -0.9668 -1.6822
   43MOL   H47647600   1.696   1.803   7.391 -1.0962 -1.8830 -1.6335
   43MOL   H47747601   1.708   1.762   7.223 -2.1290  0.3850 -0.6422
   43MOL   H47847602   1.648   2.015   7.178 -0.2371  1.4623  0.6169
   43MOL   H47947603   1.619   2.032   7.346  2.1919 -0.6894 -0.6141
   43MOL   H48047604   1.400   1.989   7.238 -0.6298 -0.2366  1.8771
   43MOL   H48147605   1.424   1.839   7.332 -3.1662 -0.2286 -1.4394
   43MOL   H48247606   1.526   1.732   7.120  0.7547  0.7769 -0.0705
   43MOL   H48347607   1.470   1.857   7.031 -1.9952 -1.9067 -1.9170
   43MOL   H48447608   1.289   1.706   7.217 -0.4540 -2.1529 -1.3187
   43MOL   H48547609   1.245   1.830   7.093  0.8848  1.3002  0.4486
   43MOL   H48647610   1.308   1.693   6.917  2.2504 -0.3593 -0.0166
   43MOL   H48747611   1.399   1.580   7.004 -0.1468 -0.4791 -1.8288
   43MOL   H48847612   1.101   1.592   6.992  0.6029 -0.3533 -0.4578
   43MOL   H48947613   1.156   1.518   7.125  0.8813 -0.8174 -0.2156
   43MOL   H49047614   1.227   1.456   6.831  1.4443 -1.5690  0.0918
   43MOL   H49147615   1.300   1.370   6.969  0.9585  0.7577  1.3214
   43MOL   H49247616   1.134   1.265   6.757 -0.6581 -0.1711 -0.2507
   43MOL   H49347617   0.864   1.175   6.848  0.0552 -0.5260 -1.4898
   43MOL   H49447618   0.993   1.072   6.895 -0.0534  0.3087  0.8442
   43MOL   H49547619   0.864   1.053   6.641 -0.6342  2.6442 -0.4929
   43MOL   H49647620   0.986   1.156   6.599 -0.1632 -0.4648  0.1880
   43MOL   H49747621   1.041   0.895   6.587  1.1646  4.3199 -1.4691
   43MOL   H49847622   1.009   0.875   6.763 -0.5293 -0.8536 -1.1844
   43MOL   H49947623   1.194   0.998   6.815 -0.4349 -0.2402  0.0763
   43MOL   H50047624   1.236   1.034   6.651  0.9023 -1.5835 -0.1800
   43MOL   H50147625   1.198   0.750   6.762  1.7237  0.1275  1.3013
   43MOL   H50247626   1.271   0.777   6.610  1.1709 -1.0576  0.8388
   43MOL   H50347627   1.457   0.898   6.746  1.7160 -2.8275 -3.4412
   43MOL   H50447628   1.394   0.828   6.892  2.2967  1.2520  0.5646
   43MOL   H50547629   1.415   0.620   6.709 -1.3623  1.2318 -0.6439
   43MOL   C50647630   1.598   0.693   6.701 -0.3246  0.3732 -0.4124
   43MOL   O50747631   1.682   0.775   6.724 -0.2051  0.2685  0.5544
   43MOL   C50847632   1.626   0.572   6.606  0.6057  0.0239 -0.4701
   43MOL   C50947633   1.745   0.587   6.506 -0.1861  0.1522 -0.4283
   43MOL   C51047634   1.748   0.492   6.396  0.2330 -0.7075 -0.1494
   43MOL   C51147635   1.863   0.528   6.300 -0.3933  0.0657 -0.6604
   43MOL   C51247636   1.862   0.433   6.182 -0.8961  0.6522  0.2929
   43MOL   C51347637   1.978   0.455   6.079 -0.2911  0.2792  1.2106
   43MOL   C51447638   1.951   0.573   5.977  0.0147 -0.5974  0.5108
   43MOL   C51547639   2.076   0.642   5.920 -0.0400 -0.0873 -0.1391
   43MOL   C51647640   2.042   0.721   5.795 -0.0363  0.2659  0.1828
   43MOL   C51747641   2.166   0.797   5.743  0.2510 -0.6672  0.5747
   43MOL   C51847642   2.260   0.721   5.645  0.0563 -0.8748 -0.1746
   43MOL   O51947643   2.241   0.610   5.600  0.0668  0.6586  0.2432
   43MOL   N52047644   2.373   0.787   5.605 -0.2194 -0.1389  0.2051
   43MOL   C52147645   2.455   0.738   5.494  0.6281 -0.2279  0.5051
   43MOL   C52247646   2.411   0.797   5.361  0.6299 -0.1215 -0.0758
   43MOL   C52347647   2.519   0.788   5.251  0.2894 -0.1607  0.5553
   43MOL   C52447648   2.459   0.848   5.124 -0.0642  0.0622  0.0147
   43MOL   C52547649   2.559   0.883   5.009 -0.4128 -0.6367  0.0302
   43MOL   C52647650   2.493   0.973   4.904  0.2887 -0.3529 -0.7273
   43MOL   N52747651   2.593   1.026   4.805  0.2774 -0.0003 -0.3984
   43MOL   H52847652   1.553   0.545   6.529  0.3637  3.9117 -1.7219
   43MOL   H52947653   1.633   0.479   6.663 -1.8313  0.8042  1.1367
   43MOL   H53047654   1.843   0.586   6.552 -0.8453 -1.0290  0.9869
   43MOL   H53147655   1.744   0.685   6.458 -2.3490 -0.6040 -2.0244
   43MOL   H53247656   1.652   0.497   6.344  0.4278  0.8137 -0.3886
   43MOL   H53347657   1.749   0.393   6.442 -0.6957  0.0801  1.5919
   43MOL   H53447658   1.852   0.635   6.282  0.7511  0.3161  0.0646
   43MOL   H53547659   1.956   0.509   6.354 -1.2004  0.8930  1.0264
   43MOL   H53647660   1.871   0.329   6.211  2.2086  0.6468 -0.5196
   43MOL   H53747661   1.768   0.441   6.127  1.4252  2.0079 -3.6083
   43MOL   H53847662   2.072   0.470   6.132  1.6457 -1.5641 -1.5713
   43MOL   H53947663   1.996   0.371   6.012 -1.5053  2.9507 -2.6440
   43MOL   H54047664   1.898   0.528   5.893 -0.3990  0.4567  0.1937
   43MOL   H54147665   1.870   0.636   6.016 -1.0521 -0.6367 -1.5543
   43MOL   H54247666   2.120   0.711   5.991 -2.4479  2.0050 -0.5872
   43MOL   H54347667   2.149   0.563   5.902  0.0966  0.2450 -1.0868
   43MOL   H54447668   1.966   0.796   5.815  0.2759  1.6281 -3.4531
   43MOL   H54547669   1.990   0.667   5.716  2.9539  0.9676 -2.3628
   43MOL   H54647670   2.130   0.885   5.690  3.1565  1.1184  1.4613
   43MOL   H54747671   2.239   0.836   5.814  0.3615  0.3863 -0.1064
   43MOL   H54847672   2.406   0.872   5.647  1.7569 -1.1836  0.8402
   43MOL   H54947673   2.455   0.629   5.489  2.0994 -0.1900 -0.5106
   43MOL   H55047674   2.557   0.766   5.517 -0.1135  2.9466  0.2291
   43MOL   H55147675   2.400   0.904   5.375 -1.2157 -0.4477  1.2220
   43MOL   H55247676   2.310   0.762   5.339  0.0852  0.3429  1.6472
   43MOL   H55347677   2.545   0.683   5.238 -0.4831 -0.3041  0.1400
   43MOL   H55447678   2.604   0.853   5.272  0.5072  0.1244 -1.1090
   43MOL   H55547679   2.409   0.938   5.158  1.8573  1.3657 -0.5103
   43MOL   H55647680   2.382   0.781   5.086 -0.1060  0.4232 -0.5379
   43MOL   H55747681   2.651   0.917   5.056 -1.3324 -0.9925  2.1473
   43MOL   H55847682   2.590   0.787   4.969  3.7543  0.5712  0.1637
   43MOL   H55947683   2.407   0.929   4.853  0.7074 -0.0703 -1.6949
   43MOL   H56047684   2.452   1.060   4.955 -2.2227 -2.2370  0.6022
   43MOL   H56147685   2.625   1.121   4.807  0.4914 -0.0806  0.3073
   43MOL   C56247686   2.646   0.954   4.707  0.5445 -0.2152  0.4122
   43MOL   O56347687   2.620   0.833   4.687 -0.1987 -0.1221  0.1107
   43MOL   C56447688   2.752   1.026   4.615  0.1781  0.2988  0.1388
   43MOL   C56547689   2.780   0.954   4.475  0.2424  0.5311 -0.6151
   43MOL   C56647690   2.798   1.046   4.356 -1.0353 -0.3451 -0.5284
   43MOL   C56747691   2.813   0.965   4.224  0.3522  0.3475 -0.4740
   43MOL   C56847692   2.874   1.041   4.099  0.7101  0.2655  0.1899
   43MOL   C56947693   2.782   1.153   4.048  0.1375  0.2786 -0.4539
   43MOL   C57047694   2.655   1.108   3.975  0.7371  0.4864  0.4767
   43MOL   C57147695   2.552   1.208   3.936  0.5241 -0.0310 -0.6352
   43MOL   C57247696   2.478   1.276   4.059  0.1056  0.9347  0.0732
   43MOL   C57347697   2.360   1.360   4.020 -0.7227  0.0993  0.4024
   43MOL   C57447698   2.403   1.495   3.961  0.0165  0.0397  0.1150
   43MOL   O57547699   2.427   1.512   3.840 -0.4139 -0.3340  0.1241
   43MOL   N57647700   2.414   1.597   4.048  0.0948 -0.6387 -0.2518
   43MOL   C57747701   2.444   1.732   4.007  0.1959 -0.0395 -0.3045
   43MOL   C57847702   2.432   1.816   4.130  0.0581 -0.0828  0.0071
   43MOL   C57947703   2.432   1.964   4.088 -0.2914  0.2891 -0.5054
   43MOL   C58047704   2.574   2.010   4.037  0.5743 -0.2047  0.1037
   43MOL   C58147705   2.576   2.166   4.026 -0.6120  0.4799  0.0854
   43MOL   C58247706   2.704   2.225   3.958 -0.2047  0.3527 -0.0435
   43MOL   N58347707   2.721   2.170   3.820 -0.3570 -0.5709  1.1305
   43MOL   H58447708   2.708   1.123   4.591 -2.3645 -0.8737 -0.0661
   43MOL   H58547709   2.843   1.031   4.674  0.3858 -3.0791  0.2334
   43MOL   H58647710   2.858   0.878   4.479 -0.5041 -0.1919  0.5297
   43MOL   H58747711   2.691   0.894   4.456  1.3864 -1.3554 -0.1077
   43MOL   H58847712   2.896   1.091   4.371 -0.6508 -1.0995 -0.7459
   43MOL   H58947713   2.717   1.119   4.349  0.6787  1.8558  1.5088
   43MOL   H59047714   2.887   0.887   4.244  0.0450  0.1782  0.0235
   43MOL   H59147715   2.723   0.917   4.184 -0.9179  0.4915  2.0803
   43MOL   H59247716   2.971   1.087   4.117  0.2953  2.2158 -2.3576
   43MOL   H59347717   2.904   0.966   4.026  2.1796 -0.5721  1.6275
   43MOL   H59447718   2.751   1.217   4.131  2.3662 -0.0891  0.7289
   43MOL   H59547719   2.836   1.229   3.991  0.3929  0.2097 -0.3056
   43MOL   H59647720   2.687   1.064   3.880  0.0406  0.7470  0.1147
   43MOL   H59747721   2.614   1.026   4.034  1.0910 -0.7721 -0.9687
   43MOL   H59847722   2.481   1.154   3.873 -0.2083  0.5028 -0.2725
   43MOL   H59947723   2.594   1.289   3.877  0.3777 -0.7410 -1.7324
   43MOL   H60047724   2.547   1.341   4.113  0.0352  1.3174 -0.2933
   43MOL   H60147725   2.440   1.198   4.125 -0.2833 -1.2044 -2.5575
   43MOL   H60247726   2.295   1.313   3.946  0.8693 -2.0472  0.3400
   43MOL   H60347727   2.294   1.376   4.105 -0.4590 -0.5016  0.7225
   43MOL   H60447728   2.399   1.579   4.146 -1.3225  1.1384 -0.1097
   43MOL   H60547729   2.356   1.759   3.950 -0.8649 -1.9867  0.3407
   43MOL   H60647730   2.536   1.739   3.949 -0.5635  0.4105 -1.4517
   43MOL   H60747731   2.515   1.801   4.200  0.1491  0.9599  0.1301
   43MOL   H60847732   2.346   1.790   4.190 -1.2698  0.3829 -1.6582
   43MOL   H60947733   2.394   2.026   4.169 -0.2118 -0.6846  0.2757
   43MOL   H61047734   2.369   1.967   3.998  0.6060  1.2652 -1.1111
   43MOL   H61147735   2.652   1.998   4.113  0.2468  0.3772  0.5373
   43MOL   H61247736   2.601   1.956   3.947 -0.5885  1.0951 -1.0587
   43MOL   H61347737   2.568   2.210   4.125  0.7352  1.7560 -0.3588
   43MOL   H61447738   2.490   2.199   3.967 -1.0441  0.7058  0.8321
   43MOL   H61547739   2.688   2.333   3.965 -2.3405  0.0776 -0.5557
   43MOL   H61647740   2.794   2.200   4.015  1.4485 -1.3278 -3.2913
   43MOL   H61747741   2.767   2.080   3.819 -0.3956 -0.5901  1.1151
   43MOL   C61847742   2.682   2.239   3.710  0.4440  0.3621  0.0145
   43MOL   O61947743   2.615   2.344   3.722  0.0410 -0.7292 -0.0050
   43MOL   C62047744   2.695   2.167   3.570  0.2496  0.4821 -0.2591
   43MOL   C62147745   2.583   2.186   3.475 -1.1204  0.0763 -0.3008
   43MOL   C62247746   2.591   2.094   3.351  0.1960 -0.4919  0.0297
   43MOL   C62347747   2.658   2.146   3.223  0.4026 -0.2306 -0.3611
   43MOL   C62447748   2.597   2.265   3.159  0.1158 -0.7986  0.6458
   43MOL   C62547749   2.492   2.229   3.060 -0.0077 -0.8047 -0.1586
   43MOL   C62647750   2.434   2.352   2.984 -0.0473 -0.2490  0.0031
   43MOL   C62747751   2.322   2.340   2.891  0.1705 -0.1542 -0.2992
   43MOL   C62847752   2.369   2.338   2.742 -1.2295 -0.4766  0.1450
   43MOL   C62947753   2.265   2.291   2.648  0.6399  0.0017  0.4232
   43MOL   C63047754   2.284   2.148   2.608  1.0115  0.7233  0.4951
   43MOL   O63147755   2.379   2.104   2.541  1.0892  0.2742 -0.1716
   43MOL   N63247756   2.178   2.071   2.640  0.1223 -0.1507 -0.1072
   43MOL   C63347757   2.168   1.926   2.609  0.3978 -0.1883 -0.8292
   43MOL   C63447758   2.031   1.866   2.596  0.2030  0.0955 -0.0460
   43MOL   C63547759   2.011   1.724   2.544 -0.3331  0.1368  0.4586
   43MOL   C63647760   1.865   1.695   2.515  0.4297  0.0841 -0.0192
   43MOL   C63747761   1.834   1.574   2.430  0.3301 -0.4723 -0.2304
   43MOL   C63847762   1.681   1.583   2.394 -0.2335  0.2753  0.3879
   43MOL   N63947763   1.589   1.554   2.500 -0.8542 -0.3453 -0.1007
   43MOL   H64047764   2.709   2.061   3.590 -1.1535  0.2064 -0.7041
   43MOL   H64147765   2.791   2.194   3.525 -0.6693  3.1673 -0.7319
   43MOL   H64247766   2.574   2.294   3.461  0.3618  0.2090 -0.2495
   43MOL   H64347767   2.494   2.155   3.530  0.1474 -0.9520  1.2058
   43MOL   H64447768   2.492   2.059   3.322 -0.8522  0.8653  1.8450
   43MOL   H64547769   2.634   1.996   3.373  0.1688 -1.3880 -3.6755
   43MOL   H64647770   2.763   2.173   3.237  0.1374  0.5279  0.2065
   43MOL   H64747771   2.666   2.065   3.151 -0.7132 -0.4111 -0.2830
   43MOL   H64847772   2.554   2.331   3.233  1.3097 -2.1026  2.5568
   43MOL   H64947773   2.669   2.318   3.096 -0.4763 -3.0054 -1.9922
   43MOL   H65047774   2.414   2.171   3.109  0.0569  0.3732  1.3486
   43MOL   H65147775   2.536   2.169   2.980  3.5333  0.0224  1.0543
   43MOL   H65247776   2.405   2.434   3.051 -1.2293 -0.3361 -0.3795
   43MOL   H65347777   2.510   2.397   2.920 -1.9127  0.4923 -1.7560
   43MOL   H65447778   2.282   2.239   2.898 -0.5475  0.0381 -1.4639
   43MOL   H65547779   2.252   2.422   2.906 -0.7227 -0.5585 -2.2104
   43MOL   H65647780   2.449   2.265   2.730 -1.0483 -0.1988 -0.3400
   43MOL   H65747781   2.411   2.434   2.714 -2.0909  0.0169  0.5336
   43MOL   H65847782   2.162   2.303   2.680  0.9479  2.3216  0.6745
   43MOL   H65947783   2.266   2.355   2.559 -1.0993  1.7515  1.6308
   43MOL   H66047784   2.096   2.115   2.679  1.0655  1.8612 -0.3547
   43MOL   H66147785   2.217   1.908   2.513  1.8169 -1.2579  0.0693
   43MOL   H66247786   2.217   1.870   2.690  0.5256  2.2246  0.8175
   43MOL   H66347787   1.981   1.939   2.532  1.5103 -1.2034 -2.6507
   43MOL   H66447788   1.976   1.873   2.689 -2.3352  1.6468 -1.5956
   43MOL   H66547789   2.069   1.708   2.453  1.0738  1.5761  1.0655
   43MOL   H66647790   2.056   1.657   2.617 -1.7929 -0.6184  0.6759
   43MOL   H66747791   1.827   1.787   2.468  2.6380 -0.6819 -3.4990
   43MOL   H66847792   1.821   1.690   2.615  1.4926 -1.0692  0.3882
   43MOL   H66947793   1.893   1.571   2.339  0.1829  0.7489 -0.3717
   43MOL   H67047794   1.866   1.488   2.489 -0.6968 -0.6419  0.0930
   43MOL   H67147795   1.668   1.684   2.355 -0.7168 -0.6019 -1.8258
   43MOL   H67247796   1.653   1.518   2.311  2.0446 -1.5851  1.0215
   43MOL   H67347797   1.561   1.638   2.550  1.1171  0.0419  0.4054
   43MOL   C67447798   1.531   1.440   2.545  0.6977  1.2021  0.4359
   43MOL   O67547799   1.570   1.330   2.499  0.3247 -0.4317 -0.3103
   43MOL   C67647800   1.412   1.446   2.644 -0.3025 -0.4933 -0.4130
   43MOL   C67747801   1.310   1.348   2.605 -0.5432 -0.5404 -0.5212
   43MOL   C67847802   1.190   1.355   2.696  0.0265  0.1707  0.2348
   43MOL   C67947803   1.073   1.272   2.647  0.2631 -0.5181  0.0577
   43MOL   C68047804   0.962   1.243   2.747  0.5905  0.2191  0.0221
   43MOL   C68147805   0.857   1.164   2.679  0.2357  0.1595  1.2447
   43MOL   C68247806   0.723   1.152   2.755 -0.6849  0.2139  0.1095
   43MOL   C68347807   0.740   1.114   2.899 -0.0595 -0.2761  0.3284
   43MOL   C68447808   0.810   0.980   2.941 -0.3402  0.2100  1.0336
   43MOL   C68547809   0.804   0.931   3.089  0.3742 -0.3414  0.1053
   43MOL   C68647810   0.872   1.029   3.189 -0.7657  0.5942  0.0230
   43MOL   O68747811   0.808   1.120   3.246  0.1861  0.0177  0.5363
   43MOL   N68847812   1.007   0.999   3.200  0.4387  0.1616 -0.0632
   43MOL   C68947813   1.099   1.056   3.292 -0.2574 -0.3256  0.3504
   43MOL   C69047814   1.226   0.976   3.313 -0.3870  0.1812 -0.1823
   43MOL   C69147815   1.315   1.035   3.426  0.3333  0.0142 -0.6745
   43MOL   C69247816   1.433   0.947   3.464  0.4758 -0.2120  0.2357
   43MOL   C69347817   1.512   0.996   3.588  0.5598  0.5498  0.5088
   43MOL   C69447818   1.602   1.114   3.551 -0.0756  0.0343 -0.0902
   43MOL   N69547819   1.676   1.160   3.671  0.4643 -0.1256  0.1789
   43MOL   H69647820   1.370   1.545   2.660 -0.0955 -0.8532  2.7500
   43MOL   H69747821   1.444   1.403   2.739  1.4526  1.2502 -0.2057
   43MOL   H69847822   1.349   1.247   2.619 -0.7832 -0.6041 -0.3066
   43MOL   H69947823   1.282   1.375   2.503 -1.3348  1.0161  0.0782
   43MOL   H70047824   1.221   1.329   2.797  1.4855 -1.1041 -0.5286
   43MOL   H70147825   1.161   1.460   2.704  0.0635 -0.0282  3.9427
   43MOL   H70247826   1.118   1.179   2.613  1.2509  0.2088 -0.6563
   43MOL   H70347827   1.035   1.328   2.562  2.0507  0.0867 -0.3614
   43MOL   H70447828   0.919   1.339   2.774 -0.2189 -0.1015 -0.0962
   43MOL   H70547829   0.997   1.194   2.837  1.8414 -0.7451 -0.9747
   43MOL   H70647830   0.841   1.223   2.589  0.4090 -1.2016  0.3076
   43MOL   H70747831   0.890   1.073   2.628 -0.2140  2.0150 -2.5615
   43MOL   H70847832   0.683   1.254   2.745  1.6741  1.1404 -0.1417
   43MOL   H70947833   0.650   1.085   2.710  0.6646 -1.6815  0.6721
   43MOL   H71047834   0.777   1.202   2.952  2.4168  0.0832 -1.9216
   43MOL   H71147835   0.639   1.083   2.927  1.1753 -1.3885  3.8073
   43MOL   H71247836   0.915   0.986   2.910 -0.8444 -0.2752 -0.8674
   43MOL   H71347837   0.780   0.906   2.867  1.5699 -0.4052  0.8381
   43MOL   H71447838   0.703   0.906   3.122 -0.5357  1.5072 -1.1588
   43MOL   H71547839   0.863   0.840   3.097  0.6780 -0.3279 -1.6455
   43MOL   H71647840   1.042   0.932   3.133  2.1538  1.3645 -0.3989
   43MOL   H71747841   1.130   1.156   3.263  0.2809 -1.2373 -2.3113
   43MOL   H71847842   1.047   1.071   3.387  0.4092 -1.1901  0.8560
   43MOL   H71947843   1.288   0.955   3.226  0.3926  0.5724  0.2783
   43MOL   H72047844   1.197   0.874   3.339 -0.9680  0.5236  0.5293
   43MOL   H72147845   1.352   1.132   3.394 -1.1214  0.8748  0.1584
   43MOL   H72247846   1.263   1.043   3.522 -2.3671  1.0617 -2.1835
   43MOL   H72347847   1.495   0.940   3.374 -0.3441 -2.3815 -0.2141
   43MOL   H72447848   1.416   0.839   3.475  1.6568 -0.1912  2.3802
   43MOL   H72547849   1.550   0.908   3.640  1.9164 -0.0880 -1.5088
   43MOL   H72647850   1.441   1.037   3.660 -0.9181 -0.3976 -0.3830
   43MOL   H72747851   1.673   1.083   3.474 -0.8196  2.0183 -1.6273
   43MOL   H72847852   1.544   1.197   3.511 -0.1632 -1.2431 -2.7232
   43MOL   H72947853   1.614   1.182   3.748 -1.4439 -2.9797 -0.4526
   43MOL   C73047854   1.805   1.150   3.690  0.1456 -0.4953  0.1435
   43MOL   O73147855   1.892   1.118   3.609 -0.2114  0.1434 -0.0029
   43MOL   C73247856   1.838   1.182   3.833 -0.1613 -0.1556  0.3887
   43MOL   C73347857   1.991   1.190   3.859  0.0678 -0.0155  0.6512
   43MOL   C73447858   2.042   1.047   3.886  0.2859 -0.3178 -0.2002
   43MOL   C73547859   2.188   1.036   3.923 -0.0249  0.2531  0.6055
   43MOL   C73647860   2.240   0.893   3.943  0.1688 -0.4821  0.4876
   43MOL   C73747861   2.199   0.827   4.079  0.7893  0.2272 -0.1452
   43MOL   C73847862   2.254   0.682   4.098 -0.2150 -0.6036 -0.4250
   43MOL   C73947863   2.180   0.578   4.014  1.1135 -0.5868  0.5106
   43MOL   C74047864   2.265   0.452   4.015 -0.2200 -0.3665  0.1782
   43MOL   C74147865   2.201   0.335   3.945 -0.9607 -0.1557 -0.4400
   43MOL   C74247866   2.293   0.206   3.932  0.3226 -0.6106  0.1149
   43MOL   O74347867   2.403   0.199   3.983  0.1644 -0.3488 -0.3829
   43MOL   N74447868   2.248   0.127   3.837  0.3693  0.1398  0.2042
   43MOL   C74547869   2.317   0.024   3.761  0.3600  0.7437 -0.1117
   43MOL   C74647870   2.322   7.584   3.824  0.4351  0.2038 -0.0094
   43MOL   C74747871   2.392   7.478   3.732 -0.3316  0.7142 -0.4747
   43MOL   C74847872   2.429   7.344   3.798  0.1522 -0.2868 -0.3898
   43MOL   C74947873   2.306   7.263   3.851  0.6867 -0.7052 -0.2455
   43MOL   C75047874   2.356   7.128   3.910 -0.6921 -0.0909  0.1190
   43MOL   N75147875   2.446   7.152   4.026  0.2094  0.2874 -0.2747
   43MOL   H75247876   1.796   1.100   3.891  0.8804 -1.6677 -0.9574
   43MOL   H75347877   1.781   1.267   3.869 -2.6501 -0.6042 -2.3579
   43MOL   H75447878   1.999   1.252   3.948  2.2582  1.1468 -0.3138
   43MOL   H75547879   2.056   1.242   3.789  0.5044 -1.0434  0.2770
   43MOL   H75647880   2.024   0.984   3.799 -2.8076 -0.2404  0.3176
   43MOL   H75747881   1.993   1.000   3.972  0.1486  0.5290  0.1848
   43MOL   H75847882   2.217   1.098   4.007 -0.4444  0.9527  0.2354
   43MOL   H75947883   2.244   1.079   3.841 -0.2875  0.9139  0.7739
   43MOL   H76047884   2.348   0.905   3.950 -0.0426  1.9679  0.2270
   43MOL   H76147885   2.219   0.842   3.849 -0.2790 -0.4800  0.5829
   43MOL   H76247886   2.228   0.887   4.165  1.4003 -0.2542 -0.0113
   43MOL   H76347887   2.092   0.811   4.091  0.4571  1.9651 -0.6493
   43MOL   H76447888   2.362   0.686   4.084  0.1762 -1.6456  2.0782
   43MOL   H76547889   2.240   0.674   4.206  1.0502  1.5047 -0.0833
   43MOL   H76647890   2.086   0.552   4.062  0.6446  1.1953  0.5937
   43MOL   H76747891   2.156   0.617   3.915  0.4956 -0.5008  0.6927
   43MOL   H76847892   2.278   0.423   4.119  3.7077 -0.2357 -0.1927
   43MOL   H76947893   2.361   0.476   3.970 -0.6403 -1.7249 -1.4948
   43MOL   H77047894   2.113   0.314   4.007 -0.2349 -1.1242  0.2927
   43MOL   H77147895   2.172   0.364   3.844 -0.9779 -0.9425 -0.6691
   43MOL   H77247896   2.154   0.147   3.808  0.5337 -0.2286 -0.5825
   43MOL   H77347897   2.417   0.063   3.740  1.9747 -2.2732  1.6065
   43MOL   H77447898   2.270   0.019   3.663  0.9076 -1.1667 -0.2888
   43MOL   H77547899   2.224   7.567   3.870  1.0332  2.3889  2.2344
   43MOL   H77647900   2.389   7.592   3.910  1.9364 -0.2894 -1.1108
   43MOL   H77747901   2.486   7.517   3.694  0.8890  1.7194  3.3468
   43MOL   H77847902   2.331   7.451   3.646 -0.8931  3.7683 -1.0808
   43MOL   H77947903   2.477   7.278   3.727 -2.9674 -1.7940 -1.1824
   43MOL   H78047904   2.498   7.376   3.876 -1.6784  0.9820  0.7648
   43MOL   H78147905   2.225   7.248   3.780  1.0624 -1.0033 -0.6144
   43MOL   H78247906   2.259   7.322   3.929  0.5653 -1.1974  0.0577
   43MOL   H78347907   2.271   7.070   3.944 -3.2837  3.1463 -0.6195
   43MOL   H78447908   2.404   7.072   3.829 -2.0847 -0.3266 -0.5430
   43MOL   H78547909   2.410   7.186   4.113  0.5439  0.6199 -0.2649
   43MOL   C78647910   2.575   7.125   4.013  0.2042 -0.3968 -0.8563
   43MOL   O78747911   2.628   7.049   3.937  0.2551 -0.2525 -0.2403
   43MOL   C78847912   2.664   7.176   4.128 -0.1868  0.3241  0.0395
   43MOL   C78947913   2.734   7.306   4.100 -0.4980  0.1611 -0.1381
   43MOL   C79047914   2.846   7.342   4.201 -0.2815  0.8250 -0.4441
   43MOL   C79147915   2.971   7.253   4.213  0.0483  0.0672 -0.6012
   43MOL   C79247916   3.056   7.232   4.084 -0.4611  0.0562  0.3891
   43MOL   C79347917   3.022   7.114   3.989 -0.3399 -0.2274 -0.1264
   43MOL   C79447918   3.103   6.988   4.026  0.5148 -0.4980 -0.5263
   43MOL   C79547919   3.064   6.870   3.940  0.4348 -0.1790 -0.2997
   43MOL   C79647920   3.105   6.732   3.995  0.2351  0.1595 -0.7702
   43MOL   C79747921   3.020   6.670   4.098 -0.2878  0.0071  0.0837
   43MOL   C79847922   3.093   6.552   4.165 -0.0992 -0.6738  0.2877
   43MOL   O79947923   3.150   6.466   4.094  0.3959 -0.3308 -0.3121
   43MOL   N80047924   3.095   6.534   4.301 -0.5978  0.4830 -0.4579
   43MOL   C80147925   3.168   6.424   4.366  0.2936  0.7758 -0.5180
   43MOL   C80247926   3.094   6.396   4.497 -0.5256 -0.4530  0.3579
   43MOL   C80347927   3.143   6.275   4.575 -0.1489 -0.4412  0.6617
   43MOL   C80447928   3.079   6.268   4.708  0.1618 -0.9131 -0.1595
   43MOL   C80547929   3.121   6.135   4.789  0.0838 -0.0725  0.4993
   43MOL   C80647930   3.052   6.004   4.731  0.2267 -0.4809  0.2378
   43MOL   N80747931   3.097   5.879   4.794  0.2228 -0.9136  0.0465
   43MOL   H80847932   2.744   7.102   4.140  2.1392  2.4758 -1.7711
   43MOL   H80947933   2.600   7.186   4.216 -0.7776 -2.7339  0.0249
   43MOL   H81047934   2.775   7.301   3.999  1.2789  0.2865  0.5596
   43MOL   H81147935   2.664   7.389   4.085 -1.7983 -0.8339  0.3447
   43MOL   H81247936   2.819   7.338   4.307 -0.6978 -2.1072 -0.6247
   43MOL   H81347937   2.877   7.443   4.175  0.5326  0.6298 -0.2573
   43MOL   H81447938   3.040   7.299   4.283 -1.6515  0.6467  0.7210
   43MOL   H81547939   2.945   7.154   4.249 -3.0158  0.6885 -0.9340
   43MOL   H81647940   3.041   7.319   4.020 -0.0220 -0.8310 -0.9457
   43MOL   H81747941   3.163   7.223   4.104 -0.1365 -1.3229 -1.8643
   43MOL   H81847942   2.915   7.095   3.992 -0.1366 -1.3129  2.1344
   43MOL   H81947943   3.059   7.141   3.890 -0.9475 -1.4392 -0.6987
   43MOL   H82047944   3.209   7.008   4.012  0.5927 -1.0556 -0.7368
   43MOL   H82147945   3.067   6.965   4.126 -2.2998  0.3350 -1.3066
   43MOL   H82247946   2.958   6.885   3.923  0.8172 -0.1106 -2.7620
   43MOL   H82347947   3.110   6.890   3.843  0.4835 -0.5435 -0.3517
   43MOL   H82447948   3.204   6.740   4.040 -0.6399 -0.6057  1.3506
   43MOL   H82547949   3.111   6.670   3.906  1.1341 -2.8946  1.3478
   43MOL   H82647950   2.985   6.736   4.178  1.3957 -0.1379  0.9809
   43MOL   H82747951   2.927   6.628   4.060 -0.8968 -1.1578  2.7133
   43MOL   H82847952   3.038   6.592   4.361  0.3390 -0.3821  1.3371
   43MOL   H82947953   3.275   6.443   4.375  0.5112 -1.3777  1.9831
   43MOL   H83047954   3.159   6.336   4.302 -1.8441  0.9273 -0.4509
   43MOL   H83147955   2.988   6.391   4.473 -0.1381  0.8112 -1.6825
   43MOL   H83247956   3.098   6.487   4.556 -1.4238 -1.1380  1.4972
   43MOL   H83347957   3.102   6.189   4.520 -1.7901  1.3125 -0.9643
   43MOL   H83447958   3.251   6.262   4.567 -0.0913 -0.3190  1.2639
   43MOL   H83547959   2.971   6.272   4.698  0.1846  0.0739 -0.0682
   43MOL   H83647960   3.113   6.350   4.772 -3.2671 -0.6697  1.4657
   43MOL   H83747961   3.089   6.150   4.892 -0.7449  0.6667  0.1345
   43MOL   H83847962   3.229   6.121   4.790  0.2218  0.9913  1.0570
   43MOL   H83947963   3.045   6.004   4.622  0.0012  1.0910  0.2484
   43MOL   H84047964   2.951   6.022   4.766 -0.3191 -1.9160 -0.5709
   43MOL   H84147965   3.156   5.879   4.877 -0.4186 -0.0549  0.4992
   43MOL   C84247966   3.035   5.761   4.775 -0.7552  0.0661  0.5373
   43MOL   O84347967   2.957   5.757   4.685 -0.0320 -0.3396  0.1264
   43MOL   C84447968   3.079   5.640   4.853  0.2760 -0.8517 -0.3715
   43MOL   C84547969   3.091   5.512   4.773  0.0933 -0.1642 -0.3541
   43MOL   C84647970   3.118   5.388   4.850 -0.2497 -0.1751  0.5461
   43MOL   C84747971   3.269   5.373   4.902  0.3445 -0.3958 -0.0648
   43MOL   C84847972   3.337   5.240   4.882 -0.2445  0.4356 -0.3905
   43MOL   C84947973   3.368   5.202   4.736 -0.8601  0.1340  0.9193
   43MOL   C85047974   3.459   5.306   4.678  0.0366 -0.2100  0.4109
   43MOL   C85147975   3.529   5.257   4.550 -0.3979 -0.1749 -0.2742
   43MOL   C85247976   3.651   5.337   4.501 -0.1171 -0.7577  0.3092
   43MOL   C85347977   3.612   5.455   4.416  0.0114 -0.1320 -0.2131
   43MOL   C85447978   3.715   5.564   4.397 -0.0054  0.4235 -0.3964
   43MOL   O85547979   3.813   5.563   4.474  0.2224  0.5572 -0.1959
   43MOL   N85647980   3.684   5.664   4.311  0.0433 -0.9299 -0.1708
   43MOL   C85747981   3.772   5.779   4.285 -0.3347  0.0567 -0.1554
   43MOL   C85847982   3.763   5.810   4.138  0.7905  0.6496 -0.0446
   43MOL   C85947983   3.866   5.920   4.095 -0.4091 -0.2756 -0.1495
   43MOL   C86047984   3.876   5.934   3.948 -0.8152 -0.3928 -0.6130
   43MOL   C86147985   3.753   5.976   3.865  0.0469  0.0305 -0.5765
   43MOL   C86247986   3.777   6.040   3.731 -0.7504  0.1446  0.6183
   43MOL   N86347987   3.650   6.103   3.685  0.4296  0.7175  0.5642
   43MOL   H86447988   3.002   5.623   4.928 -0.3649 -1.3840 -1.1500
   43MOL   H86547989   3.166   5.672   4.911  1.3627 -0.3148 -2.2411
   43MOL   H86647990   3.169   5.519   4.697 -0.5852 -2.2478 -1.2759
   43MOL   H86747991   2.996   5.497   4.723 -1.0160 -0.2508  1.7233
   43MOL   H86847992   3.050   5.368   4.933  1.0779  0.2595  1.7632
   43MOL   H86947993   3.097   5.304   4.784 -1.8163  1.0250 -0.4983
   43MOL   H87047994   3.273   5.408   5.005 -1.0254  1.5153 -0.6294
   43MOL   H87147995   3.327   5.453   4.856  0.0526 -0.1869 -0.0746
   43MOL   H87247996   3.433   5.226   4.933 -0.0020  0.0015 -0.9612
   43MOL   H87347997   3.267   5.166   4.921 -0.6059  1.2595  0.5583
   43MOL   H87447998   3.430   5.114   4.720 -0.7028  0.6307 -1.4026
   43MOL   H87547999   3.279   5.192   4.673 -0.0884 -0.6605 -0.0511
   43MOL   H87648000   3.416   5.405   4.661  1.9613  1.0507  2.6123
   43MOL   H87748001   3.540   5.324   4.749  1.2520  0.1877 -1.0505
   43MOL   H87848002   3.467   5.242   4.462  1.0886 -0.4380 -1.3014
   43MOL   H87948003   3.565   5.154   4.549 -2.4677 -0.9303 -0.5549
   43MOL   H88048004   3.720   5.277   4.441 -0.7643  0.2890 -1.5352
   43MOL   H88148005   3.709   5.378   4.584 -2.6666 -0.5404  2.0221
   43MOL   H88248006   3.581   5.426   4.315  0.6054 -0.5832 -0.2653
   43MOL   H88348007   3.528   5.498   4.471  1.3976 -0.5566  2.3154
   43MOL   H88448008   3.593   5.667   4.267  0.7023 -0.7186 -1.5731
   43MOL   H88548009   3.876   5.748   4.299 -1.1624 -1.5119  2.9507
   43MOL   H88648010   3.740   5.867   4.340 -1.6742 -0.7379  0.3483
   43MOL   H88748011   3.660   5.842   4.121  0.5845 -0.2490 -0.5673
   43MOL   H88848012   3.780   5.724   4.072  2.2741 -0.8128  2.1963
   43MOL   H88948013   3.964   5.886   4.129 -0.4956 -0.0246  0.3501
   43MOL   H89048014   3.850   6.016   4.143 -1.2071 -0.0022 -0.9390
   43MOL   H89148015   3.921   5.845   3.906  0.2271  0.8142 -2.0947
   43MOL   H89248016   3.950   6.012   3.932 -0.0558 -0.3764  2.6827
   43MOL   H89348017   3.698   5.885   3.842 -0.1004 -0.8042  2.7931
   43MOL   H89448018   3.687   6.029   3.934  1.1158 -0.3876  0.8083
   43MOL   H89548019   3.853   6.118   3.738  1.2102 -1.5589 -0.8206
   43MOL   H89648020   3.807   5.965   3.657 -1.1090  0.1101  0.5098
   43MOL   H89748021   3.619   6.199   3.687 -1.8547  0.0170 -0.1310
   43MOL   C89848022   3.556   6.040   3.604 -0.4391 -0.7206 -0.7709
   43MOL   O89948023   3.560   5.919   3.573 -0.7745  0.2027  0.1229
   43MOL   C90048024   3.439   6.125   3.548  0.3674 -0.1560 -0.3672
   43MOL   C90148025   3.301   6.092   3.619 -0.3326 -0.3821 -0.0422
   43MOL   C90248026   3.298   6.100   3.775 -0.0333  0.5658 -0.2791
   43MOL   C90348027   3.167   6.055   3.830  0.0235 -0.1778 -0.6936
   43MOL   C90448028   3.154   6.109   3.969  0.0962 -0.7444  0.6619
   43MOL   C90548029   3.013   6.068   4.022 -0.2067  0.5800 -0.7447
   43MOL   C90648030   2.998   6.112   4.164  0.0144  1.0656  0.0870
   43MOL   C90748031   2.879   6.037   4.229 -0.4268  0.7390  0.5470
   43MOL   C90848032   2.872   6.062   4.380  0.5781  0.4712 -0.0534
   43MOL   C90948033   2.765   5.982   4.452  0.1658  0.7411  0.4379
   43MOL   C91048034   2.622   6.024   4.427  0.3290 -0.0149 -0.3401
   43MOL   O91148035   2.590   6.143   4.414 -0.7327 -0.6375 -0.5763
   43MOL   N91248036   2.530   5.933   4.427  0.4614  0.0701  0.1145
   43MOL   C91348037   2.391   5.938   4.382 -0.1771 -0.2524 -0.7268
   43MOL   C91448038   2.353   5.811   4.311  0.9154  0.2046  0.6007
   43MOL   C91548039   2.213   5.813   4.248 -0.8328 -0.4789  0.0222
   43MOL   C91648040   2.187   5.923   4.137 -0.0262  0.0348  0.4759
   43MOL   C91748041   2.055   5.886   4.071 -0.4958 -0.6253  0.0974
   43MOL   C91848042   2.014   5.984   3.958 -0.3215 -0.4583 -0.4755
   43MOL   N91948043   2.018   6.117   4.019 -0.0797 -0.0509 -0.0909
   43MOL   H92048044   3.468   6.230   3.558  2.8162 -0.9623  1.4721
   43MOL   H92148045   3.423   6.106   3.441 -1.4104  1.1300 -0.3497
   43MOL   H92248046   3.277   5.991   3.588 -3.3975  0.6591 -1.2795
   43MOL   H92348047   3.228   6.155   3.568  1.2755  2.8622  1.5081
   43MOL   H92448048   3.320   6.206   3.793  0.7502  0.2691  0.5376
   43MOL   H92548049   3.381   6.045   3.819 -0.5244 -0.2148 -0.3316
   43MOL   H92648050   3.077   6.080   3.775 -1.0735 -1.0837  0.6634
   43MOL   H92748051   3.183   5.948   3.827 -1.2490 -0.3715 -0.7057
   43MOL   H92848052   3.154   6.218   3.974 -0.1424 -0.6814 -0.7123
   43MOL   H92948053   3.232   6.067   4.033  1.1293 -2.4479 -1.6394
   43MOL   H93048054   2.927   6.109   3.969 -1.6933 -1.2403  0.1684
   43MOL   H93148055   3.012   5.959   4.016  0.6238  0.5778 -0.7774
   43MOL   H93248056   2.983   6.219   4.178 -0.5291  1.3099 -2.1695
   43MOL   H93348057   3.083   6.086   4.227  0.0510 -1.2409 -0.8598
   43MOL   H93448058   2.875   5.930   4.207 -0.4681  0.5310  1.5304
   43MOL   H93548059   2.786   6.069   4.182  0.2605 -1.1941 -2.2726
   43MOL   H93648060   2.970   6.044   4.424  0.2664  0.7768  0.7866
   43MOL   H93748061   2.867   6.167   4.409 -2.3416  0.8686 -1.7636
   43MOL   H93848062   2.780   5.877   4.426 -0.7609  0.6088  0.4386
   43MOL   H93948063   2.787   5.989   4.559 -0.4071 -0.1667  0.6173
   43MOL   H94048064   2.559   5.838   4.445  1.5026  0.3414 -0.0942
   43MOL   H94148065   2.375   6.029   4.323  0.1606 -0.1436 -0.6507
   43MOL   H94248066   2.335   5.951   4.475  3.7248 -1.1266  1.8685
   43MOL   H94348067   2.434   5.791   4.241  1.3233 -0.3817  1.2380
   43MOL   H94448068   2.358   5.731   4.384 -0.3655  0.2976  0.8090
   43MOL   H94548069   2.209   5.717   4.197  0.2028 -0.6840  0.3032
   43MOL   H94648070   2.142   5.820   4.330 -1.3226 -0.8728 -0.3688
   43MOL   H94748071   2.264   5.899   4.063  0.6566  1.3150  0.7547
   43MOL   H94848072   2.200   6.019   4.187  0.7575 -0.3051  0.9332
   43MOL   H94948073   2.057   5.780   4.045 -0.3450 -1.2147  2.3474
   43MOL   H95048074   1.970   5.892   4.139 -0.4019  0.0710  0.1607
   43MOL   H95148075   1.916   5.967   3.914 -0.1940  0.6183 -1.1872
   43MOL   H95248076   2.087   5.982   3.877 -0.0843 -2.3231 -0.2416
   43MOL   H95348077   2.094   6.136   4.083 -0.1373 -2.1453  0.6510
   43MOL   C95448078   1.959   6.219   3.966 -0.4171 -0.7791 -0.7327
   43MOL   O95548079   1.876   6.208   3.881  0.2414 -0.0515 -0.2643
   43MOL   C95648080   1.992   6.364   4.008  0.1373 -0.3081 -0.0438
   43MOL   C95748081   1.875   6.441   4.071 -0.3566 -0.3612  0.4352
   43MOL   C95848082   1.861   6.411   4.227 -0.2143  0.0604  0.5750
   43MOL   C95948083   1.760   6.506   4.298 -0.5358  0.2713 -0.3191
   43MOL   C96048084   1.732   6.463   4.444  0.0590 -0.6047 -0.7920
   43MOL   C96148085   1.602   6.522   4.503  0.6469  0.9635 -0.0717
   43MOL   C96248086   1.610   6.662   4.562  1.1557  0.5676 -0.2173
   43MOL   C96348087   1.469   6.716   4.590 -0.0667 -0.4936 -0.1234
   43MOL   C96448088   1.398   6.756   4.456  0.3520 -0.1172 -0.0916
   43MOL   C96548089   1.255   6.793   4.481  0.0592  0.0444 -0.1240
   43MOL   C96648090   1.233   6.941   4.511 -0.5259  0.3577 -0.2261
   43MOL   O96748091   1.214   7.017   4.419 -0.3730 -0.0717  0.8503
   43MOL   N96848092   1.231   6.969   4.643  0.7681 -0.2710 -0.2528
   43MOL   C96948093   1.182   7.094   4.702 -0.4944  0.0280 -0.4099
   43MOL   C97048094   1.151   7.069   4.846 -0.6799  0.2070  0.1694
   43MOL   C97148095   1.272   7.047   4.943  0.1602 -0.0055  0.2772
   43MOL   C97248096   1.229   7.030   5.083  0.1583  0.1468  0.5595
   43MOL   C97348097   1.343   6.994   5.192 -0.6433 -0.6801 -0.5364
   43MOL   C97448098   1.299   7.026   5.336  0.0150  0.8819 -0.4187
   43MOL   N97548099   1.398   6.996   5.433  0.2301 -0.0349  0.4613
   43MOL   H97648100   2.068   6.342   4.084 -0.5393  1.0962  1.0582
   43MOL   H97748101   2.035   6.419   3.924 -0.1231 -1.6985 -1.1020
   43MOL   H97848102   1.790   6.413   4.009  0.8967  0.2703 -1.6070
   43MOL   H97948103   1.896   6.547   4.058  1.0588 -0.8244 -1.3874
   43MOL   H98048104   1.839   6.305   4.242 -0.4030 -0.0610 -0.4967
   43MOL   H98148105   1.962   6.428   4.264 -0.7191  4.2983  0.2164
   43MOL   H98248106   1.790   6.609   4.281  0.9496 -0.2195 -0.7478
   43MOL   H98348107   1.670   6.493   4.238 -1.2216  0.5905  0.6452
   43MOL   H98448108   1.747   6.357   4.464  0.7476 -0.7985 -2.2165
   43MOL   H98548109   1.816   6.492   4.506 -2.3781  0.7235  1.9845
   43MOL   H98648110   1.530   6.519   4.421  1.0199  1.2403 -0.4143
   43MOL   H98748111   1.557   6.451   4.573 -0.4522 -0.0696 -1.7670
   43MOL   H98848112   1.668   6.663   4.655  0.3560  2.6695  0.2957
   43MOL   H98948113   1.665   6.730   4.497 -0.7158  1.8224 -0.5401
   43MOL   H99048114   1.424   6.643   4.658 -1.7640  1.8924  1.3861
   43MOL   H99148115   1.464   6.807   4.650 -1.5426  0.9527 -2.3615
   43MOL   H99248116   1.395   6.670   4.389  1.6198 -2.2027  2.4437
   43MOL   H99348117   1.453   6.833   4.402 -0.4176 -0.2936 -1.1487
   43MOL   H99448118   1.197   6.768   4.392 -2.5539 -0.9089  1.7754
   43MOL   H99548119   1.205   6.734   4.558 -0.1159  1.1159  0.6049
   43MOL   H99648120   1.280   6.903   4.702  0.7553  0.2460  0.3404
   43MOL   H99748121   1.090   7.122   4.650 -0.5536  0.7268  0.0542
   43MOL   H99848122   1.252   7.177   4.690 -1.1066  0.5406 -0.4791
   43MOL   H99948123   1.100   6.973   4.844 -0.6632  0.2150 -2.5977
   43MOL     H148124   1.084   7.148   4.880 -0.0708  0.7112  0.2015
   43MOL     H248125   1.349   7.124   4.941  1.0013 -0.7594  2.3956
   43MOL     H348126   1.323   6.958   4.907 -0.8995 -0.0877 -1.0801
   43MOL     H448127   1.186   7.125   5.116 -0.1924 -0.2237  1.1899
   43MOL     H548128   1.143   6.962   5.084  1.0120 -0.9325  0.4849
   43MOL     H648129   1.432   7.053   5.170 -2.1328  1.4744 -0.9012
   43MOL     H748130   1.377   6.893   5.168 -0.9857 -0.6617 -1.1140
   43MOL     H848131   1.273   7.132   5.340 -2.8192  0.2586 -1.3668
   43MOL     H948132   1.200   6.982   5.350  0.8096 -1.0345 -0.6840
   43MOL    H1048133   1.483   7.052   5.429  0.0860  0.1471 -0.1209
   43MOL    C1148134   1.395   6.903   5.525  0.4173 -0.0132 -0.4417
   43MOL    O1248135   1.297   6.825   5.528 -0.1560  0.2061 -0.0245
   43MOL    C1348136   1.521   6.900   5.612  0.4545 -0.2055  0.7614
   43MOL    C1448137   1.519   6.782   5.709  0.5312 -0.7314  0.1652
   43MOL    C1548138   1.616   6.814   5.817  0.5294  1.0120  0.2927
   43MOL    C1648139   1.613   6.724   5.938  0.7584  0.4016  0.5338
   43MOL    C1748140   1.670   6.584   5.915  0.3680  0.0168 -0.0472
   43MOL    C1848141   1.808   6.569   5.860 -0.2992  0.4861 -0.5473
   43MOL    C1948142   1.830   6.422   5.825 -0.2116  0.2728 -0.9597
   43MOL    C2048143   1.964   6.396   5.758 -0.0534  0.5682  0.2996
   43MOL    C2148144   1.980   6.246   5.747  0.4921 -0.3631 -0.4520
   43MOL    C2248145   2.091   6.203   5.644 -0.1280 -0.3001 -0.5277
   43MOL    C2348146   2.078   6.224   5.490  1.3393 -0.5756  0.1690
   43MOL    O2448147   1.986   6.290   5.442  0.0405 -0.6962  0.2856
   43MOL    N2548148   2.178   6.170   5.413  0.1344 -0.4050  0.3555
   43MOL    C2648149   2.193   6.174   5.264 -0.2641  0.6827  0.4808
   43MOL    C2748150   2.201   6.035   5.204 -0.3759 -0.6818 -0.0484
   43MOL    C2848151   2.092   5.934   5.249  0.8240 -0.2071 -0.6590
   43MOL    C2948152   2.106   5.787   5.200  0.1592 -0.1827  0.3497
   43MOL    C3048153   2.033   5.693   5.296  0.5646  0.7787  0.0446
   43MOL    C3148154   2.013   5.549   5.244  0.4772  0.6730 -0.2805
   43MOL    N3248155   1.904   5.537   5.141  1.4527 -0.2259  0.1003
   43MOL    H3348156   1.537   6.993   5.666  0.9748  0.3151 -0.2851
   43MOL    H3448157   1.599   6.888   5.537 -0.7591 -0.2116 -0.5260
   43MOL    H3548158   1.547   6.690   5.657 -1.6324 -2.1600  1.4584
   43MOL    H3648159   1.417   6.766   5.742 -1.1156  1.6417 -3.4301
   43MOL    H3748160   1.605   6.913   5.861  1.4959  0.7573  1.1478
   43MOL    H3848161   1.720   6.822   5.783  0.3049  1.2644 -0.3342
   43MOL    H3948162   1.656   6.772   6.026 -1.4939 -0.6227  2.2612
   43MOL    H4048163   1.506   6.716   5.961  0.7162  1.0683  0.5698
   43MOL    H4148164   1.665   6.535   6.012 -0.8823  3.8214  1.9123
   43MOL    H4248165   1.612   6.525   5.844  1.0452 -0.4306 -0.2402
   43MOL    H4348166   1.802   6.618   5.763  0.4554  0.2654 -0.7103
   43MOL    H4448167   1.892   6.615   5.911 -0.4856  0.1792  0.0313
   43MOL    H4548168   1.841   6.368   5.919 -0.1935  0.4139 -0.8812
   43MOL    H4648169   1.747   6.374   5.773 -0.2027 -1.5761  0.6932
   43MOL    H4748170   1.955   6.442   5.660  0.6984  0.1922  0.0546
   43MOL    H4848171   2.046   6.451   5.803  1.1655 -0.5862 -0.4868
   43MOL    H4948172   1.888   6.202   5.708 -1.3127  4.1549 -1.5997
   43MOL    H5048173   2.001   6.215   5.850  0.3963 -0.1196 -0.3580
   43MOL    H5148174   2.184   6.252   5.673 -1.8289  1.6638  1.8637
   43MOL    H5248175   2.105   6.096   5.652  1.1961  0.0026  1.6522
   43MOL    H5348176   2.244   6.110   5.461  1.4037  0.7793  0.1137
   43MOL    H5448177   2.282   6.229   5.234 -1.5813  1.7753 -1.6067
   43MOL    H5548178   2.105   6.213   5.212 -0.2520 -1.6504 -1.4171
   43MOL    H5648179   2.296   5.991   5.236  0.7712  1.3649 -0.5954
   43MOL    H5748180   2.199   6.041   5.096  0.3762 -2.5859 -0.1871
   43MOL    H5848181   1.990   5.971   5.234  0.4691 -1.0721 -0.4141
   43MOL    H5948182   2.106   5.932   5.357  2.3905  4.4469 -0.6591
   43MOL    H6048183   2.210   5.759   5.212  0.7706  1.5390 -0.6947
   43MOL    H6148184   2.084   5.778   5.093  1.0375  2.1643 -0.0465
   43MOL    H6248185   1.931   5.728   5.312 -0.4271 -1.5467 -0.9606
   43MOL    H6348186   2.086   5.682   5.390  3.2934 -0.3314 -1.5737
   43MOL    H6448187   1.984   5.490   5.330  1.6562  0.3179 -0.1129
   43MOL    H6548188   2.105   5.501   5.209  0.7488  0.1793  1.1008
   43MOL    H6648189   1.930   5.559   5.046  4.0245  1.8708  1.1837
   43MOL    C6748190   1.775   5.511   5.167 -0.5626  0.0223  0.3269
   43MOL    O6848191   1.719   5.525   5.279  0.0138  0.2805  0.1273
   43MOL    C6948192   1.689   5.472   5.046  0.0656 -0.6121  0.1892
   43MOL    C7048193   1.641   5.324   5.044 -0.4380 -0.0735 -0.0511
   43MOL    C7148194   1.503   5.309   5.110 -0.4484  0.0039  0.4840
   43MOL    C7248195   1.459   5.159   5.123  0.2944 -1.2620 -0.4637
   43MOL    C7348196   1.330   5.137   5.197  0.0674 -0.4648  0.4977
   43MOL    C7448197   1.306   4.988   5.225 -0.0895  0.2225  0.2216
   43MOL    C7548198   1.180   4.959   5.309 -0.0977 -1.0402 -0.1981
   43MOL    C7648199   1.166   5.038   5.446  0.1790  0.0728 -0.1219
   43MOL    C7748200   1.089   5.174   5.457  0.9464  0.5421 -0.1481
   43MOL    C7848201   1.093   5.232   5.599  0.1595 -0.7328 -0.0940
   43MOL    C7948202   1.007   5.167   5.711  0.4971 -0.2656 -0.4318
   43MOL    O8048203   0.900   5.109   5.687 -0.3712 -0.5457 -0.3469
   43MOL    N8148204   1.057   5.172   5.838  0.2284  0.1471  0.3866
   43MOL    C8248205   1.010   5.109   5.959  0.0887  0.3743 -0.0795
   43MOL    C8348206   1.038   4.958   5.957 -0.5424 -0.2739 -0.3148
   43MOL    C8448207   1.170   4.903   5.888 -0.3271 -0.8357 -0.0747
   43MOL    C8548208   1.299   4.979   5.931 -0.3404 -0.5733 -0.3182
   43MOL    C8648209   1.411   4.961   5.833 -0.5411  0.1988 -0.1197
   43MOL    C8748210   1.539   5.038   5.877  0.0370  0.3107  0.8271
   43MOL    N8848211   1.513   5.178   5.895 -0.3079  0.0832  0.4612
   43MOL    H8948212   1.752   5.495   4.959  0.5188 -1.1316  0.3769
   43MOL    H9048213   1.606   5.541   5.038  1.6256  0.9924 -4.1623
   43MOL    H9148214   1.648   5.284   4.943  1.9765 -0.3063  0.1652
   43MOL    H9248215   1.716   5.267   5.099 -0.1980 -0.0710 -0.3744
   43MOL    H9348216   1.495   5.353   5.210 -0.0441 -0.1621  0.5886
   43MOL    H9448217   1.429   5.362   5.050 -0.7043 -2.3324 -1.2944
   43MOL    H9548218   1.452   5.107   5.028 -1.5436 -0.6305 -0.7063
   43MOL    H9648219   1.541   5.106   5.171  1.2630  3.3712  3.4516
   43MOL    H9748220   1.339   5.194   5.290  0.9678  0.9154 -0.4151
   43MOL    H9848221   1.240   5.181   5.153  0.4732  1.2588  1.3435
   43MOL    H9948222   1.292   4.951   5.123 -2.6594  0.3517  0.4981
   43MOL   H10048223   1.397   4.944   5.266 -0.7469 -0.2511  1.1884
   43MOL   H10148224   1.186   4.855   5.344  0.0858 -0.8651  0.3003
   43MOL   H10248225   1.087   4.981   5.258  0.1967 -2.2631 -1.2875
   43MOL   H10348226   1.131   4.973   5.526 -0.4418 -0.7032 -1.0095
   43MOL   H10448227   1.269   5.066   5.468  0.4505  0.0427 -1.3009
   43MOL   H10548228   0.990   5.169   5.412 -0.6936  0.9725  3.2622
   43MOL   H10648229   1.152   5.226   5.384  2.2895 -1.2133 -0.2751
   43MOL   H10748230   1.195   5.224   5.636 -0.2464  3.0284  2.1661
   43MOL   H10848231   1.068   5.337   5.585 -1.4300 -1.5526 -3.8455
   43MOL   H10948232   1.143   5.225   5.841  1.3659 -1.6651  0.6170
   43MOL   H11048233   0.905   5.128   5.979 -0.0979 -1.1120  0.4747
   43MOL   H11148234   1.061   5.153   6.044  0.0578  0.9120 -0.3370
   43MOL   H11248235   0.948   4.913   5.916  0.4389 -0.9800 -1.7206
   43MOL   H11348236   1.038   4.937   6.064  0.9126 -0.7344 -0.3972
   43MOL   H11448237   1.164   4.911   5.780  0.3992  0.3700 -0.0360
   43MOL   H11548238   1.173   4.796   5.909 -0.3922 -1.1161 -1.4374
   43MOL   H11648239   1.264   5.082   5.947 -0.0012 -0.2685 -1.4549
   43MOL   H11748240   1.326   4.940   6.029 -1.0479 -0.6892 -0.1698
   43MOL   H11848241   1.436   4.855   5.842  1.0255  0.5958  0.3495
   43MOL   H11948242   1.382   4.992   5.733  0.9342  0.7713 -0.3784
   43MOL   H12048243   1.586   4.993   5.964  1.3367 -2.5991 -1.2935
   43MOL   H12148244   1.613   5.029   5.797 -0.1096 -1.7273  0.9021
   43MOL   H12248245   1.515   5.217   5.802  1.1144  0.4750  0.6390
   43MOL   H12348246   1.597   5.217   5.937 -0.3522  1.3069 -0.5552
   44MOL     C148247   0.234   6.911   6.009  0.6428 -0.0436  0.4232
   44MOL     O248248   0.259   6.866   6.122  0.1923  0.3787  0.4979
   44MOL     C348249   0.266   7.061   5.984 -0.7365 -0.3781 -0.3313
   44MOL     C448250   0.395   7.113   6.048  0.0237 -0.2591  0.3568
   44MOL     C548251   0.421   7.256   5.998 -0.8130 -0.7987 -0.4502
   44MOL     C648252   0.550   7.320   6.056 -0.0232  0.8442 -0.1998
   44MOL     C748253   0.577   7.464   6.023 -0.6842  1.4345  0.4493
   44MOL     C848254   0.612   7.484   5.876 -0.0544 -0.7349  0.0808
   44MOL     C948255   0.651   7.625   5.839  0.5255 -0.1032  0.2300
   44MOL    C1048256   0.683   7.643   5.689  0.1611  0.0211 -0.2580
   44MOL    C1148257   0.722   0.095   5.659 -0.8166 -0.2102  0.8614
   44MOL    C1248258   0.718   0.147   5.512 -0.5192  0.4065 -0.2799
   44MOL    C1348259   0.576   0.174   5.463 -0.3072 -0.5951  0.4549
   44MOL    O1448260   0.530   0.288   5.459  0.0008 -0.2911  0.0381
   44MOL    N1548261   0.498   0.069   5.433 -0.2933 -0.2502 -0.2054
   44MOL    C1648262   0.363   0.082   5.376 -0.4991  0.2038  0.3072
   44MOL    C1748263   0.313   7.634   5.316  0.6852  0.1962  0.5055
   44MOL    C1848264   0.182   7.632   5.246  0.6618 -0.2922  0.2932
   44MOL    C1948265   0.131   7.492   5.207 -0.4892 -0.0867  0.0460
   44MOL    C2048266   0.132   7.391   5.326  0.4677 -0.1889 -0.0593
   44MOL    C2148267   0.083   7.253   5.277  0.1321  0.4908 -0.6563
   44MOL    N2248268   0.052   7.163   5.388  0.2344  0.2804  0.2422
   44MOL    H2348269   0.189   7.123   6.031  0.5135 -0.1468  1.4413
   44MOL    H2448270   0.271   7.082   5.877  1.9534 -2.3796 -0.6449
   44MOL    H2548271   0.477   7.043   6.030 -0.5370 -0.4509 -1.5891
   44MOL    H2648272   0.395   7.120   6.157 -0.9823 -0.7509  0.3891
   44MOL    H2748273   0.339   7.326   6.020  0.0556 -1.0898  4.3927
   44MOL    H2848274   0.423   7.270   5.890  4.7432  0.8238 -0.3117
   44MOL    H2948275   0.548   7.307   6.165 -0.6173 -0.4471 -0.3461
   44MOL    H3048276   0.630   7.256   6.018 -1.5562 -0.8028 -0.7174
   44MOL    H3148277   0.653   7.507   6.089  0.4673  1.7297 -1.0264
   44MOL    H3248278   0.486   7.517   6.048 -0.0850  3.3082 -1.2096
   44MOL    H3348279   0.683   7.409   5.841 -0.4452 -0.4163 -1.4314
   44MOL    H3448280   0.521   7.462   5.819 -0.1614 -1.8989  0.6795
   44MOL    H3548281   0.565   7.683   5.872  0.0991 -0.0235 -0.9953
   44MOL    H3648282   0.749   7.641   5.885  0.8025 -0.0145 -0.3828
   44MOL    H3748283   0.763   7.576   5.658 -0.1248 -0.6930  0.5154
   44MOL    H3848284   0.599   7.613   5.627 -0.8307  0.9407  0.6262
   44MOL    H3948285   0.826   0.104   5.691 -1.1006  1.8001  1.2840
   44MOL    H4048286   0.669   0.164   5.724  0.1470 -0.3178  1.7850
   44MOL    H4148287   0.778   0.237   5.503 -1.2698  1.0460  0.9525
   44MOL    H4248288   0.766   0.073   5.448  1.6278  0.5239  1.1394
   44MOL    H4348289   0.537   7.668   5.437 -0.3782 -0.2086  2.4041
   44MOL    H4448290   0.350   0.160   5.301  1.2483 -1.0989 -1.3873
   44MOL    H4548291   0.291   0.118   5.450 -2.2248 -0.6574 -0.9241
   44MOL    H4648292   0.293   7.558   5.392  1.5543 -1.2979 -0.7330
   44MOL    H4748293   0.398   7.602   5.256  1.0555 -1.2267  1.7440
   44MOL    H4848294   0.106   7.681   5.307  0.9520 -1.8480  1.9537
   44MOL    H4948295   0.195   0.007   5.161 -1.1240 -2.1011 -1.4721
   44MOL    H5048296   0.190   7.458   5.122  0.2725 -1.0089  0.9303
   44MOL    H5148297   0.029   7.498   5.170  0.2039  1.2830 -1.7274
   44MOL    H5248298   0.225   7.364   5.375  0.6153 -0.3626 -0.4394
   44MOL    H5348299   0.061   7.422   5.403  1.3956 -1.6030  1.4173
   44MOL    H5448300   7.682   7.260   5.221 -1.6242 -0.8257  1.9618
   44MOL    H5548301   0.150   7.213   5.202 -0.4612 -0.7512 -0.5294
   44MOL    H5648302   0.086   7.191   5.479  0.6788  3.0556 -0.7388
   44MOL    H5748303   0.193   6.864   5.919 -0.3103  1.8013 -0.1431
   44MOL    C5848304   0.036   7.034   5.365  0.0332  0.0095 -1.0233
   44MOL    O5948305   0.019   6.978   5.257  0.0083  0.4619 -0.1861
   44MOL    C6048306   0.058   6.938   5.488 -0.8555  0.2026 -0.2774
   44MOL    C6148307   7.647   6.821   5.499 -0.7627  0.4200 -0.0634
   44MOL    C6248308   7.503   6.877   5.510 -0.3560  0.4278 -0.1684
   44MOL    C6348309   7.395   6.768   5.523 -0.9973  0.5635 -0.2852
   44MOL    C6448310   7.325   6.722   5.389  0.0253  0.3140 -0.2025
   44MOL    C6548311   7.197   6.641   5.420 -0.6786 -0.1966 -0.3612
   44MOL    C6648312   7.131   6.594   5.295 -0.9813  0.5467 -0.6532
   44MOL    C6748313   7.058   6.709   5.218 -0.5021  0.4220  0.2431
   44MOL    C6848314   6.966   6.673   5.100 -0.6891  0.0051  0.2703
   44MOL    C6948315   6.932   6.800   5.011 -0.2738 -0.5552 -0.5056
   44MOL    C7048316   6.853   6.910   5.077 -0.0801 -0.8283  0.5072
   44MOL    O7148317   6.784   6.873   5.168  0.8143  0.5403 -0.2074
   44MOL    N7248318   6.857   7.042   5.039 -0.0356  0.9185  0.3525
   44MOL    C7348319   6.764   7.147   5.076 -0.6886 -0.3925 -0.0283
   44MOL    C7448320   6.649   7.147   4.973  0.3612 -0.0895 -0.3749
   44MOL    C7548321   6.689   7.139   4.829  0.9967  0.2227 -0.0450
   44MOL    C7648322   6.567   7.130   4.739 -0.7540  0.2870  0.0423
   44MOL    C7748323   6.591   7.105   4.589  0.7165 -0.3445 -0.2251
   44MOL    C7848324   6.687   6.993   4.550 -0.1773 -0.2055 -0.1529
   44MOL    N7948325   6.666   6.970   4.407  1.2943 -0.0507  0.0667
   44MOL    H8048326   0.068   6.997   5.579 -0.0732  1.7548 -1.3409
   44MOL    H8148327   0.160   6.904   5.471 -0.4670  2.2471 -2.4183
   44MOL    H8248328   7.665   6.754   5.415  1.1999 -1.2826  1.6370
   44MOL    H8348329   7.674   6.763   5.588  1.7223  3.7635  1.4542
   44MOL    H8448330   7.489   6.932   5.417 -1.7546 -0.0045 -0.2258
   44MOL    H8548331   7.499   6.956   5.586 -0.3695 -0.1711  0.4565
   44MOL    H8648332   7.324   6.800   5.599 -0.1402  0.4674  0.5715
   44MOL    H8748333   7.437   6.673   5.555 -0.8376 -0.5242 -3.5443
   44MOL    H8848334   7.312   6.810   5.327  2.4047  2.3517  2.0623
   44MOL    H8948335   7.400   6.672   5.328  0.3065  0.5658 -0.0684
   44MOL    H9048336   7.128   6.699   5.481  0.1285 -0.6172  0.9659
   44MOL    H9148337   7.236   6.566   5.488 -0.1657 -0.1925 -0.6512
   44MOL    H9248338   7.048   6.526   5.315  0.0937  0.0549  2.3815
   44MOL    H9348339   7.205   6.539   5.238  0.6415 -0.1488  2.0498
   44MOL    H9448340   7.006   6.765   5.296  2.4844  2.1823  1.0581
   44MOL    H9548341   7.137   6.771   5.177  1.7075  0.0879  3.7965
   44MOL    H9648342   6.882   6.622   5.147  0.7479 -2.9534 -0.2697
   44MOL    H9748343   7.002   6.595   5.032 -2.2646 -0.5574  0.0571
   44MOL    H9848344   7.024   6.838   4.966 -1.3155 -0.5982 -2.7348
   44MOL    H9948345   6.871   6.768   4.927  0.8610  0.6848 -1.8451
   44MOL   H10048346   6.932   7.083   4.985  0.7394 -1.4505 -0.3953
   44MOL   H10148347   6.816   7.242   5.067  0.9060 -1.0412  1.9575
   44MOL   H10248348   6.716   7.138   5.173  1.7331  0.6625  1.3094
   44MOL   H10348349   6.594   7.055   4.993  0.4734 -0.3167 -1.1030
   44MOL   H10448350   6.576   7.228   4.982  1.4466  0.7901  0.7693
   44MOL   H10548351   6.748   7.049   4.814  0.8368  0.2783 -1.0153
   44MOL   H10648352   6.748   7.225   4.798 -1.8910  1.9001 -1.0649
   44MOL   H10748353   6.516   7.036   4.763  1.6256 -1.2531 -0.7407
   44MOL   H10848354   6.500   7.213   4.762 -2.6758 -0.7481 -1.6219
   44MOL   H10948355   6.628   7.197   4.544 -0.8005  0.7445  0.6985
   44MOL   H11048356   6.494   7.082   4.544  2.3829 -2.1771 -3.0116
   44MOL   H11148357   6.670   6.904   4.610  2.0980 -1.9529 -2.0047
   44MOL   H11248358   6.791   7.023   4.567 -0.1683 -0.2485 -0.1339
   44MOL   H11348359   6.580   6.932   4.370 -0.5208  3.7105  0.1790
   44MOL   C11448360   6.762   6.985   4.314  0.1135 -1.2073 -0.1913
   44MOL   O11548361   6.871   7.026   4.346 -0.1702 -0.2201 -0.3580
   44MOL   C11648362   6.732   6.944   4.171  0.1707 -0.4577  0.0388
   44MOL   C11748363   6.793   7.047   4.077  0.2859 -0.2745  0.8232
   44MOL   C11848364   6.732   7.049   3.939  0.0277  0.2939  0.3693
   44MOL   C11948365   6.744   6.912   3.857  0.2887  0.4820  0.7340
   44MOL   C12048366   6.691   6.927   3.708 -0.3042 -0.4267  0.2132
   44MOL   C12148367   6.681   6.792   3.638  0.3591 -0.0281 -0.1152
   44MOL   C12248368   6.644   6.806   3.494 -0.3289 -0.7633  0.7551
   44MOL   C12348369   6.557   6.696   3.457  0.2249 -0.4538  0.7471
   44MOL   C12448370   6.536   6.686   3.308  0.0726 -0.2625  0.3396
   44MOL   C12548371   6.499   6.815   3.232 -0.4908  0.2123  0.2927
   44MOL   C12648372   6.362   6.882   3.258 -0.0546 -0.1832  0.0763
   44MOL   O12748373   6.315   6.870   3.370  0.4744  0.4285  0.4378
   44MOL   N12848374   6.302   6.953   3.167  0.1345 -0.0378  0.2008
   44MOL   C12948375   6.173   7.015   3.176 -0.5424  0.3997 -0.1232
   44MOL   C13048376   6.065   6.943   3.099 -0.6004  0.7366  0.3108
   44MOL   C13148377   5.923   7.001   3.113 -0.0491  0.4693  0.1481
   44MOL   C13248378   5.855   6.975   3.252 -0.0477 -0.0653  0.5950
   44MOL   C13348379   5.824   6.823   3.287 -0.0502  0.3920 -0.3911
   44MOL   C13448380   5.758   6.793   3.429  0.4521 -0.2854 -0.4663
   44MOL   N13548381   5.769   6.655   3.469 -0.5435 -0.1359 -0.4304
   44MOL   H13648382   6.765   6.842   4.150  0.6641 -0.2868 -0.0286
   44MOL   H13748383   6.625   6.931   4.160 -0.4366  2.0739  2.4539
   44MOL   H13848384   6.898   7.020   4.067  0.0023 -0.9918 -0.2621
   44MOL   H13948385   6.788   7.152   4.107  1.4695  0.1878 -0.5012
   44MOL   H14048386   6.627   7.076   3.942 -0.6156 -2.0195 -0.6763
   44MOL   H14148387   6.774   7.132   3.882  1.3600 -0.5843  0.0430
   44MOL   H14248388   6.847   6.878   3.852  0.2928  0.7110 -1.0439
   44MOL   H14348389   6.679   6.838   3.903  1.3515  0.8156  2.8060
   44MOL   H14448390   6.590   6.968   3.702 -0.4951 -0.7373  1.2627
   44MOL   H14548391   6.756   6.983   3.640 -1.4594  0.6429 -0.0261
   44MOL   H14648392   6.625   6.715   3.692  0.4257 -1.2851 -1.8059
   44MOL   H14748393   6.781   6.748   3.636  0.5807  0.4637  0.0053
   44MOL   H14848394   6.578   6.892   3.476  0.3901 -0.2206  0.7031
   44MOL   H14948395   6.729   6.829   3.430  1.1453 -0.6705  2.7022
   44MOL   H15048396   6.467   6.723   3.512  0.4244  3.1566 -0.6154
   44MOL   H15148397   6.596   6.602   3.497  1.4634  0.6240  2.1399
   44MOL   H15248398   6.470   6.602   3.288  1.5658 -1.9267  2.1913
   44MOL   H15348399   6.631   6.654   3.264  0.3047 -0.1195  0.7266
   44MOL   H15448400   6.500   6.791   3.125  1.2042  0.4877  0.2400
   44MOL   H15548401   6.573   6.894   3.241 -1.4754  1.1681  0.0827
   44MOL   H15648402   6.366   6.983   3.095  2.2774  1.5050  2.6484
   44MOL   H15748403   6.194   7.116   3.138  1.2945  0.3307  0.6367
   44MOL   H15848404   6.138   7.018   3.279  0.6740 -1.0201  0.3453
   44MOL   H15948405   6.060   6.839   3.130  2.0147  0.3351 -0.4831
   44MOL   H16048406   6.081   6.942   2.991  0.2509 -2.6944  0.4139
   44MOL   H16148407   5.921   7.110   3.104 -0.5478  0.6094  1.8091
   44MOL   H16248408   5.857   6.974   3.031  1.6752 -1.1071 -0.7713
   44MOL   H16348409   5.918   7.021   3.328 -0.8264  0.8964  0.6602
   44MOL   H16448410   5.763   7.033   3.264  0.6335  1.4129 -1.2524
   44MOL   H16548411   5.922   6.776   3.280  0.1852  1.0444 -1.6266
   44MOL   H16648412   5.772   6.771   3.207  1.8448  2.0341 -2.7454
   44MOL   H16748413   5.817   6.853   3.499  0.6319 -1.4734  0.4129
   44MOL   H16848414   5.655   6.828   3.428 -0.0738 -1.6531  2.3933
   44MOL   H16948415   5.847   6.607   3.426  0.2453  0.3460  0.4547
   44MOL   C17048416   5.692   6.587   3.557 -0.2064 -0.1514  0.1539
   44MOL   O17148417   5.587   6.628   3.604  0.1313 -0.4687  0.4964
   44MOL   C17248418   5.733   6.447   3.596  0.0339  0.3182  0.2268
   44MOL   C17348419   5.603   6.357   3.602  0.0351 -0.8178 -0.6804
   44MOL   C17448420   5.631   6.209   3.599  0.4007  0.7669 -0.4597
   44MOL   C17548421   5.519   6.122   3.656 -0.3420  0.1049 -0.0642
   44MOL   C17648422   5.396   6.104   3.570 -0.6685  0.2350 -1.0729
   44MOL   C17748423   5.294   5.999   3.638 -0.3903 -0.2861 -0.1415
   44MOL   C17848424   5.224   6.050   3.772  0.4945  0.4448  0.9479
   44MOL   C17948425   5.127   6.161   3.725 -0.9066  0.7577 -0.8328
   44MOL   C18048426   5.058   6.229   3.843  0.1197  0.8961  0.4846
   44MOL   C18148427   4.947   6.334   3.796  0.2804 -0.4239 -0.7375
   44MOL   C18248428   5.009   6.472   3.770 -1.0100 -0.0622  0.9909
   44MOL   O18348429   5.074   6.531   3.859  0.0382  0.5368  0.4041
   44MOL   N18448430   4.986   6.538   3.653 -0.3748 -0.3332 -0.5360
   44MOL   C18548431   5.037   6.670   3.605 -0.2591  0.4022  0.1830
   44MOL   C18648432   5.104   6.668   3.464  0.0738  0.0768  0.2120
   44MOL   C18748433   5.236   6.590   3.453 -0.1144 -0.8993 -0.1968
   44MOL   C18848434   5.296   6.564   3.315 -0.4892  0.3815 -0.0701
   44MOL   C18948435   5.307   6.694   3.232  0.0506  0.2662  0.1488
   44MOL   C19048436   5.415   6.676   3.125  0.4693  0.8580  0.1715
   44MOL   N19148437   5.442   6.798   3.051 -0.3429  0.5031  0.7422
   44MOL   H19248438   5.808   6.409   3.527  0.3524 -0.3352  0.9266
   44MOL   H19348439   5.774   6.453   3.696  0.3614  1.2561  0.0376
   44MOL   H19448440   5.542   6.391   3.518 -1.6118 -0.1444  0.7595
   44MOL   H19548441   5.547   6.390   3.690  0.9005 -5.1252  1.5912
   44MOL   H19648442   5.721   6.190   3.658  0.2057  0.1193 -0.3700
   44MOL   H19748443   5.649   6.175   3.498 -1.1625  1.1024 -0.8586
   44MOL   H19848444   5.555   6.023   3.682  1.1939  0.5749 -0.3194
   44MOL   H19948445   5.503   6.161   3.756 -0.5428  0.4973 -0.2458
   44MOL   H20048446   5.340   6.196   3.547  0.6684  1.0882 -0.9536
   44MOL   H20148447   5.426   6.078   3.469 -2.4217  0.8976 -1.7852
   44MOL   H20248448   5.343   5.909   3.676 -0.6003  0.1484  1.1840
   44MOL   H20348449   5.213   5.963   3.575 -1.2127  0.6411  0.3684
   44MOL   H20448450   5.179   5.960   3.812 -0.1030  0.4814  0.3770
   44MOL   H20548451   5.295   6.086   3.846  1.0951 -2.7337  1.9494
   44MOL   H20648452   5.171   6.242   3.666  0.9983 -0.3193 -0.9351
   44MOL   H20748453   5.052   6.117   3.659  1.0343  0.1816 -2.7269
   44MOL   H20848454   5.133   6.282   3.901  0.9377  1.2508 -0.8804
   44MOL   H20948455   5.015   6.145   3.899  1.3899  0.6425  1.1171
   44MOL   H21048456   4.885   6.298   3.714 -0.7025 -1.1545  0.2953
   44MOL   H21148457   4.873   6.337   3.876  0.5574  0.6211 -0.5183
   44MOL   H21248458   4.931   6.486   3.586  3.2726 -1.7901 -2.5341
   44MOL   H21348459   5.102   6.699   3.688  1.2818 -3.6214  0.4706
   44MOL   H21448460   4.953   6.741   3.602 -0.7105 -0.0486  1.7013
   44MOL   H21548461   5.026   6.631   3.397  0.6762  0.8164 -0.9126
   44MOL   H21648462   5.115   6.773   3.438  0.7179 -0.2822 -0.9996
   44MOL   H21748463   5.317   6.628   3.516 -1.1958  1.8548 -0.3945
   44MOL   H21848464   5.225   6.496   3.507 -0.5067 -0.4675  0.4854
   44MOL   H21948465   5.247   6.488   3.255 -0.2131  1.8347 -2.2163
   44MOL   H22048466   5.393   6.526   3.346 -0.0854  0.1708 -1.5502
   44MOL   H22148467   5.338   6.777   3.296  0.1330 -0.2551  0.7853
   44MOL   H22248468   5.213   6.721   3.185  0.9559 -2.8824 -3.7586
   44MOL   H22348469   5.383   6.591   3.065  1.8985  0.4065  0.0335
   44MOL   H22448470   5.505   6.647   3.179  0.1361  0.9094  0.7551
   44MOL   H22548471   5.375   6.874   3.048 -0.2073  0.5713 -0.7716
   44MOL   C22648472   5.552   6.812   2.973 -0.4329 -1.3458 -0.1865
   44MOL   O22748473   5.626   6.717   2.957 -0.6998 -0.0794 -0.3317
   44MOL   C22848474   5.578   6.950   2.923  0.1892 -0.0714 -0.1491
   44MOL   C22948475   5.685   6.952   2.809  0.3325  0.4989 -0.3799
   44MOL   C23048476   5.737   7.094   2.779  0.6991  0.0623 -1.0701
   44MOL   C23148477   5.834   7.099   2.663  0.5118 -0.2578  0.5310
   44MOL   C23248478   5.753   7.113   2.531 -0.1772  0.5424 -0.4134
   44MOL   C23348479   5.841   7.140   2.412 -0.9548 -0.4698  0.5250
   44MOL   C23448480   5.760   7.193   2.289 -0.4053  0.8269 -0.2289
   44MOL   C23548481   5.648   7.088   2.245 -0.5622  0.1504  0.4891
   44MOL   C23648482   5.568   7.137   2.121  0.5221 -0.0177  0.3457
   44MOL   C23748483   5.444   7.049   2.093  0.1456  1.1389 -1.0541
   44MOL   C23848484   5.370   7.090   1.969 -0.2329  1.1269  0.3717
   44MOL   O23948485   5.316   7.197   1.963 -0.1962 -0.1887 -0.1920
   44MOL   N24048486   5.349   6.993   1.878 -0.0676  0.1071 -0.1269
   44MOL   C24148487   5.278   7.014   1.756 -0.1127  0.5887  0.0722
   44MOL   C24248488   5.125   6.999   1.780  0.2399  0.4105  0.4284
   44MOL   C24348489   5.053   7.009   1.645 -0.6014  0.0068  0.4652
   44MOL   C24448490   4.898   6.990   1.668 -0.3393  0.0864 -0.0244
   44MOL   C24548491   4.812   7.013   1.544 -0.6294 -0.2555  0.2805
   44MOL   C24648492   4.665   7.031   1.582 -0.3549  0.0987  0.4672
   44MOL   N24748493   4.613   6.913   1.650 -0.4397  0.3342  0.1119
   44MOL   H24848494   5.612   7.018   3.001  2.7751 -2.5784  0.9899
   44MOL   H24948495   5.485   6.985   2.877 -0.1657  0.7039  1.1170
   44MOL   H25048496   5.768   6.892   2.846  0.4487 -1.4979 -3.6404
   44MOL   H25148497   5.643   6.894   2.727 -1.1136 -2.4038  2.2737
   44MOL   H25248498   5.648   7.153   2.759  0.0631 -0.3553  0.4132
   44MOL   H25348499   5.781   7.144   2.865 -3.3711 -0.3041  1.3741
   44MOL   H25448500   5.899   7.011   2.661  0.5621 -0.2227  0.6036
   44MOL   H25548501   5.896   7.189   2.660 -0.0566  0.1798  1.6546
   44MOL   H25648502   5.693   7.203   2.541  0.2954  0.7932  0.2339
   44MOL   H25748503   5.691   7.024   2.519  0.5495  0.2044 -1.6678
   44MOL   H25848504   5.913   7.219   2.433 -2.5763  1.3358 -0.4981
   44MOL   H25948505   5.901   7.053   2.386  1.2543  0.7859  1.3170
   44MOL   H26048506   5.822   7.206   2.200 -0.2602  1.4406 -0.0325
   44MOL   H26148507   5.720   7.289   2.319 -1.6018  0.4087 -0.4423
   44MOL   H26248508   5.697   6.994   2.221 -0.1358  0.4886  0.0182
   44MOL   H26348509   5.582   7.074   2.331 -0.1353 -1.0310  0.6361
   44MOL   H26448510   5.545   7.243   2.133 -3.3619 -0.5706 -1.7478
   44MOL   H26548511   5.635   7.130   2.035 -2.1987 -0.3393 -1.7946
   44MOL   H26648512   5.475   6.945   2.082 -1.9321  0.0050  3.0164
   44MOL   H26748513   5.376   7.074   2.174  0.5986  0.7260 -0.5428
   44MOL   H26848514   5.374   6.896   1.889 -1.1065 -0.1448  0.0568
   44MOL   H26948515   5.298   6.936   1.683 -0.4224  2.5467 -2.2044
   44MOL   H27048516   5.305   7.111   1.714 -2.0739  2.5410  3.1365
   44MOL   H27148517   5.094   7.082   1.844 -0.9027 -0.0361  0.4665
   44MOL   H27248518   5.092   6.905   1.824  0.2944 -0.5478 -1.5070
   44MOL   H27348519   5.078   7.095   1.583  2.1105  1.9492  4.0842
   44MOL   H27448520   5.087   6.923   1.588 -0.2120 -0.0345  0.7586
   44MOL   H27548521   4.860   7.064   1.739 -2.1575  2.0762 -2.9418
   44MOL   H27648522   4.873   6.896   1.717  2.6175 -0.4243  0.5768
   44MOL   H27748523   4.828   6.938   1.467 -1.9370 -0.8073  0.5420
   44MOL   H27848524   4.844   7.106   1.496 -0.4001 -0.1840  0.5655
   44MOL   H27948525   4.615   7.054   1.488 -1.5693  0.3175  1.1480
   44MOL   H28048526   4.663   7.122   1.642 -0.9085  0.4687 -0.0988
   44MOL   H28148527   4.587   6.832   1.595 -1.4450  0.5066  0.3115
   44MOL   C28248528   4.585   6.898   1.776  0.3526  0.0825 -0.3948
   44MOL   O28348529   4.586   6.992   1.849 -0.0876 -0.3857 -0.3159
   44MOL   C28448530   4.559   6.754   1.828 -0.6841 -0.0666  0.2711
   44MOL   C28548531   4.651   6.711   1.940  0.1144  0.2921 -0.0216
   44MOL   C28648532   4.801   6.668   1.908 -0.6068 -0.2204  0.3245
   44MOL   C28748533   4.903   6.678   2.024  0.4320  0.0905  0.2281
   44MOL   C28848534   4.919   6.814   2.083  0.3001 -0.8693 -0.4669
   44MOL   C28948535   5.055   6.838   2.152 -0.3542 -0.3712 -0.5252
   44MOL   C29048536   5.081   6.980   2.211  0.9385 -0.5037 -0.6961
   44MOL   C29148537   4.973   7.023   2.320  0.1562  0.5409 -0.0427
   44MOL   C29248538   5.013   7.158   2.387  0.4168 -0.4998  0.2018
   44MOL   C29348539   4.891   7.230   2.452  0.0345 -0.5472 -0.2951
   44MOL   C29448540   4.831   7.150   2.567 -0.1333  0.6679  0.5477
   44MOL   O29548541   4.900   7.129   2.662  0.2703 -0.3669  0.0551
   44MOL   N29648542   4.706   7.104   2.554 -0.6895 -0.0595  0.1224
   44MOL   C29748543   4.620   7.047   2.654  0.9045 -0.1361  0.4705
   44MOL   C29848544   4.600   7.141   2.784 -0.5705  0.5597  0.3331
   44MOL   C29948545   4.475   7.109   2.871 -0.7703 -0.5508  0.8300
   44MOL   C30048546   4.435   7.216   2.970 -0.2503 -0.2007  0.3785
   44MOL   C30148547   4.347   7.172   3.088 -0.2876 -0.0852  0.1653
   44MOL   C30248548   4.304   7.293   3.179  0.3762 -0.4407 -0.0718
   44MOL   N30348549   4.234   7.237   3.289  0.0748  0.2781 -0.4497
   44MOL   H30448550   4.454   6.753   1.857 -0.1946 -0.1984  2.1381
   44MOL   H30548551   4.571   6.685   1.744  0.1103  0.2007  0.1586
   44MOL   H30648552   4.611   6.618   1.981 -2.2389  2.2437  2.2475
   44MOL   H30748553   4.636   6.769   2.031 -2.1184 -0.8802  0.3911
   44MOL   H30848554   4.796   6.562   1.885 -1.8732  0.0935 -0.9064
   44MOL   H30948555   4.838   6.709   1.814 -0.1148 -0.7588  0.2816
   44MOL   H31048556   4.994   6.653   1.969 -0.2130  0.7190 -1.1229
   44MOL   H31148557   4.881   6.607   2.104 -0.1132 -0.4539 -0.3930
   44MOL   H31248558   4.906   6.880   1.997 -1.3391 -2.0973 -1.1961
   44MOL   H31348559   4.835   6.841   2.147 -0.9181  0.6942 -2.6439
   44MOL   H31448560   5.050   6.760   2.227 -3.4245  0.5199  0.2757
   44MOL   H31548561   5.147   6.813   2.099  0.8671  1.0634  0.8303
   44MOL   H31648562   5.076   7.044   2.123  1.6209 -0.9222 -1.0407
   44MOL   H31748563   5.184   6.992   2.244 -0.0385  0.0988  2.2468
   44MOL   H31848564   4.965   6.957   2.407  0.3286 -0.3099 -0.6651
   44MOL   H31948565   4.880   7.044   2.269 -0.0357  1.9083  0.8235
   44MOL   H32048566   5.085   7.141   2.467 -2.2804  2.7423  3.5102
   44MOL   H32148567   5.068   7.216   2.313  0.1973 -2.4338 -1.5066
   44MOL   H32248568   4.931   7.319   2.502  2.2796 -2.7584  1.9912
   44MOL   H32348569   4.817   7.258   2.378  0.7227  1.3604 -0.2931
   44MOL   H32448570   4.658   7.126   2.467 -0.5299  3.2474  0.8089
   44MOL   H32548571   4.652   6.946   2.681  2.3996  0.0302 -0.6270
   44MOL   H32648572   4.523   7.041   2.604  1.2987 -1.1314 -0.2005
   44MOL   H32748573   4.585   7.238   2.736 -0.1387  0.4026 -0.1227
   44MOL   H32848574   4.687   7.152   2.849 -0.5045 -0.2349  0.3751
   44MOL   H32948575   4.508   7.022   2.929  0.6706 -0.8734 -0.4319
   44MOL   H33048576   4.391   7.067   2.815  0.8609 -2.0610 -0.5765
   44MOL   H33148577   4.528   7.260   3.004  0.4451 -0.9843 -0.4858
   44MOL   H33248578   4.389   7.295   2.911  1.7615  1.4509  0.9570
   44MOL   H33348579   4.408   7.114   3.158 -0.2359 -2.2269 -1.6075
   44MOL   H33448580   4.257   7.121   3.051 -0.4672  1.1603 -1.1519
   44MOL   H33548581   4.390   7.352   3.210  0.0755  0.3259 -0.6841
   44MOL   H33648582   4.243   7.368   3.129 -1.2092  0.1737  2.6611
   44MOL   H33748583   4.214   7.139   3.271  2.0954 -0.1874 -0.3517
   44MOL   C33848584   4.221   7.285   3.409  0.3563  0.0235  0.2135
   44MOL   O33948585   4.268   7.395   3.444  0.0293  0.2473  0.2244
   44MOL   C34048586   4.175   7.192   3.520  0.0071  0.3689  0.0448
   44MOL   C34148587   4.041   7.236   3.581  0.2289 -0.8513 -0.3321
   44MOL   C34248588   3.912   7.199   3.505  0.3459 -1.3591 -0.5786
   44MOL   C34348589   3.904   7.061   3.441 -0.3006  0.2518  0.0606
   44MOL   C34448590   3.923   6.943   3.542 -0.6192 -0.1863 -0.0133
   44MOL   C34548591   3.904   6.806   3.474  0.5309 -0.1187 -0.2656
   44MOL   C34648592   3.951   6.688   3.559 -0.3050  0.0705 -0.1102
   44MOL   C34748593   4.105   6.676   3.573  1.4007 -0.8111  0.0023
   44MOL   C34848594   4.189   6.646   3.453  0.1192 -0.6207  1.2202
   44MOL   C34948595   4.341   6.667   3.469 -0.1461 -0.3738 -0.0118
   44MOL   C35048596   4.398   6.791   3.409  0.5298  0.8561  0.7603
   44MOL   O35148597   4.329   6.873   3.352  0.3429  0.0617 -0.0652
   44MOL   N35248598   4.517   6.823   3.454  0.1130  0.3961 -0.4727
   44MOL   C35348599   4.594   6.939   3.415 -0.0168  0.3969  0.5284
   44MOL   C35448600   4.751   6.902   3.432  0.1363 -0.1513 -0.2403
   44MOL   C35548601   4.842   6.995   3.348 -0.1971 -0.6674  0.3485
   44MOL   C35648602   4.880   6.924   3.211  0.5917 -0.0086  0.4341
   44MOL   C35748603   4.938   7.023   3.116  0.6191 -0.1185  0.3335
   44MOL   C35848604   4.980   6.952   2.980  0.1443  0.4962 -1.0077
   44MOL   N35948605   5.055   7.053   2.892  0.2715 -0.0281 -0.4246
   44MOL   H36048606   4.260   7.180   3.586 -1.1955  1.0828  1.7580
   44MOL   H36148607   4.168   7.090   3.481  0.7853  0.7569 -1.1280
   44MOL   H36248608   4.046   7.201   3.684 -1.4327  0.6432  0.2890
   44MOL   H36348609   4.049   7.344   3.594  2.1833 -1.0222 -0.0857
   44MOL   H36448610   3.893   7.269   3.424  1.3263 -0.6114 -0.1723
   44MOL   H36548611   3.823   7.201   3.569  1.1711 -0.0500  0.5485
   44MOL   H36648612   3.804   7.055   3.399 -0.0898  0.2872 -0.4450
   44MOL   H36748613   3.973   7.061   3.357 -0.8513 -1.3190 -0.4024
   44MOL   H36848614   4.025   6.947   3.580 -0.4345 -0.4504 -0.4763
   44MOL   H36948615   3.858   6.972   3.624  0.9906  1.6132  0.6580
   44MOL   H37048616   3.802   6.784   3.445 -0.0714  0.4072  1.3646
   44MOL   H37148617   3.958   6.804   3.380 -0.3565  1.9204 -0.8404
   44MOL   H37248618   3.891   6.701   3.650 -0.4158  1.1924 -0.3478
   44MOL   H37348619   3.910   6.594   3.522 -1.9903  1.1994 -1.1390
   44MOL   H37448620   4.147   6.770   3.608  0.3161  0.0425 -0.9213
   44MOL   H37548621   4.128   6.609   3.656  2.7923 -0.2933  0.0429
   44MOL   H37648622   4.156   6.713   3.374  2.3307  0.4356  1.1607
   44MOL   H37748623   4.167   6.542   3.430  2.6613 -0.3842 -2.5989
   44MOL   H37848624   4.375   6.652   3.571  2.6021 -1.0679 -0.9741
   44MOL   H37948625   4.390   6.584   3.417  0.0760 -0.3745  0.1962
   44MOL   H38048626   4.574   6.747   3.488 -0.5092 -0.2659 -0.9276
   44MOL   H38148627   4.560   7.028   3.468  0.4702 -0.9226  3.1585
   44MOL   H38248628   4.566   6.957   3.311  0.3574 -1.5886  0.0568
   44MOL   H38348629   4.781   6.798   3.416 -2.6409 -1.2070  0.9700
   44MOL   H38448630   4.765   6.923   3.538  1.5468  1.9719 -0.8245
   44MOL   H38548631   4.792   7.091   3.336 -0.4175 -0.8223  0.0202
   44MOL   H38648632   4.930   7.025   3.404 -0.5498 -0.4671  0.7975
   44MOL   H38748633   4.948   6.844   3.239  1.5839  0.8460  0.5147
   44MOL   H38848634   4.796   6.886   3.152  0.1309 -1.1071  1.7684
   44MOL   H38948635   5.013   7.080   3.170  1.6432 -3.8997  3.1000
   44MOL   H39048636   4.859   7.091   3.086  1.3093 -0.7191 -3.0728
   44MOL   H39148637   5.030   6.857   3.000 -1.1961 -0.2066 -0.9586
   44MOL   H39248638   4.887   6.930   2.929  0.7798 -2.8631 -0.7946
   44MOL   H39348639   4.995   7.116   2.840 -1.7451  0.2633  2.1666
   44MOL   C39448640   5.185   7.066   2.888 -0.0182  0.5071  0.6870
   44MOL   O39548641   5.257   7.014   2.966 -0.3640 -0.6312 -0.6505
   44MOL   C39648642   5.240   7.161   2.778 -0.3751 -0.0158  0.4501
   44MOL   C39748643   5.324   7.095   2.669 -0.3500  0.1378  0.1187
   44MOL   C39848644   5.274   6.954   2.621 -0.0230 -0.9244 -0.2390
   44MOL   C39948645   5.350   6.905   2.498 -0.9622 -0.3508 -0.3594
   44MOL   C40048646   5.336   6.755   2.455 -0.3950  0.3043 -0.2395
   44MOL   C40148647   5.478   6.679   2.440  0.6318 -0.4040 -0.5409
   44MOL   C40248648   5.568   6.722   2.322 -0.2847  0.6103 -0.5959
   44MOL   C40348649   5.544   6.653   2.188 -0.6164  0.0489 -0.2177
   44MOL   C40448650   5.656   6.676   2.083  0.0418  0.0799 -0.1114
   44MOL   C40548651   5.634   6.588   1.954  0.0767  0.3516  0.5651
   44MOL   C40648652   5.512   6.633   1.879 -0.0361 -0.2298  0.2748
   44MOL   O40748653   5.488   6.753   1.848  0.6611 -0.7695  0.1373
   44MOL   N40848654   5.426   6.543   1.837  0.6871 -0.5897  0.4754
   44MOL   C40948655   5.288   6.562   1.792  0.1700 -0.0989  0.7154
   44MOL   C41048656   5.283   6.556   1.647  0.1694 -0.7883  0.7660
   44MOL   C41148657   5.136   6.561   1.592  0.9138 -0.3877 -0.1946
   44MOL   C41248658   5.131   6.572   1.442 -0.4752 -0.1377  0.3580
   44MOL   C41348659   5.177   6.709   1.385  0.2064  0.7470 -0.5977
   44MOL   C41448660   5.199   6.713   1.234 -1.3523  0.1985 -0.5779
   44MOL   N41548661   5.293   6.613   1.189  0.2160 -0.6106 -0.6856
   44MOL   H41648662   5.306   7.230   2.831  1.5796 -1.4515 -0.0585
   44MOL   H41748663   5.168   7.230   2.734 -1.0446 -0.5206  0.7426
   44MOL   H41848664   5.426   7.075   2.704 -1.8065 -3.9559  2.3566
   44MOL   H41948665   5.340   7.158   2.582 -1.1367 -0.5455 -0.5199
   44MOL   H42048666   5.173   6.964   2.581  0.2512  1.6204 -0.4060
   44MOL   H42148667   5.294   6.889   2.706 -1.6456  0.8021  1.5120
   44MOL   H42248668   5.457   6.917   2.519 -1.1658 -0.9436  1.0597
   44MOL   H42348669   5.339   6.971   2.412  1.0462  0.5232 -0.0004
   44MOL   H42448670   5.288   6.698   2.535  1.7283 -0.1842  0.7240
   44MOL   H42548671   5.281   6.744   2.361 -1.6342 -0.7740  0.5852
   44MOL   H42648672   5.540   6.694   2.528  1.1041  0.2781 -0.9733
   44MOL   H42748673   5.466   6.571   2.437  1.7878 -0.5476 -0.2780
   44MOL   H42848674   5.565   6.831   2.318 -2.5906  0.5304 -1.6931
   44MOL   H42948675   5.675   6.702   2.327 -0.5353 -0.6463 -0.0444
   44MOL   H43048676   5.521   6.547   2.203  0.1797 -0.1861 -0.6354
   44MOL   H43148677   5.446   6.687   2.153 -0.2279 -1.1070 -2.5283
   44MOL   H43248678   5.752   6.647   2.126 -0.5687 -0.8299  0.6633
   44MOL   H43348679   5.659   6.781   2.053 -2.2372  0.2772  0.1946
   44MOL   H43448680   5.718   6.588   1.885 -2.1749 -0.9098 -2.2761
   44MOL   H43548681   5.632   6.484   1.988 -2.5019  0.0207 -0.5269
   44MOL   H43648682   5.455   6.446   1.828 -0.3390 -0.7229 -1.5806
   44MOL   H43748683   5.254   6.659   1.830  2.5028  1.8273 -1.9282
   44MOL   H43848684   5.225   6.485   1.838  2.0927 -1.1977  1.5680
   44MOL   H43948685   5.335   6.468   1.610  0.3970  0.4161 -1.9246
   44MOL   H44048686   5.353   6.633   1.613 -1.1314  0.2690  0.4465
   44MOL   H44148687   5.080   6.476   1.629  1.1287 -0.7773 -0.7606
   44MOL   H44248688   5.078   6.648   1.623 -0.6742 -1.1781 -0.9192
   44MOL   H44348689   5.179   6.487   1.393 -0.9556 -0.7039  0.8622
   44MOL   H44448690   5.027   6.557   1.413 -0.4512  1.6711 -0.7333
   44MOL   H44548691   5.101   6.775   1.427 -0.9548 -2.3916  2.4122
   44MOL   H44648692   5.278   6.733   1.418  0.2226 -1.6575  1.1853
   44MOL   H44748693   5.104   6.690   1.187 -1.3437  0.3615 -0.6798
   44MOL   H44848694   5.241   6.806   1.196  0.6764  0.2826  1.7392
   44MOL   H44948695   5.387   6.637   1.218 -0.0656  0.8043 -0.9472
   44MOL   C45048696   5.271   6.497   1.131  0.4488  0.5868 -0.6716
   44MOL   O45148697   5.167   6.474   1.073  0.1651 -0.2559 -0.5138
   44MOL   C45248698   5.388   6.389   1.134 -0.0964  0.3324 -0.2290
   44MOL   C45348699   5.400   6.269   1.036 -0.6054  0.3624 -0.2873
   44MOL   C45448700   5.277   6.181   1.069 -0.2658  0.2606 -0.8853
   44MOL   C45548701   5.299   6.047   0.990  0.2271  0.5491  0.0672
   44MOL   C45648702   5.243   6.069   0.849 -0.7936 -0.1917  0.3591
   44MOL   C45748703   5.233   5.946   0.754  0.4923 -0.3410  0.4755
   44MOL   C45848704   5.179   5.982   0.617 -1.1269  0.0843  0.4587
   44MOL   C45948705   5.206   5.871   0.510 -1.0898  0.0232 -0.1721
   44MOL   C46048706   5.165   5.916   0.374  0.0302 -0.4386  0.7511
   44MOL   C46148707   5.197   5.808   0.269  0.1187  0.7808  0.1387
   44MOL   C46248708   5.187   5.870   0.129  0.0418 -0.3481  0.0511
   44MOL   O46348709   5.079   5.911   0.085  0.0021 -0.7990  0.1892
   44MOL   N46448710   5.295   5.883   0.052  0.9047 -0.5530  0.2150
   44MOL   C46548711   5.287   5.952   7.617 -0.3132 -0.4480  0.1971
   44MOL   C46648712   5.304   6.104   7.632  0.2744 -0.1353 -0.0231
   44MOL   C46748713   5.289   6.188   7.503  0.0789  0.3953 -0.0420
   44MOL   C46848714   5.339   6.332   7.524  0.0482 -0.1981  0.1693
   44MOL   C46948715   5.359   6.422   7.395 -0.1829  0.4678  0.0744
   44MOL   C47048716   5.481   6.368   7.315 -0.2569 -0.2632 -0.1523
   44MOL   N47148717   5.533   6.448   7.202  0.4078  0.3010  0.2245
   44MOL   H47248718   5.470   6.449   1.094 -0.6254  2.1652  1.3604
   44MOL   H47348719   5.423   6.362   1.233  0.6531 -2.3750 -1.1842
   44MOL   H47448720   5.497   6.222   1.047 -0.5712  0.1657 -1.3824
   44MOL   H47548721   5.381   6.302   0.934 -1.7803  1.2308  0.1884
   44MOL   H47648722   5.184   6.232   1.044 -1.3719 -1.3554 -0.2070
   44MOL   H47748723   5.280   6.154   1.175 -0.0510  0.5095 -0.8283
   44MOL   H47848724   5.240   5.963   1.027  1.8162 -0.9243 -0.6521
   44MOL   H47948725   5.406   6.024   0.989  0.4503  1.5773 -0.8456
   44MOL   H48048726   5.304   6.143   0.796 -2.5319  2.6938  2.2955
   44MOL   H48148727   5.149   6.123   0.863  1.9388  5.3423 -1.1372
   44MOL   H48248728   5.169   5.876   0.808 -0.9349  0.9096  0.4347
   44MOL   H48348729   5.330   5.898   0.746  0.0204 -1.1303 -0.6448
   44MOL   H48448730   5.073   6.008   0.621 -0.8940  1.3399 -1.2660
   44MOL   H48548731   5.223   6.078   0.593 -0.9561  0.1790  1.1307
   44MOL   H48648732   5.312   5.847   0.517 -1.2037 -0.6901 -0.8292
   44MOL   H48748733   5.165   5.776   0.544 -0.8046  1.0294  3.1592
   44MOL   H48848734   5.201   6.015   0.345  1.7653 -0.0122  4.0871
   44MOL   H48948735   5.057   5.929   0.376  0.0861 -0.1389  3.7971
   44MOL   H49048736   5.293   5.758   0.283 -0.4814 -0.5217 -0.3351
   44MOL   H49148737   5.130   5.722   0.269  1.7306 -0.4883  0.3984
   44MOL   H49248738   5.382   5.844   0.087  0.4111 -1.0479  0.9010
   44MOL   H49348739   5.195   5.941   7.559 -0.2892  1.4034 -0.2320
   44MOL   H49448740   5.368   5.916   7.554  0.5098  0.8290  0.5199
   44MOL   H49548741   5.252   6.146   0.027  0.8842  0.0746  0.2423
   44MOL   H49648742   5.404   6.117   7.673  0.8250 -0.3252 -1.3035
   44MOL   H49748743   5.186   6.175   7.470 -0.4096 -0.5433  1.7669
   44MOL   H49848744   5.348   6.137   7.428  1.6216  1.7973  0.1768
   44MOL   H49948745   5.425   6.321   7.591 -0.1442  0.4527  0.5232
   44MOL   H50048746   5.263   6.381   7.585  1.6367  1.4682  0.8707
   44MOL   H50148747   5.266   6.432   7.338  0.3689  0.3722 -0.8409
   44MOL   H50248748   5.393   6.522   7.417  0.1560  0.2736  0.4258
   44MOL   H50348749   5.557   6.351   7.391  0.2520 -1.1764 -0.8578
   44MOL   H50448750   5.452   6.272   7.272  0.3163  0.3226 -1.9084
   44MOL   H50548751   5.500   6.418   7.112 -0.8437 -0.2230  0.8420
   44MOL   C50648752   5.632   6.534   7.208 -0.8587  0.8328 -0.6947
   44MOL   O50748753   5.678   6.571   7.320  0.2937  0.5770 -0.1480
   44MOL   C50848754   5.693   6.587   7.076 -0.2944 -0.5449  0.0878
   44MOL   C50948755   5.843   6.608   7.078 -0.5888  0.5466  0.7394
   44MOL   C51048756   5.920   6.472   7.088 -0.2414  0.5156 -0.2036
   44MOL   C51148757   6.069   6.484   7.054 -0.3210  0.3221 -0.5428
   44MOL   C51248758   6.148   6.358   7.034  0.8015  0.5070 -0.1086
   44MOL   C51348759   6.274   6.353   6.953  0.4881 -0.0439  0.2814
   44MOL   C51448760   6.408   6.393   7.002  0.6389  0.7681  0.0900
   44MOL   C51548761   6.462   6.281   7.097  0.2313 -0.6260  0.3579
   44MOL   C51648762   6.614   6.292   7.111 -0.4414  0.4428  0.5029
   44MOL   C51748763   6.664   6.188   7.199  0.0243  0.5282  0.1454
   44MOL   C51848764   6.658   6.222   7.351 -0.2606 -0.4911  0.6554
   44MOL   O51948765   6.584   6.306   7.394  0.2710 -0.1137  0.0432
   44MOL   N52048766   6.740   6.148   7.433  0.6300  0.3719 -0.1974
   44MOL   C52148767   6.751   6.191   7.576  0.3574 -0.6902 -0.0080
   44MOL   C52248768   6.884   6.134   7.626  0.2124  0.0983  0.4256
   44MOL   C52348769   6.917   6.156   0.077  0.4617  0.3666  0.4302
   44MOL   C52448770   7.059   6.121   0.116 -0.0560  0.3364 -0.2839
   44MOL   C52548771   7.156   6.229   0.082 -0.2924  0.1513 -0.0191
   44MOL   C52648772   7.295   6.206   0.148  0.3476  0.4623  0.1094
   44MOL   N52748773   7.372   6.319   0.124  0.0100  0.0704 -0.2475
   44MOL   H52848774   5.648   6.685   7.061 -1.0901 -0.9244 -0.0272
   44MOL   H52948775   5.670   6.521   6.993  1.8815 -1.0983 -0.1084
   44MOL   H53048776   5.862   6.686   7.152 -0.0536  0.7085  0.4345
   44MOL   H53148777   5.858   6.645   6.977 -0.0768 -1.8083 -0.0889
   44MOL   H53248778   5.887   6.389   7.026  1.4377  0.7922 -1.5105
   44MOL   H53348779   5.909   6.432   7.189  0.3210  0.5635 -0.1215
   44MOL   H53448780   6.067   6.529   6.955 -0.9016  0.4503 -0.4782
   44MOL   H53548781   6.116   6.548   7.129 -2.2580 -0.8947  1.7805
   44MOL   H53648782   6.162   6.306   7.128  1.5185 -0.5029 -0.7709
   44MOL   H53748783   6.083   6.295   6.974 -1.4600  0.8801  1.9068
   44MOL   H53848784   6.275   6.258   6.901 -1.4238  0.1957 -0.2247
   44MOL   H53948785   6.250   6.426   6.875 -0.2230 -2.1166 -1.5059
   44MOL   H54048786   6.478   6.413   6.920  4.1630 -4.2899  1.5390
   44MOL   H54148787   6.387   6.482   7.061 -2.4910 -0.1499  0.4555
   44MOL   H54248788   6.409   6.291   7.192 -0.6752 -1.1111 -0.0848
   44MOL   H54348789   6.446   6.183   7.053  1.0879 -0.4753 -0.2864
   44MOL   H54448790   6.644   6.388   7.153 -0.0796  0.0802  1.0744
   44MOL   H54548791   6.653   6.291   7.010  1.2942 -1.2415  1.1471
   44MOL   H54648792   6.606   6.096   7.195 -0.7528  0.9750  1.1293
   44MOL   H54748793   6.770   6.163   7.188  0.2446  1.0250  1.1039
   44MOL   H54848794   6.809   6.079   7.408  0.3269  0.3233 -0.8790
   44MOL   H54948795   6.659   6.160   7.624  0.7372  0.1831  1.3086
   44MOL   H55048796   6.751   6.300   7.581 -1.2055 -0.5031 -2.8110
   44MOL   H55148797   6.956   6.198   7.573 -0.6275  0.4510 -0.3026
   44MOL   H55248798   6.899   6.029   7.603  1.0221  0.3659 -0.3124
   44MOL   H55348799   6.847   6.094   0.132  0.2968 -0.0540 -0.2495
   44MOL   H55448800   6.904   6.259   0.111  1.0080  0.0360  1.6911
   44MOL   H55548801   7.095   6.027   0.072 -2.1024 -0.9764  0.7448
   44MOL   H55648802   7.082   6.109   0.222  1.4913 -1.0757 -0.7561
   44MOL   H55748803   7.168   6.232   7.665 -0.2710  2.1435  0.0279
   44MOL   H55848804   7.128   6.329   0.115  0.9996 -0.0698  1.8134
   44MOL   H55948805   7.286   6.188   0.255  1.2278 -2.7463 -0.3015
   44MOL   H56048806   7.340   6.116   0.106 -2.0904 -0.5438 -0.4428
   44MOL   H56148807   7.330   6.401   0.167 -0.0909 -0.2819  0.3289
   44MOL   C56248808   7.495   6.326   0.080 -0.3851 -0.5425 -0.2107
   44MOL   O56348809   7.542   6.225   0.023  0.2650  0.7443 -0.0573
   44MOL   C56448810   7.564   6.458   0.085 -0.6262 -0.5270 -0.0523
   44MOL   C56548811   0.027   6.449   0.100  0.5418 -0.3638  0.2208
   44MOL   C56648812   0.077   6.355   0.208 -0.0970 -0.5604  0.1214
   44MOL   C56748813   0.224   6.374   0.236  0.2161  0.3336 -0.9685
   44MOL   C56848814   0.284   6.269   0.332  0.4151  0.1152  0.2379
   44MOL   C56948815   0.431   6.293   0.367  0.5848 -0.8158 -0.0097
   44MOL   C57048816   0.503   6.190   0.453 -0.1446  0.2231  0.1930
   44MOL   C57148817   0.422   6.153   0.572 -1.1845  0.3931  0.1029
   44MOL   C57248818   0.485   6.051   0.669  0.7505 -0.3656 -0.0343
   44MOL   C57348819   0.420   6.024   0.811 -0.4295  0.4347 -0.3574
   44MOL   C57448820   0.426   6.136   0.914  0.4327  0.2410 -0.1815
   44MOL   O57548821   0.439   6.253   0.876  0.0853 -0.2909  0.0856
   44MOL   N57648822   0.423   6.106   1.047  0.2527 -0.1625  0.1922
   44MOL   C57748823   0.433   6.196   1.162  0.2611  0.1103  0.3710
   44MOL   C57848824   0.301   6.200   1.244 -0.2238  0.0417 -0.3691
   44MOL   C57948825   0.322   6.268   1.375  0.1860 -0.0847 -0.1855
   44MOL   C58048826   0.186   6.299   1.449 -0.8977  0.2287  0.1807
   44MOL   C58148827   0.222   6.371   1.581  0.2979 -0.7781 -0.0452
   44MOL   C58248828   0.099   6.411   1.662 -0.3945 -0.3273  0.0778
   44MOL   N58348829   0.035   6.529   1.605  0.5170 -0.4038 -0.1654
   44MOL   H58448830   7.552   6.513   7.683 -2.3563 -0.4298  0.2106
   44MOL   H58548831   7.515   6.531   0.150  0.5874  1.1535 -0.9908
   44MOL   H58648832   0.066   6.429   0.000  0.3678 -0.8470  0.2490
   44MOL   H58748833   0.060   6.550   0.123 -0.4667  0.0748 -0.2303
   44MOL   H58848834   0.059   6.250   0.185  1.4167 -1.3636  2.4199
   44MOL   H58948835   0.029   6.376   0.304  3.5469 -0.2302  1.9537
   44MOL   H59048836   0.283   6.387   0.145  1.4889  0.0878 -0.1885
   44MOL   H59148837   0.245   6.470   0.283 -0.1594 -1.1770  2.4241
   44MOL   H59248838   0.224   6.258   0.423  0.1745  1.5000  0.2607
   44MOL   H59348839   0.268   6.176   0.278  0.7640 -0.3606  0.9447
   44MOL   H59448840   0.488   6.296   0.274  0.3731 -2.8759 -0.2310
   44MOL   H59548841   0.432   6.397   0.397  0.2319 -0.6287 -0.6444
   44MOL   H59648842   0.518   6.099   0.395 -0.0519  1.8459 -2.3920
   44MOL   H59748843   0.602   6.226   0.478  0.1353  0.0000 -0.5899
   44MOL   H59848844   0.330   6.102   0.545 -0.8078 -0.3561  0.2370
   44MOL   H59948845   0.404   6.250   0.619 -3.1114  0.5088 -0.8052
   44MOL   H60048846   0.582   6.087   0.702  0.5447  1.1950 -1.0304
   44MOL   H60148847   0.515   5.968   0.605 -0.2349 -0.4392 -0.4138
   44MOL   H60248848   0.318   5.990   0.795 -1.0838  1.8247  0.7147
   44MOL   H60348849   0.473   5.938   0.854 -0.4458  1.0390  0.9064
   44MOL   H60448850   0.407   6.010   1.076 -1.2939 -0.1447 -0.5520
   44MOL   H60548851   0.452   6.295   1.123 -1.3892  0.7804  1.2081
   44MOL   H60648852   0.522   6.162   1.216  0.8324  0.7364 -0.1841
   44MOL   H60748853   0.250   6.104   1.255  0.9563 -0.4888  0.5276
   44MOL   H60848854   0.227   6.257   1.186  2.3132  2.2716 -1.5583
   44MOL   H60948855   0.387   6.354   1.362  2.5223 -1.8482 -0.4162
   44MOL   H61048856   0.378   6.195   1.433 -0.1641  2.0488  2.9919
   44MOL   H61148857   0.119   6.356   1.385 -1.3768  0.6019  1.0102
   44MOL   H61248858   0.132   6.206   1.470 -1.5694  0.8196  1.0783
   44MOL   H61348859   0.282   6.461   1.563 -0.4142  0.0417  1.6072
   44MOL   H61448860   0.280   6.298   1.636  0.7907 -1.1509 -1.0440
   44MOL   H61548861   0.030   6.326   1.671 -0.5023 -0.4677 -1.8973
   44MOL   H61648862   0.110   6.439   1.767 -0.9119 -1.7876  0.5465
   44MOL   H61748863   0.085   6.615   1.617  0.5709 -0.4199 -0.2716
   44MOL   C61848864   7.611   6.531   1.527  0.2551 -0.2824  0.0676
   44MOL   O61948865   7.558   6.431   1.486 -0.4420  0.2736 -0.0371
   44MOL   C62048866   7.558   6.668   1.493 -0.0699  1.3928  0.0031
   44MOL   C62148867   7.410   6.667   1.431 -0.1350 -0.4883 -0.4592
   44MOL   C62248868   7.334   6.799   1.424  0.0155 -0.1427 -0.1062
   44MOL   C62348869   7.187   6.776   1.453  0.1212 -0.0136  0.2048
   44MOL   C62448870   7.108   6.906   1.482  0.1296 -0.0769 -0.4451
   44MOL   C62548871   7.054   6.963   1.353  0.1009 -0.0935  0.2242
   44MOL   C62648872   6.964   7.091   1.368 -0.4290  0.4936 -0.5823
   44MOL   C62748873   7.050   7.223   1.385  0.2444 -0.2575  0.2535
   44MOL   C62848874   7.146   7.270   1.271  0.0261  0.0704  0.0493
   44MOL   C62948875   7.182   7.423   1.236 -0.7743  0.4522  0.1642
   44MOL   C63048876   7.256   7.497   1.350 -0.1474 -0.7616  0.4314
   44MOL   O63148877   7.241   7.460   1.467 -0.0388 -0.0862 -0.0847
   44MOL   N63248878   7.331   7.611   1.324 -0.4340 -0.5752  0.2685
   44MOL   C63348879   7.413   7.679   1.428 -0.0800 -0.8076 -0.4240
   44MOL   C63448880   7.417   0.141   1.415 -0.4572 -0.0728  0.5547
   44MOL   C63548881   7.280   0.207   1.435  0.6318  0.9931  0.3779
   44MOL   C63648882   7.263   0.355   1.412 -0.3766 -0.1683 -0.7500
   44MOL   C63748883   7.128   0.415   1.453  0.5866 -0.0459  0.0199
   44MOL   C63848884   7.124   0.561   1.471 -0.1111 -0.5938  0.5194
   44MOL   N63948885   7.119   0.617   1.330 -0.2948 -0.5446 -0.5431
   44MOL   H64048886   7.630   6.714   1.425  0.5234  1.5143  0.7093
   44MOL   H64148887   7.567   6.741   1.573  0.5827 -0.5077  1.7080
   44MOL   H64248888   7.355   6.590   1.486 -0.0909 -0.6571 -0.6525
   44MOL   H64348889   7.412   6.637   1.327  1.2008 -1.0345 -0.2903
   44MOL   H64448890   7.355   6.867   1.341 -3.0086 -0.9189 -1.5852
   44MOL   H64548891   7.369   6.855   1.510  1.6526  0.9332 -1.4363
   44MOL   H64648892   7.135   6.730   1.369 -2.5953  1.0034  1.2718
   44MOL   H64748893   7.172   6.708   1.536  1.7317 -0.7390 -0.0666
   44MOL   H64848894   7.019   6.892   1.544 -1.3988  2.2733 -2.0017
   44MOL   H64948895   7.176   6.978   1.528  0.9650 -2.6260  2.4139
   44MOL   H65048896   6.994   6.879   1.317  1.1291 -1.1281  0.8887
   44MOL   H65148897   7.133   6.974   1.279 -0.3690 -1.3762 -0.4734
   44MOL   H65248898   6.899   7.092   1.280 -2.5200  1.5124  0.9399
   44MOL   H65348899   6.900   7.078   1.454 -0.0665 -0.2335 -0.4147
   44MOL   H65448900   6.980   7.300   1.417 -1.0419 -1.0927 -0.4622
   44MOL   H65548901   7.124   7.206   1.462 -1.6170  0.1910  2.1952
   44MOL   H65648902   7.122   7.232   1.172  2.3900 -2.9226  0.5442
   44MOL   H65748903   7.236   7.211   1.291 -0.9994 -1.6187 -0.2315
   44MOL   H65848904   7.247   7.410   1.150 -0.5911 -0.3142  0.4140
   44MOL   H65948905   7.099   7.483   1.198 -1.6713 -0.8330  0.0739
   44MOL   H66048906   7.334   7.643   1.228  1.9669  1.8790  1.1130
   44MOL   H66148907   7.391   7.663   1.533  0.2675  1.3159 -0.0083
   44MOL   H66248908   7.517   7.648   1.424 -0.3205 -1.6528 -0.2703
   44MOL   H66348909   7.468   0.168   1.322 -0.8721  1.1049  0.6575
   44MOL   H66448910   7.493   0.185   1.480  2.3023 -2.3193 -1.0075
   44MOL   H66548911   7.206   0.159   1.372  0.9164  0.9948  0.0424
   44MOL   H66648912   7.245   0.180   1.535 -1.7285  0.0408 -0.6900
   44MOL   H66748913   7.291   0.387   1.311 -0.7637  0.0039 -0.8055
   44MOL   H66848914   7.327   0.394   1.491 -0.1713 -2.5168  0.2736
   44MOL   H66948915   7.052   0.374   1.386  0.8169  0.5535 -0.6055
   44MOL   H67048916   7.101   0.376   1.551 -2.3053 -0.2375 -0.8150
   44MOL   H67148917   7.032   0.594   1.521  0.3925  1.2567  0.2524
   44MOL   H67248918   7.213   0.594   1.523 -0.2330 -0.5749  0.7181
   44MOL   H67348919   7.192   0.674   1.290  0.6482 -0.2376  1.5455
   44MOL   C67448920   7.011   0.615   1.254  0.0976  0.7114 -0.3062
   44MOL   O67548921   6.901   0.587   1.298 -0.4432  0.3432  0.2270
   44MOL   C67648922   7.032   0.641   1.100  0.0595  0.2429  0.5781
   44MOL   C67748923   6.959   0.545   1.008 -0.0958 -0.5762  1.1168
   44MOL   C67848924   6.991   0.557   0.857 -0.1325 -0.4129  0.7824
   44MOL   C67948925   6.915   0.465   0.764 -0.0437 -0.1489 -0.0144
   44MOL   C68048926   6.966   0.481   0.620  0.7024 -0.3093  0.2246
   44MOL   C68148927   6.840   0.466   0.534 -0.5262  0.3634 -0.7910
   44MOL   C68248928   6.866   0.481   0.382  0.6917  0.1930  0.4842
   44MOL   C68348929   6.735   0.499   0.301 -0.9942  0.2301  0.4274
   44MOL   C68448930   6.630   0.385   0.316 -0.6052  0.3557 -0.1998
   44MOL   C68548931   6.499   0.425   0.249 -0.3018  0.1365  0.3220
   44MOL   C68648932   6.392   0.316   0.248 -0.2781 -0.1731 -0.1245
   44MOL   O68748933   6.365   0.255   0.356 -0.0583 -0.3186  0.4926
   44MOL   N68848934   6.320   0.304   0.134 -0.1285  0.1404 -0.7234
   44MOL   C68948935   6.195   0.228   0.125 -0.4211  0.4356  1.1690
   44MOL   C69048936   6.226   0.071   0.129 -0.0289  0.1155 -0.0349
   44MOL   C69148937   6.116   7.683   0.051  0.1944  0.0771 -0.4184
   44MOL   C69248938   6.153   7.536   0.047  0.0282 -0.1020 -0.1385
   44MOL   C69348939   6.151   7.453   0.180 -0.3772  0.0095  0.4712
   44MOL   C69448940   6.226   7.319   0.172 -0.2851 -0.4550  0.2767
   44MOL   N69548941   6.366   7.328   0.130 -0.7653 -0.2228  0.8064
   44MOL   H69648942   7.138   0.634   1.079  0.1618 -0.9330  1.4107
   44MOL   H69748943   7.018   0.747   1.080  2.8989  0.8846  1.8657
   44MOL   H69848944   6.853   0.570   1.012 -0.2158  0.2792 -4.3894
   44MOL   H69948945   6.990   0.447   1.045 -0.3048 -0.7130  0.9277
   44MOL   H70048946   6.973   0.658   0.820 -2.1666 -1.2278 -0.5152
   44MOL   H70148947   7.093   0.518   0.849  0.1755 -0.0969  3.0351
   44MOL   H70248948   6.812   0.499   0.770 -0.1045 -0.2974 -0.2108
   44MOL   H70348949   6.925   0.363   0.800  0.6231 -0.6163 -1.4753
   44MOL   H70448950   7.036   0.402   0.592  0.8214 -0.3566  0.6593
   44MOL   H70548951   7.015   0.576   0.599  0.9340 -0.3679  0.5016
   44MOL   H70648952   6.805   0.366   0.561  0.7503  0.4406  1.2021
   44MOL   H70748953   6.765   0.540   0.562  0.0440  1.1203 -1.2254
   44MOL   H70848954   6.926   0.570   0.365 -0.3863  0.3471 -2.9422
   44MOL   H70948955   6.930   0.401   0.345  4.0151  2.7906  0.4430
   44MOL   H71048956   6.699   0.597   0.332  0.4197  0.5405  1.1268
   44MOL   H71148957   6.771   0.501   0.198 -0.4436  0.1722  0.6187
   44MOL   H71248958   6.611   0.369   0.422 -2.0686  0.7025 -0.3944
   44MOL   H71348959   6.684   0.300   0.276 -0.5947 -0.9993  2.5614
   44MOL   H71448960   6.459   0.514   0.298 -2.6842  0.4875 -2.1168
   44MOL   H71548961   6.520   0.456   0.146 -1.9791 -0.4126 -0.2112
   44MOL   H71648962   6.342   0.374   0.064  0.4040  0.2996 -0.3977
   44MOL   H71748963   6.115   0.264   0.190 -1.7765  0.1278 -0.2751
   44MOL   H71848964   6.147   0.252   0.029  2.1697  1.0564 -0.0051
   44MOL   H71948965   6.237   0.049   0.236  2.4394 -0.7174 -0.4190
   44MOL   H72048966   6.323   0.049   0.085 -0.8977 -0.6704 -1.5995
   44MOL   H72148967   6.020   0.007   0.100  0.0780 -1.7410 -0.0294
   44MOL   H72248968   6.110   0.029   7.640  0.6446  2.9259  0.5453
   44MOL   H72348969   6.256   7.531   0.011 -0.2610 -2.7131 -0.7226
   44MOL   H72448970   6.099   7.485   7.659  0.6665 -1.1468  0.0781
   44MOL   H72548971   6.050   7.455   0.222 -0.7459  0.1076 -0.3996
   44MOL   H72648972   6.209   7.508   0.254 -1.0083  1.1900  0.1010
   44MOL   H72748973   6.231   7.272   0.270  0.8907 -1.0609 -0.0654
   44MOL   H72848974   6.184   7.247   0.102  0.5366  1.0550 -1.8407
   44MOL   H72948975   6.381   7.318   0.031 -0.5413  1.2707  0.6876
   44MOL   C73048976   6.462   7.377   0.211 -0.1187 -0.3959 -0.4103
   44MOL   O73148977   6.451   7.381   0.335  0.2702 -0.7216  0.3974
   44MOL   C73248978   6.584   7.433   0.143  0.0539 -0.7249  0.3939
   44MOL   C73348979   6.638   7.565   0.196  0.0839 -0.0195 -0.1239
   44MOL   C73448980   6.722   7.567   0.318  0.0024 -0.3713  0.1791
   44MOL   C73548981   6.807   7.686   0.334 -0.0518 -0.2677  0.2665
   44MOL   C73648982   6.876   0.017   0.471 -0.0114  0.1391 -0.2166
   44MOL   C73748983   6.989   7.604   0.499  0.4459 -0.2258  0.3432
   44MOL   C73848984   7.041   7.626   0.647 -0.7405 -0.4257 -0.6244
   44MOL   C73948985   7.133   7.515   0.690  0.4838  0.5940 -0.5549
   44MOL   C74048986   7.222   7.569   0.805  0.0745  0.3916 -0.4072
   44MOL   C74148987   7.333   7.467   0.832 -0.6203  0.0202 -0.8209
   44MOL   C74248988   7.419   7.498   0.957  1.5281 -0.5848 -0.2036
   44MOL   O74348989   7.393   7.591   1.030 -0.5166  0.1623 -0.0125
   44MOL   N74448990   7.520   7.413   0.981 -0.1073 -0.2321 -0.1732
   44MOL   C74548991   7.584   7.394   1.108 -0.7386 -0.3742 -1.4530
   44MOL   C74648992   7.542   7.261   1.176 -0.0580 -0.6296 -0.2963
   44MOL   C74748993   7.603   7.255   1.315  0.6621 -0.1742  0.2719
   44MOL   C74848994   7.555   7.132   1.392  0.6279 -1.0378  0.3712
   44MOL   C74948995   7.598   7.127   1.537 -0.2283 -0.3708  0.0738
   44MOL   C75048996   7.570   7.255   1.621 -0.3230 -0.4699 -0.0912
   44MOL   N75148997   7.603   7.233   1.757 -0.1651 -0.7587  0.4311
   44MOL   H75248998   6.578   7.437   0.034  0.4848 -0.7906  0.3670
   44MOL   H75348999   6.659   7.361   0.176  0.4507  0.8285  3.0066
   44MOL   H75449000   6.550   7.628   0.206  1.0932  1.5689 -0.9993
   44MOL   H75549001   6.698   7.622   0.126  0.7556  0.5264  0.8955
   44MOL   H75649002   6.788   7.483   0.297 -0.7474 -1.2658  1.3470
   44MOL   H75749003   6.664   7.539   0.406  1.4462 -2.0244  0.6187
   44MOL   H75849004   6.752   0.084   0.305  3.6343  2.2877  0.7652
   44MOL   H75949005   6.882   7.684   0.254  0.1208 -0.1131  0.4232
   44MOL   H76049006   6.798   0.017   0.547  0.2685 -1.5091  0.0806
   44MOL   H76149007   6.914   0.119   0.461 -2.5100  1.0448 -0.9887
   44MOL   H76249008   6.958   7.499   0.490 -1.5798  0.1294  2.5125
   44MOL   H76349009   7.060   7.619   0.418 -1.6389  1.7816 -1.1507
   44MOL   H76449010   7.102   0.025   0.652 -1.0361 -0.0079 -3.5817
   44MOL   H76549011   6.965   7.642   0.723  1.1689  0.7590  1.1059
   44MOL   H76649012   7.075   7.429   0.721  1.0397  0.4001 -0.0347
   44MOL   H76749013   7.202   7.488   0.609  0.7125  0.5239 -0.3379
   44MOL   H76849014   7.161   7.574   0.895  0.8183  1.0455  0.0647
   44MOL   H76949015   7.271   7.663   0.778  1.0709 -0.3094 -1.0412
   44MOL   H77049016   7.293   7.367   0.843 -0.5035  0.0391 -0.2240
   44MOL   H77149017   7.394   7.482   0.743  1.1701 -1.4776  0.1284
   44MOL   H77249018   7.543   7.354   0.901  1.9023 -0.0660  0.2442
   44MOL   H77349019   7.550   7.473   1.175  0.2837  0.9755 -2.4998
   44MOL   H77449020   7.691   7.404   1.092  0.1595 -4.1016  1.4187
   44MOL   H77549021   7.568   7.175   1.114  2.3594 -0.2016  0.0798
   44MOL   H77649022   7.434   7.254   1.188 -0.2232 -0.8113 -1.8299
   44MOL   H77749023   7.567   7.348   1.359 -0.6966 -1.5183  2.0619
   44MOL   H77849024   0.020   7.261   1.313  0.5001  3.6187 -0.7882
   44MOL   H77949025   7.447   7.135   1.392  0.6335  0.9307 -1.4604
   44MOL   H78049026   7.592   7.039   1.348 -0.9449 -1.8002  0.6336
   44MOL   H78149027   0.009   7.096   1.555 -0.7592 -0.9061  2.2175
   44MOL   H78249028   7.545   7.042   1.578  0.4806 -0.0808  1.6213
   44MOL   H78349029   7.628   7.338   1.582  0.2973  0.1640  2.1258
   44MOL   H78449030   7.467   7.287   1.602  0.0862 -0.7693 -3.0560
   44MOL   H78549031   7.659   7.154   1.786 -0.2182 -0.1809  2.1360
   44MOL   C78649032   7.582   7.326   1.851 -0.7531 -0.1820  0.1254
   44MOL   O78749033   7.560   7.440   1.816  0.1851  0.5106  0.0782
   44MOL   C78849034   7.594   7.303   1.998 -0.3003 -0.1335  0.5353
   44MOL   C78949035   7.496   7.379   2.084  0.6492 -0.7607  0.0193
   44MOL   C79049036   7.350   7.334   2.086 -0.5691  0.0934  0.2340
   44MOL   C79149037   7.249   7.427   2.154 -0.5167  0.1220  0.2955
   44MOL   C79249038   7.109   7.366   2.142 -0.5746 -0.0367  0.1642
   44MOL   C79349039   7.014   7.438   2.233 -0.0229  0.0914  0.1196
   44MOL   C79449040   6.880   7.373   2.245 -0.2028 -0.2229 -0.0229
   44MOL   C79549041   6.885   7.233   2.307 -0.0618  0.0575 -0.0594
   44MOL   C79649042   6.748   7.191   2.364  0.1714 -0.0628 -0.1984
   44MOL   C79749043   6.737   7.047   2.429  0.6893 -0.1715 -0.2882
   44MOL   C79849044   6.843   7.016   2.542 -0.5687 -0.1495  0.7300
   44MOL   O79949045   6.874   7.099   2.626 -0.3047 -0.7736 -0.5008
   44MOL   N80049046   6.911   6.905   2.528 -0.6056 -0.0445 -0.4242
   44MOL   C80149047   7.021   6.857   2.611 -0.2176  0.0269  0.7876
   44MOL   C80249048   7.156   6.934   2.585 -0.4184  0.6478  0.4449
   44MOL   C80349049   7.218   6.901   2.447 -0.1271 -0.1367  0.0695
   44MOL   C80449050   7.349   6.978   2.413  0.7790  0.2448  0.4397
   44MOL   C80549051   7.434   6.903   2.314  0.4533 -0.4048  0.9637
   44MOL   C80649052   7.579   6.949   2.319  0.2931  0.4263 -0.0318
   44MOL   N80749053   7.665   6.866   2.236 -0.7047  0.7342 -0.1470
   44MOL   H80849054   0.005   7.330   2.026  0.8094 -0.3508 -3.0866
   44MOL   H80949055   7.594   7.195   2.015 -1.3218 -0.2627 -0.3120
   44MOL   H81049056   7.531   7.392   2.186 -0.6657  1.7737  0.1668
   44MOL   H81149057   7.490   7.479   2.042  1.0465 -0.1905  1.2921
   44MOL   H81249058   7.343   7.232   2.125 -0.0387 -1.5923 -3.7785
   44MOL   H81349059   7.317   7.332   1.982 -2.0876 -0.4803  0.7053
   44MOL   H81449060   7.282   7.437   2.257  0.2033 -2.1084  0.3145
   44MOL   H81549061   7.261   7.524   2.106  0.9400 -1.1791 -2.0959
   44MOL   H81649062   7.080   7.374   2.038 -0.2261  0.4637  0.1072
   44MOL   H81749063   7.104   7.259   2.166 -0.9232 -0.0853 -0.1313
   44MOL   H81849064   7.064   7.455   2.328  1.2856 -2.5244 -0.0593
   44MOL   H81949065   7.013   7.542   2.199 -0.7240  0.4091  1.0888
   44MOL   H82049066   6.814   7.429   2.311 -0.1738 -2.8586  2.3764
   44MOL   H82149067   6.839   7.380   2.145  0.7727 -1.7313 -0.5493
   44MOL   H82249068   6.909   7.154   2.236  0.6929  1.3948 -1.3127
   44MOL   H82349069   6.964   7.225   2.381 -1.2459 -1.3790  1.0741
   44MOL   H82449070   6.679   7.195   2.279 -1.0376  0.4384  0.7912
   44MOL   H82549071   6.730   7.266   2.440  1.4909 -0.8519  0.9153
   44MOL   H82649072   6.642   7.042   2.482  0.7661  0.5283 -0.0896
   44MOL   H82749073   6.751   6.971   2.352  0.5327  0.3143 -0.7966
   44MOL   H82849074   6.897   6.849   2.445 -2.1109  0.4276 -0.4925
   44MOL   H82949075   7.033   6.756   2.574  2.8888  0.2040  1.2088
   44MOL   H83049076   7.002   6.849   2.718  0.1009 -0.8105  0.7791
   44MOL   H83149077   7.234   6.919   2.659  0.5653 -0.8818 -0.8594
   44MOL   H83249078   7.133   7.040   2.589  0.0153  0.7354  0.5908
   44MOL   H83349079   7.229   6.793   2.439 -2.0978 -0.4367  1.0827
   44MOL   H83449080   7.134   6.918   2.379  0.5624 -1.2381 -1.0682
   44MOL   H83549081   7.401   7.003   2.505  1.4759  0.3063  0.0277
   44MOL   H83649082   7.311   7.076   2.383 -2.2399 -0.9616  0.0802
   44MOL   H83749083   7.381   6.920   2.220  0.8759  0.4822  0.8831
   44MOL   H83849084   7.428   6.795   2.333 -0.5508  0.0538  3.5784
   44MOL   H83949085   7.619   6.928   2.419  1.1602 -0.0726 -0.4738
   44MOL   H84049086   7.594   7.053   2.291 -3.0243  1.2854  1.2756
   44MOL   H84149087   7.672   6.887   2.138 -0.2053 -1.1418 -0.5391
   44MOL   C84249088   0.038   6.750   2.269  0.0318 -0.5251 -0.3312
   44MOL   O84349089   0.045   6.721   2.385  0.0869  0.3939  0.4493
   44MOL   C84449090   0.107   6.673   2.165  0.8471  0.1711  0.2398
   44MOL   C84549091   0.254   6.662   2.185  0.5814 -0.0797 -0.3582
   44MOL   C84649092   0.321   6.588   2.079  0.2136  0.0320  0.0099
   44MOL   C84749093   0.375   6.681   1.973 -0.0907 -0.1028  0.4157
   44MOL   C84849094   0.472   6.613   1.878  0.1482  0.1534 -0.2869
   44MOL   C84949095   0.555   6.707   1.781  0.6468 -0.0863 -0.4410
   44MOL   C85049096   0.682   6.643   1.727  0.0378 -0.1291  0.1595
   44MOL   C85149097   0.764   6.746   1.645  0.0976 -0.1783  0.2230
   44MOL   C85249098   0.729   6.767   1.493 -1.1930 -0.2404  0.2493
   44MOL   C85349099   0.793   6.884   1.411  0.5474 -0.3099 -0.3512
   44MOL   C85449100   0.727   7.017   1.440  0.1170  0.0142 -0.5802
   44MOL   O85549101   0.744   7.067   1.551  0.3334  0.2682  0.1318
   44MOL   N85649102   0.645   7.064   1.346 -0.2650  0.2404  0.2441
   44MOL   C85749103   0.554   7.166   1.382 -0.4814 -0.0003  0.5666
   44MOL   C85849104   0.473   7.218   1.255  0.3498  0.1776  0.3757
   44MOL   C85949105   0.364   7.137   1.190 -0.3579  0.1891  0.1282
   44MOL   C86049106   0.289   7.217   1.086  0.4798 -0.5512 -0.7343
   44MOL   C86149107   0.217   7.133   0.982 -0.6924  0.0682 -0.6650
   44MOL   C86249108   0.146   7.224   0.884 -0.0900  0.1906  0.9817
   44MOL   N86349109   0.082   7.152   0.780 -0.3347  0.2599  0.5413
   44MOL   H86449110   0.076   6.708   2.067 -2.3283 -0.1837  1.0383
   44MOL   H86549111   0.061   6.575   2.158 -3.3947  2.0840 -0.0910
   44MOL   H86649112   0.274   6.613   2.280  1.8001  1.4051  0.1781
   44MOL   H86749113   0.304   6.757   2.202  2.4899 -1.6499  3.4222
   44MOL   H86849114   0.406   6.535   2.123 -2.0577 -1.9480  2.1578
   44MOL   H86949115   0.254   6.514   2.036 -0.8511  0.2800  1.2109
   44MOL   H87049116   0.439   6.756   2.020 -0.1927  2.1713 -2.9576
   44MOL   H87149117   0.312   6.725   1.896  0.0583 -3.0311 -1.4563
   44MOL   H87249118   0.539   6.559   1.945 -1.5554 -1.7667 -0.0730
   44MOL   H87349119   0.414   6.538   1.824  0.4419 -0.5174  0.3104
   44MOL   H87449120   0.488   6.725   1.698 -0.4492 -1.0599  0.2243
   44MOL   H87549121   0.572   6.802   1.831  0.7351 -0.0353 -0.5661
   44MOL   H87649122   0.750   6.617   1.808  0.4285 -0.4558 -0.2714
   44MOL   H87749123   0.662   6.558   1.662 -0.5905 -2.0598  2.8509
   44MOL   H87849124   0.869   6.717   1.641  0.7034  1.9397  0.1503
   44MOL   H87949125   0.746   6.840   1.697  0.9979 -0.1759  0.5436
   44MOL   H88049126   0.622   6.777   1.478 -1.2774 -0.1025  0.9134
   44MOL   H88149127   0.753   6.674   1.440 -2.1974 -0.6615  0.5239
   44MOL   H88249128   0.900   6.895   1.427 -0.0314  0.7996  3.2588
   44MOL   H88349129   0.780   6.855   1.307 -1.4998 -0.5406 -0.0576
   44MOL   H88449130   0.642   7.031   1.251  0.2952  0.7756  0.0343
   44MOL   H88549131   0.612   7.243   1.433 -0.4375  0.8829 -0.7700
   44MOL   H88649132   0.479   7.117   1.444 -1.0872  2.4435  1.8234
   44MOL   H88749133   0.544   7.251   1.179 -0.8922  2.1748  0.0351
   44MOL   H88849134   0.430   7.313   1.287  1.1530  0.8453 -0.4890
   44MOL   H88949135   0.300   7.100   1.270 -0.9790  0.8473 -0.0630
   44MOL   H89049136   0.404   7.044   1.148 -2.5398 -2.1797  3.0405
   44MOL   H89149137   0.347   7.298   1.041 -0.9665  1.1227  0.3756
   44MOL   H89249138   0.209   7.264   1.143  1.5010  1.0940 -0.6255
   44MOL   H89349139   0.291   7.064   0.941 -1.7708 -0.7726 -1.1899
   44MOL   H89449140   0.152   7.068   1.039  2.4628 -2.8233 -0.2120
   44MOL   H89549141   0.081   7.291   0.941 -1.7488 -1.4082  0.9857
   44MOL   H89649142   0.213   7.289   0.827 -1.5090  0.2960 -0.6006
   44MOL   H89749143   0.127   7.074   0.734 -0.3543  0.2529  0.5347
   44MOL   C89849144   7.657   7.180   0.724 -0.3703 -0.0319 -0.2902
   44MOL   O89949145   7.589   7.279   0.760 -0.2477  0.0713  0.3981
   44MOL   C90049146   7.605   7.086   0.616  1.0015  0.4059  0.0552
   44MOL   C90149147   7.459   7.100   0.559  0.1609 -0.0571  0.2191
   44MOL   C90249148   7.417   7.243   0.504  0.4992 -0.1456 -0.3582
   44MOL   C90349149   7.476   7.293   0.369 -0.5837 -0.1338 -0.0808
   44MOL   C90449150   7.429   7.430   0.314  0.2222  0.5313 -0.5321
   44MOL   C90549151   7.464   7.436   0.166 -0.0781  0.7622 -0.3874
   44MOL   C90649152   7.441   7.570   0.107 -0.0121  0.0015  0.5311
   44MOL   C90749153   7.459   7.558   7.645  0.3043 -0.1521  0.2345
   44MOL   C90849154   7.467   0.008   7.585 -0.2428 -0.6760 -0.6959
   44MOL   C90949155   7.346   0.103   7.604 -0.4125  0.0451  0.4537
   44MOL   C91049156   7.216   0.043   7.557 -0.1139 -0.5301  0.1668
   44MOL   O91149157   7.216   7.691   7.448  0.2313 -0.2077 -0.2149
   44MOL   N91249158   7.110   0.043   7.638 -0.8334  0.3604  0.1183
   44MOL   C91349159   6.991   7.649   7.621  0.3684  1.0609  0.5063
   44MOL   C91449160   7.011   7.528   0.016 -0.5281 -0.2533 -0.2965
   44MOL   C91549161   6.913   7.415   7.678  0.1231  0.1619  0.0905
   44MOL   C91649162   6.941   7.347   7.538  0.9950  0.1083 -0.4931
   44MOL   C91749163   6.864   7.225   7.514  0.3553 -0.3255  0.2575
   44MOL   C91849164   6.890   7.161   7.373  0.2542  0.5104 -0.0079
   44MOL   N91949165   6.803   7.049   7.351 -0.4404  0.5939  0.1497
   44MOL   H92049166   7.676   7.092   0.534  2.2428 -0.3539  1.0437
   44MOL   H92149167   7.611   6.982   0.649  0.2467  0.2148 -0.4073
   44MOL   H92249168   7.385   7.067   0.632  1.9295  0.2960  2.1965
   44MOL   H92349169   7.444   7.046   0.465 -1.6775 -3.4956  2.3791
   44MOL   H92449170   7.416   7.325   0.575  1.3293 -0.1990 -0.2839
   44MOL   H92549171   7.315   7.228   0.469 -0.2274  1.9133  0.7944
   44MOL   H92649172   7.583   7.308   0.380 -0.8099  1.4704  0.0778
   44MOL   H92749173   7.460   7.221   0.288 -0.5402 -1.9813  1.5309
   44MOL   H92849174   7.478   7.514   0.365  0.4967 -0.8611  1.5557
   44MOL   H92949175   7.322   7.432   0.335  0.3313 -0.1036  0.1031
   44MOL   H93049176   7.570   7.410   0.171 -0.5020 -0.9407 -0.0748
   44MOL   H93149177   7.397   7.362   0.123 -0.0967  0.7776 -0.3843
   44MOL   H93249178   7.516   7.642   0.140 -0.2084  0.7642 -0.6374
   44MOL   H93349179   7.346   7.608   0.144 -0.7473 -0.6190 -0.6901
   44MOL   H93449180   7.379   7.503   7.595  1.0568 -1.2956  0.2675
   44MOL   H93549181   7.547   7.502   7.612  0.5543 -0.5734  1.5780
   44MOL   H93649182   7.558   0.062   7.610 -1.3354  1.3088 -0.8784
   44MOL   H93749183   7.490   0.003   7.479  0.7809 -0.1217 -0.5021
   44MOL   H93849184   7.330   0.123   0.018 -0.5375  1.1136  0.2359
   44MOL   H93949185   7.368   0.195   7.550  1.2460 -0.0550  0.9436
   44MOL   H94049186   7.120   0.085   0.038  0.4784 -0.4212  0.3383
   44MOL   H94149187   6.979   7.611   7.519 -3.2579 -3.6312  2.4724
   44MOL   H94249188   6.897   0.005   7.649  0.7289  1.1502  1.5828
   44MOL   H94349189   7.113   7.489   0.008  0.2390  1.5901  0.2405
   44MOL   H94449190   7.014   7.553   0.122  2.3596  2.5487 -0.9578
   44MOL   H94549191   6.921   7.338   0.063  3.3680  0.2595 -0.0793
   44MOL   H94649192   6.809   7.448   7.684 -0.1165 -0.5153 -0.2802
   44MOL   H94749193   7.046   7.334   7.511  1.1069  0.7505 -0.3850
   44MOL   H94849194   6.899   7.417   7.466 -1.2082  0.5311  1.1129
   44MOL   H94949195   6.898   7.157   7.593  0.8962 -1.3444 -0.8472
   44MOL   H95049196   6.758   7.249   7.520  0.8467  2.0351 -0.0491
   44MOL   H95149197   6.993   7.133   7.353  0.2576  1.2272 -1.0253
   44MOL   H95249198   6.857   7.231   7.296 -0.0182 -0.5292 -0.8506
   44MOL   H95349199   6.734   7.069   7.281 -1.0895  1.3003  0.9864
   44MOL   C95449200   6.824   6.922   7.394 -0.2929 -0.6507  0.2988
   44MOL   O95549201   6.928   6.894   7.450 -0.6684  0.0622 -0.3968
   44MOL   C95649202   6.722   6.815   7.353  0.0279  0.4090 -0.2467
   44MOL   C95749203   6.723   6.680   7.431  0.8885  0.0371  1.1516
   44MOL   C95849204   6.691   6.698   7.585  1.0237  0.3101 -0.5064
   44MOL   C95949205   6.666   6.565   7.653  0.2298  0.4805  0.3707
   44MOL   C96049206   6.606   6.570   0.104 -0.1490  0.3147  1.2621
   44MOL   C96149207   6.599   6.430   0.153 -0.2745 -0.6725  0.4902
   44MOL   C96249208   6.515   6.416   0.283  0.4331 -0.2423  0.0220
   44MOL   C96349209   6.504   6.270   0.337  0.0748  0.0264  0.5985
   44MOL   C96449210   6.626   6.227   0.426  0.1092  0.5765 -0.7431
   44MOL   C96549211   6.605   6.097   0.502 -0.1033  0.3468  0.1211
   44MOL   C96649212   6.729   6.051   0.580 -0.4953 -0.1814 -0.6506
   44MOL   O96749213   6.845   6.088   0.554  0.4013  0.0625 -0.1142
   44MOL   N96849214   6.701   5.986   0.692 -0.2397 -0.5068 -0.4954
   44MOL   C96949215   6.791   5.895   0.763 -0.0768 -1.1516 -0.2548
   44MOL   C97049216   6.770   5.912   0.912  0.0511  0.3945 -0.2879
   44MOL   C97149217   6.835   6.043   0.956 -0.1283 -0.7014 -0.2610
   44MOL   C97249218   6.787   6.094   1.097 -0.2073 -0.4727  0.7617
   44MOL   C97349219   6.837   6.014   1.210 -0.6543  0.5891 -0.8591
   44MOL   C97449220   6.829   6.081   1.355  0.0577 -0.5051 -0.2010
   44MOL   N97549221   6.868   5.994   1.465  0.7379 -0.3375  0.4320
   44MOL   H97649222   6.625   6.858   7.328  0.1538  1.1923  0.6061
   44MOL   H97749223   6.767   6.800   7.254 -2.7282  0.8021 -1.6122
   44MOL   H97849224   6.820   6.634   7.411  0.7247  0.1576  0.0214
   44MOL   H97949225   6.651   6.609   7.391  0.0704 -0.0244  2.7112
   44MOL   H98049226   6.774   6.743   7.641  1.5759 -2.3686  0.9733
   44MOL   H98149227   6.608   6.767   7.596  2.5274  2.4452 -2.2666
   44MOL   H98249228   6.607   6.497   7.592  2.2715 -0.3473 -0.7242
   44MOL   H98349229   6.762   6.516   7.667 -0.8465 -1.8369 -0.2353
   44MOL   H98449230   6.662   6.630   0.175  1.3692  0.5017 -0.0475
   44MOL   H98549231   6.506   6.613   0.103 -0.1083  0.5046 -2.0450
   44MOL   H98649232   6.548   6.358   0.089 -1.5656 -0.8708  1.7216
   44MOL   H98749233   6.696   6.393   0.186  0.8644  0.2134 -1.7512
   44MOL   H98849234   6.538   6.487   0.362 -0.9898  0.7159 -0.4226
   44MOL   H98949235   6.420   6.460   0.254  0.1253  0.3789  1.9252
   44MOL   H99049236   6.415   6.264   0.399 -0.7951 -0.0900 -0.6367
   44MOL   H99149237   6.489   6.200   0.255 -2.5505  0.4877  0.6372
   44MOL   H99249238   6.633   6.312   0.493 -0.8196 -1.6433  2.2895
   44MOL   H99349239   6.721   6.219   0.373 -0.4700 -1.8929 -1.4724
   44MOL   H99449240   6.525   6.100   0.576 -0.1020  0.7621  0.1034
   44MOL   H99549241   6.572   6.014   0.439  1.4140 -0.0876 -0.1234
   44MOL   H99649242   6.602   5.991   0.711 -0.2566 -0.5157 -0.5843
   44MOL   H99749243   6.895   5.919   0.737  0.0286 -0.0970  1.0126
   44MOL   H99849244   6.772   5.792   0.733  1.0438 -2.2883  2.7328
   44MOL   H99949245   6.817   5.825   0.956  0.0803  1.4158  1.7355
   44MOL     H149246   6.662   5.902   0.922  0.3962 -0.8445  2.5184
   44MOL     H249247   6.807   6.124   0.889 -2.6363  0.5948  2.2293
   44MOL     H349248   6.944   6.040   0.961 -0.1672 -0.8602  0.5404
   44MOL     H449249   6.823   6.197   1.102 -1.1221 -0.1784  1.5130
   44MOL     H549250   6.679   6.086   1.102 -0.3632 -0.0124 -1.2980
   44MOL     H649251   6.943   6.003   1.188 -0.6527 -0.2859 -0.4010
   44MOL     H749252   6.782   5.921   1.201 -0.5443  0.4915 -0.5286
   44MOL     H849253   6.890   6.171   1.361  1.0198 -1.2787  2.2652
   44MOL     H949254   6.725   6.107   1.374  0.3210 -0.0136  0.6141
   44MOL    H1049255   6.938   5.929   1.430  1.4564  1.4862 -1.6898
   44MOL    C1149256   6.851   6.029   1.590 -0.3157 -0.0391 -0.4545
   44MOL    O1249257   6.818   6.145   1.627  0.2778 -0.2668  0.6848
   44MOL    C1349258   6.869   5.919   1.690 -0.6419  0.2024 -0.2633
   44MOL    C1449259   6.752   5.897   1.790 -0.0014 -0.8350 -0.0057
   44MOL    C1549260   6.766   5.772   1.881  0.4792  0.6612 -0.0543
   44MOL    C1649261   6.878   5.778   1.993  0.5726 -0.1188  0.2655
   44MOL    C1749262   6.877   5.656   2.078 -1.1673 -0.2280 -0.1178
   44MOL    C1849263   7.005   5.654   2.162 -0.5382 -0.2551  0.4317
   44MOL    C1949264   7.031   5.510   2.236 -0.4319  0.0281 -0.1704
   44MOL    C2049265   6.921   5.460   2.335  0.2525  0.6044  0.1058
   44MOL    C2149266   6.959   5.330   2.396 -0.7045  0.1958  0.0588
   44MOL    C2249267   6.847   5.268   2.480  0.2797  0.3540 -0.0165
   44MOL    C2349268   6.853   5.313   2.622 -0.1361  0.3088  0.4652
   44MOL    O2449269   6.930   5.246   2.697  0.4054 -0.6029  0.4702
   44MOL    N2549270   6.760   5.398   2.665 -0.0743 -0.1661 -0.4353
   44MOL    C2649271   6.744   5.429   2.806  0.3928  0.0719 -0.3489
   44MOL    C2749272   6.650   5.329   2.876 -0.0382 -0.0046  0.3521
   44MOL    C2849273   6.634   5.351   3.025 -0.0950  0.5657 -0.4651
   44MOL    C2949274   6.537   5.253   3.090 -0.0617 -0.0048  0.5264
   44MOL    C3049275   6.391   5.275   3.042 -0.4159  0.0955 -0.1344
   44MOL    C3149276   6.289   5.184   3.111  0.6578  0.6952 -0.7086
   44MOL    N3249277   6.307   5.044   3.069  0.1673  0.5749 -0.4929
   44MOL    H3349278   6.951   5.943   1.758 -0.9437  0.6650 -0.0581
   44MOL    H3449279   6.897   5.825   1.643  0.9389  0.9713 -0.8817
   44MOL    H3549280   6.662   5.881   1.730  1.2141  0.0306 -2.1160
   44MOL    H3649281   6.730   5.984   1.852  1.5554 -0.1004 -0.4728
   44MOL    H3749282   6.774   5.676   1.829 -2.2794 -0.7241  1.9558
   44MOL    H3849283   6.676   5.771   1.943  1.1023  2.8847  0.9521
   44MOL    H3949284   6.973   5.787   1.941  0.9625  1.5600  1.2625
   44MOL    H4049285   6.855   5.864   2.057 -1.3793  0.7851 -1.5802
   44MOL    H4149286   6.794   5.639   2.147  0.4105 -1.1657  1.6080
   44MOL    H4249287   6.868   5.577   2.004 -1.6285  1.2606 -1.6759
   44MOL    H4349288   7.099   5.677   2.112 -0.3072 -0.0067  0.9753
   44MOL    H4449289   7.001   5.735   2.234  0.3696 -0.9652  1.2932
   44MOL    H4549290   7.061   5.440   2.158  1.2873  0.1955  0.3338
   44MOL    H4649291   7.121   5.523   2.296  1.2497 -2.5520 -2.0322
   44MOL    H4749292   6.896   5.529   2.416 -2.7328  0.2017 -0.4085
   44MOL    H4849293   6.830   5.450   2.275  0.3529  1.2042 -0.1487
   44MOL    H4949294   7.054   5.354   2.442  0.2350 -0.0841 -1.6707
   44MOL    H5049295   6.994   5.272   2.310  1.1565  0.3037  0.7213
   44MOL    H5149296   6.750   5.284   2.432 -0.5634 -1.7848  0.8943
   44MOL    H5249297   6.860   5.159   2.484  0.3979  0.4225  1.9758
   44MOL    H5349298   6.704   5.451   2.599  0.3537  0.2774 -0.4442
   44MOL    H5449299   6.700   5.527   2.821 -0.1618 -0.1347 -0.6231
   44MOL    H5549300   6.838   5.421   2.861  0.3168 -0.2207 -0.2606
   44MOL    H5649301   6.686   5.228   2.857 -0.9627 -0.1859 -0.4568
   44MOL    H5749302   6.552   5.330   2.829 -0.8113 -2.2922  1.8331
   44MOL    H5849303   6.577   5.443   3.038 -0.9719 -0.0748  0.2509
   44MOL    H5949304   6.733   5.356   3.070 -0.4559 -0.6864  0.5028
   44MOL    H6049305   6.538   5.270   3.198 -1.2081 -0.9936  0.6916
   44MOL    H6149306   6.566   5.151   3.066 -4.7937 -1.7641  1.6806
   44MOL    H6249307   6.385   5.254   2.936  1.7584 -0.3521 -0.1723
   44MOL    H6349308   6.365   5.379   3.064 -0.3267  0.2278 -0.6602
   44MOL    H6449309   6.184   5.210   3.097  0.6683  0.0828 -1.9911
   44MOL    H6549310   6.305   5.184   3.219  0.2480 -1.0210 -0.6255
   44MOL    H6649311   6.367   4.985   3.126 -0.1729  1.4733  0.8153
   44MOL    C6749312   6.264   4.989   2.954 -0.3582  0.0127 -0.1413
   44MOL    O6849313   6.200   5.065   2.875 -0.2381 -0.5586  0.0391
   44MOL    C6949314   6.313   4.854   2.894  0.0801  0.0415  0.2809
   44MOL    C7049315   6.199   4.757   2.860  0.1937  0.0217  0.2595
   44MOL    C7149316   6.121   4.700   2.980  0.2599  0.3303  0.4794
   44MOL    C7249317   5.990   4.632   2.957  0.1832  0.5161  0.7489
   44MOL    C7349318   5.997   4.490   2.905 -0.4236 -0.0082  0.2296
   44MOL    C7449319   5.865   4.427   2.876 -0.0006 -0.1806 -0.2190
   44MOL    C7549320   5.772   4.406   2.999  0.6324 -0.7711 -0.5207
   44MOL    C7649321   5.647   4.330   2.966  0.3437  0.2743  0.7625
   44MOL    C7749322   5.564   4.290   3.088  0.4829 -0.6183  0.1889
   44MOL    C7849323   5.440   4.203   3.062 -0.5556  0.1397  0.3467
   44MOL    C7949324   5.375   4.142   3.183  0.4456 -0.0282 -0.1555
   44MOL    O8049325   5.447   4.105   3.276 -0.6568 -0.1971  0.6461
   44MOL    N8149326   5.243   4.135   3.188  0.0516  0.0257  0.3091
   44MOL    C8249327   5.173   4.059   3.288  0.6046 -0.1406  0.4696
   44MOL    C8349328   5.106   4.151   3.394  0.0826  0.3012  0.4401
   44MOL    C8449329   4.957   4.190   3.365 -0.4283  1.2974 -0.4637
   44MOL    C8549330   4.899   4.269   3.480 -0.1448  0.7193  0.3775
   44MOL    C8649331   4.759   4.327   3.451 -0.4997  0.5783  0.3022
   44MOL    C8749332   4.696   4.397   3.574 -0.2558 -1.0630  0.4637
   44MOL    N8849333   4.554   4.417   3.559  0.2807 -0.0602 -0.1730
   44MOL    H8949334   6.381   4.813   2.969  1.1303 -0.0122 -0.6845
   44MOL    H9049335   6.370   4.888   2.807 -1.8424  1.4162 -0.4896
   44MOL    H9149336   6.123   4.807   2.799  1.5657 -2.3772 -3.5720
   44MOL    H9249337   6.231   4.671   2.801 -2.2034 -1.9829  1.7503
   44MOL    H9349338   6.170   4.634   3.051 -0.9544 -0.2057  0.8314
   44MOL    H9449339   6.102   4.786   3.044  1.2912 -0.3106  1.6581
   44MOL    H9549340   5.928   4.630   3.046 -0.2677 -0.3118  0.4265
   44MOL    H9649341   5.936   4.681   2.876 -1.6012 -0.9343  1.0398
   44MOL    H9749342   6.048   4.487   2.808  1.8467  1.7499  1.3439
   44MOL    H9849343   6.043   4.429   2.983  1.6173  0.6665 -0.4148
   44MOL    H9949344   5.809   4.492   2.809  0.0064 -1.0985 -1.1291
   44MOL   H10049345   5.873   4.334   2.820  1.1313  0.7802 -1.7052
   44MOL   H10149346   5.732   4.503   3.029  0.4317 -1.1514  0.4542
   44MOL   H10249347   5.827   4.387   3.091 -1.1803  0.0698  0.7847
   44MOL   H10349348   5.589   4.389   2.894  1.2219 -0.3057 -0.4476
   44MOL   H10449349   5.675   4.243   2.906  0.1328  0.2975  0.6244
   44MOL   H10549350   5.541   4.371   3.157  1.6580  0.4934 -0.7157
   44MOL   H10649351   5.621   4.219   3.148 -1.6986 -0.2201  2.8196
   44MOL   H10749352   5.375   4.267   3.003 -0.4149  0.5787  0.6585
   44MOL   H10849353   5.472   4.115   3.005  1.1823  0.2635  1.0837
   44MOL   H10949354   5.188   4.184   3.119 -1.9165 -2.9257 -0.3018
   44MOL   H11049355   5.241   3.990   3.337  2.0132  2.0571  1.7206
   44MOL   H11149356   5.101   3.994   3.239 -1.1746  1.4198  0.9544
   44MOL   H11249357   5.162   4.243   3.411  0.9493  0.1762 -1.5392
   44MOL   H11349358   5.108   4.091   3.485 -1.1753  0.1119  0.3464
   44MOL   H11449359   4.902   4.098   3.345  0.5320  0.8622 -1.1343
   44MOL   H11549360   4.947   4.248   3.272  2.2129  1.7902 -0.4760
   44MOL   H11649361   4.903   4.196   3.561  0.0484 -1.2047 -1.3161
   44MOL   H11749362   4.958   4.354   3.513  0.9257 -0.2090  0.8979
   44MOL   H11849363   4.774   4.386   3.360  0.6460  0.5124  0.4376
   44MOL   H11949364   4.702   4.237   3.429  0.6565 -0.3731  1.1175
   44MOL   H12049365   4.708   4.355   3.674 -1.7422  1.0902  1.5781
   44MOL   H12149366   4.744   4.494   3.587 -2.1989  0.4653 -2.9557
   44MOL   H12249367   4.531   4.491   3.494  1.0412  0.4662  0.1499
   44MOL   H12349368   4.517   4.451   3.646 -1.6188  0.9490 -1.3310
   7.69165   7.69165   7.69165
